 Gaussian 16, Revision A.03,
 Gaussian 16:  ES64L-G16RevA.03 25-Dec-2016

 --------------------------
 # ccsd(t)/6-311++g(d,p) sp
 --------------------------

 -------------------
 Title Card Required
 -------------------
 Symbolic Z-matrix:
 Charge =  0 Multiplicity = 2

                         Standard orientation:
 ---------------------------------------------------------------------
 Center     Atomic      Atomic             Coordinates (Angstroms)
 Number     Number       Type             X           Y           Z
 ---------------------------------------------------------------------
      1          6           0        1.345399   -1.344762   -1.204818
      2          1           0        1.736859   -2.223155   -1.663341
      3          6           0        0.897971   -0.365778   -0.667422
      4          6           0        0.393596    0.938885   -0.208602
      5          8           0        1.009981    1.935705   -0.443381
      6          8           0       -0.767452    0.959806    0.437828
      7          6           0       -1.503679   -0.252644    0.687680
      8          6           0       -2.371166   -0.615970   -0.501247
      9          1           0       -0.810636   -1.051145    0.955330
     10          1           0       -2.109095   -0.014521    1.560884
     11          1           0       -3.035014    0.211564   -0.755034
     12          1           0       -1.761730   -0.858062   -1.373616
     13          1           0       -2.979960   -1.489250   -0.257892
     14          8           0        1.501342   -0.899945    1.457665
     15          1           0        2.435883   -0.698344    1.283231
 ---------------------------------------------------------------------

 SCF Done:  E(UHF) =  -417.980428614     A.U. after   41 cycles
 E2 =    -0.1263281788D+01 EUMP2 =    -0.41924371040254D+03
 CCSD(T)= -0.41934986809D+03

 The electronic state is 2-A.
 Alpha  occ. eigenvalues --  -20.64157 -20.60770 -20.55117 -11.41484 -11.29907
 Alpha  occ. eigenvalues --  -11.27668 -11.26672 -11.23096  -1.47396  -1.39788
 Alpha  occ. eigenvalues --   -1.37695  -1.07865  -1.04727  -0.91557  -0.87432
 Alpha  occ. eigenvalues --   -0.75692  -0.73288  -0.69856  -0.68591  -0.67814
 Alpha  occ. eigenvalues --   -0.65481  -0.62841  -0.58238  -0.56813  -0.54652
 Alpha  occ. eigenvalues --   -0.54472  -0.50614  -0.47364  -0.45735  -0.43419
 Alpha  occ. eigenvalues --   -0.42642
 Alpha virt. eigenvalues --    0.03208   0.04553   0.05265   0.06556   0.07018
 Alpha virt. eigenvalues --    0.08364   0.09099   0.09892   0.11082   0.11743
 Alpha virt. eigenvalues --    0.13271   0.13871   0.14826   0.14956   0.16063

  Beta  occ. eigenvalues --  -20.60728 -20.60074 -20.55513 -11.41226 -11.29917
  Beta  occ. eigenvalues --  -11.27725 -11.26407 -11.23096  -1.47498  -1.38279
  Beta  occ. eigenvalues --   -1.24545  -1.07500  -1.04728  -0.91112  -0.87034
  Beta  occ. eigenvalues --   -0.75413  -0.72828  -0.69480  -0.66740  -0.64590
  Beta  occ. eigenvalues --   -0.62915  -0.58467  -0.55712  -0.54599  -0.51563
  Beta  occ. eigenvalues --   -0.50706  -0.48264  -0.46495  -0.43687  -0.42843
  Beta virt. eigenvalues --    0.03268   0.04334   0.04551   0.06575   0.06851
  Beta virt. eigenvalues --    0.08112   0.08460   0.09721   0.10370   0.11329
  Beta virt. eigenvalues --    0.11672   0.13768   0.14248   0.14926   0.15314

 Mulliken charges and spin densities:
               1          2
     1  C   -1.773652   0.525821
     2  H    0.242771  -0.041871
     3  C    1.629779  -0.526785
     4  C    0.159200   0.186933
     5  O   -0.329320  -0.083196
     6  O   -0.115044  -0.000205
     7  C   -0.241328  -0.003416
     8  C   -0.415385  -0.001923
     9  H    0.174111   0.002493
    10  H    0.181364  -0.001613
    11  H    0.167685   0.000310
    12  H    0.126536   0.000839
    13  H    0.129304  -0.000336
    14  O   -0.183993   0.981433
    15  H    0.247972  -0.038486
 Sum of Mulliken charges =  -0.00000   1.00000

 Dipole moment (field-independent basis, Debye):
    X=             -0.2285    Y=             -4.6654    Z=             -0.1282  Tot=              4.6727
 Quadrupole moment (field-independent basis, Debye-Ang):
   XX=            -38.8193   YY=            -53.2472   ZZ=            -46.4593
   XY=             -5.0081   XZ=              0.5046   YZ=              4.1062

 Normal termination of Gaussian 16 at Mon May 12 05:45:25 2025.
