 Gaussian 16, Revision A.03,
 Gaussian 16:  ES64L-G16RevA.03 25-Dec-2016

 --------------------------
 # freq 6-311++g(d,p) m062x
 --------------------------

 -------------------
 Title Card Required
 -------------------
 Symbolic Z-matrix:
 Charge =  0 Multiplicity = 2

                         Standard orientation:
 ---------------------------------------------------------------------
 Center     Atomic      Atomic             Coordinates (Angstroms)
 Number     Number       Type             X           Y           Z
 ---------------------------------------------------------------------
      1          6           0        1.350421   -1.385373   -1.125187
      2          1           0        1.715244   -2.270951   -1.594610
      3          6           0        0.998630   -0.458797   -0.364038
      4          6           0        0.418634    0.918241   -0.208133
      5          8           0        1.035807    1.890417   -0.521033
      6          8           0       -0.773324    0.986130    0.371525
      7          6           0       -1.525583   -0.206967    0.668711
      8          6           0       -2.362880   -0.618447   -0.525640
      9          1           0       -0.851167   -0.996448    1.001191
     10          1           0       -2.152105    0.081344    1.511202
     11          1           0       -3.011077    0.201891   -0.836468
     12          1           0       -1.730064   -0.903635   -1.368883
     13          1           0       -2.985734   -1.475502   -0.261494
     14          8           0        1.409339   -0.809766    1.343295
     15          1           0        2.364987   -0.662887    1.324495
 ---------------------------------------------------------------------

 SCF Done:  E(UM062X) =  -420.205259353     A.U. after   20 cycles

 The electronic state is 2-A.
 Alpha  occ. eigenvalues --  -19.68063 -19.65196 -19.62891 -10.70698 -10.63458
 Alpha  occ. eigenvalues --  -10.60806 -10.60581 -10.54457  -1.25284  -1.16692
 Alpha  occ. eigenvalues --   -1.11851  -0.91554  -0.88421  -0.77435  -0.74322
 Alpha  occ. eigenvalues --   -0.65013  -0.62453  -0.58574  -0.58129  -0.54479
 Alpha  occ. eigenvalues --   -0.52934  -0.50585  -0.48597  -0.46744  -0.45930
 Alpha  occ. eigenvalues --   -0.42147  -0.40896  -0.40284  -0.37967  -0.36840
 Alpha  occ. eigenvalues --   -0.32438
 Alpha virt. eigenvalues --   -0.01042  -0.00518   0.00524   0.00809   0.01810
 Alpha virt. eigenvalues --    0.02460   0.03166   0.04455   0.05321   0.05963
 Alpha virt. eigenvalues --    0.06963   0.07816   0.08341   0.09010   0.10405

  Beta  occ. eigenvalues --  -19.68054 -19.64392 -19.62909 -10.70652 -10.63605
  Beta  occ. eigenvalues --  -10.60809 -10.60051 -10.54455  -1.25251  -1.16710
  Beta  occ. eigenvalues --   -1.09015  -0.89562  -0.88379  -0.76959  -0.73566
  Beta  occ. eigenvalues --   -0.64428  -0.61879  -0.58408  -0.57606  -0.53326
  Beta  occ. eigenvalues --   -0.52788  -0.49377  -0.47743  -0.45893  -0.43127
  Beta  occ. eigenvalues --   -0.42070  -0.39526  -0.39039  -0.37977  -0.35718
  Beta virt. eigenvalues --   -0.10195  -0.00949  -0.00070   0.00711   0.01467
  Beta virt. eigenvalues --    0.01971   0.02815   0.03284   0.04338   0.05471
  Beta virt. eigenvalues --    0.06014   0.07026   0.07752   0.08189   0.08919

 Mulliken charges and spin densities:
               1          2
     1  C    0.046224   0.835305
     2  H    0.244453  -0.030782
     3  C   -0.132438  -0.251049
     4  C   -0.012336   0.050879
     5  O   -0.242315  -0.006673
     6  O   -0.011999   0.002939
     7  C   -0.358840  -0.002477
     8  C   -0.394810  -0.000589
     9  H    0.196835   0.006094
    10  H    0.213546  -0.000853
    11  H    0.187135  -0.000118
    12  H    0.127398   0.004141
    13  H    0.160738  -0.000910
    14  O   -0.279606   0.398357
    15  H    0.256013  -0.004264
 Sum of Mulliken charges =  -0.00000   1.00000

 Dipole moment (field-independent basis, Debye):
    X=             -0.6930    Y=             -4.1308    Z=             -1.1444  Tot=              4.3421
 Quadrupole moment (field-independent basis, Debye-Ang):
   XX=            -39.8128   YY=            -52.0137   ZZ=            -47.5713
   XY=             -4.2093   XZ=             -1.1754   YZ=              5.2881

  Exact polarizability:  72.021   0.010  71.198  -2.721   4.144  72.866
 Approx polarizability:  76.287   0.956  86.904  -5.982   6.143  90.666

 ******    1 imaginary frequencies (negative Signs) ******

                      1                      2                      3
                      A                      A                      A
 Frequencies --   -624.6270                87.1110                99.9912
 Red. masses --     10.8935                 3.6050                 3.8614
 Frc consts  --      2.5041                 0.0161                 0.0227
 IR Inten    --     14.4814                 1.8482                 1.0768

                      4                      5                      6
                      A                      A                      A
 Frequencies --    124.8722               170.4580               208.9596
 Red. masses --      3.6177                 1.2219                 1.7861
 Frc consts  --      0.0332                 0.0209                 0.0460
 IR Inten    --      4.2117                83.0558                 3.2074

                      7                      8                      9
                      A                      A                      A
 Frequencies --    227.7193               246.5264               283.4058
 Red. masses --      3.9420                 1.9559                 1.6611
 Frc consts  --      0.1204                 0.0700                 0.0786
 IR Inten    --      4.1209                 2.7281                17.9522

                     10                     11                     12
                      A                      A                      A
 Frequencies --    378.8044               394.5395               423.9383
 Red. masses --      2.4084                 2.8866                 3.5254
 Frc consts  --      0.2036                 0.2647                 0.3733
 IR Inten    --      9.6610                 7.2793                13.4729

                     13                     14                     15
                      A                      A                      A
 Frequencies --    565.5290               636.0519               710.7532
 Red. masses --      5.3820                 4.2861                 1.3609
 Frc consts  --      1.0142                 1.0216                 0.4051
 IR Inten    --     19.7965                 6.7030                37.5182

                     16                     17                     18
                      A                      A                      A
 Frequencies --    748.8843               757.2562               807.1640
 Red. masses --      5.6162                 9.6073                 1.1285
 Frc consts  --      1.8558                 3.2459                 0.4332
 IR Inten    --      0.8153                20.0491                 2.8235

                     19                     20                     21
                      A                      A                      A
 Frequencies --    949.2136               994.2150              1099.9679
 Red. masses --      2.2638                 1.1636                 3.6819
 Frc consts  --      1.2018                 0.6777                 2.6247
 IR Inten    --     13.9470                60.1340                49.5930

                     22                     23                     24
                      A                      A                      A
 Frequencies --   1128.0979              1181.3228              1265.6218
 Red. masses --      2.3586                 1.9245                 2.6993
 Frc consts  --      1.7685                 1.5823                 2.5474
 IR Inten    --     39.6167                53.6706               326.1415

                     25                     26                     27
                      A                      A                      A
 Frequencies --   1354.9111              1404.8491              1432.2593
 Red. masses --      1.3099                 1.2717                 1.3712
 Frc consts  --      1.4168                 1.4787                 1.6572
 IR Inten    --    114.1629                27.3057                16.4510

                     28                     29                     30
                      A                      A                      A
 Frequencies --   1492.3174              1501.6890              1539.9255
 Red. masses --      1.0400                 1.0473                 1.0939
 Frc consts  --      1.3646                 1.3915                 1.5283
 IR Inten    --      4.7757                 1.6005                 9.6359

                     31                     32                     33
                      A                      A                      A
 Frequencies --   1865.5423              1895.1513              3069.1138
 Red. masses --     10.4640                 7.9595                 1.0356
 Frc consts  --     21.4565                16.8431                 5.7472
 IR Inten    --    402.3510               124.9024                 8.1288

                     34                     35                     36
                      A                      A                      A
 Frequencies --   3115.5870              3141.6469              3151.7627
 Red. masses --      1.0611                 1.1023                 1.1022
 Frc consts  --      6.0686                 6.4100                 6.4509
 IR Inten    --      8.2870                10.9828                11.4200

                     37                     38                     39
                      A                      A                      A
 Frequencies --   3170.9819              3448.7654              3846.8552
 Red. masses --      1.1082                 1.1281                 1.0677
 Frc consts  --      6.5656                 7.9056                 9.3095
 IR Inten    --     13.8317                77.8203                69.7252

 - Thermochemistry -
 -------------------
 Temperature   298.150 Kelvin.  Pressure   1.00000 Atm.
 Atom     1 has atomic number  6 and mass  12.00000

 Molecular mass:   115.03952 amu.
 Principal axes and moments of inertia in atomic units:
                           1         2         3
     Eigenvalues --   732.231051055.857291277.43658
           X            0.99987   0.00886   0.01316
           Y           -0.00955   0.99853   0.05343
           Z           -0.01267  -0.05355   0.99849
 This molecule is an asymmetric top.
 Rotational symmetry number  1.
 Warning -- assumption of classical behavior for rotation
           may cause significant error
 Rotational temperatures (Kelvin)      0.11829     0.08203     0.06780
 Rotational constants (GHZ):           2.46472     1.70927     1.41278
    1 imaginary frequencies ignored.
 Zero-point vibrational energy     292617.1 (Joules/Mol)
                                   69.93717 (Kcal/Mol)
 Warning -- explicit consideration of  12 degrees of freedom as
           vibrations may cause significant error
 Vibrational temperatures:    125.33   143.87   179.66   245.25   300.65
          (Kelvin)            327.64   354.70   407.76   545.02   567.65
                              609.95   813.67   915.14  1022.62  1077.48
                             1089.52  1161.33  1365.71  1430.45  1582.61
                             1623.08  1699.66  1820.95  1949.41  2021.26
                             2060.70  2147.11  2160.60  2215.61  2684.10
                             2726.70  4415.77  4482.63  4520.13  4534.68
                             4562.34  4962.00  5534.77

 Zero-point correction=                           0.111452 (Hartree/Particle)
 Thermal correction to Energy=                    0.120897
 Thermal correction to Enthalpy=                  0.121841
 Thermal correction to Gibbs Free Energy=         0.076682
 Sum of electronic and zero-point Energies=           -420.093807
 Sum of electronic and thermal Energies=              -420.084362
 Sum of electronic and thermal Enthalpies=            -420.083418
 Sum of electronic and thermal Free Energies=         -420.128578

                     E (Thermal)             CV                S
                      KCal/Mol        Cal/Mol-Kelvin    Cal/Mol-Kelvin
 Total                   75.864             32.479             95.046
 Electronic               0.000              0.000              1.377
 Translational            0.889              2.981             40.136
 Rotational               0.889              2.981             28.381
 Vibrational             74.087             26.517             25.152
 Vibration     1          0.601              1.958              3.724
 Vibration     2          0.604              1.949              3.454
 Vibration     3          0.610              1.928              3.024
 Vibration     4          0.626              1.879              2.430
 Vibration     5          0.642              1.827              2.053
 Vibration     6          0.651              1.799              1.897
 Vibration     7          0.661              1.769              1.755
 Vibration     8          0.682              1.704              1.513
 Vibration     9          0.749              1.515              1.044
 Vibration    10          0.762              1.482              0.983
 Vibration    11          0.786              1.418              0.879
 Vibration    12          0.921              1.106              0.513

 Normal termination of Gaussian 16 at Fri Mar 28 14:44:28 2025.
