 Gaussian 16, Revision A.03,
 Gaussian 16:  ES64L-G16RevA.03 25-Dec-2016

 --------------------------
 # ccsd(t)/6-311++g(d,p) sp
 --------------------------

 -------------------
 Title Card Required
 -------------------
 Symbolic Z-matrix:
 Charge =  0 Multiplicity = 2

                         Standard orientation:
 ---------------------------------------------------------------------
 Center     Atomic      Atomic             Coordinates (Angstroms)
 Number     Number       Type             X           Y           Z
 ---------------------------------------------------------------------
      1          6           0        1.350421   -1.385373   -1.125187
      2          1           0        1.715244   -2.270951   -1.594610
      3          6           0        0.998630   -0.458797   -0.364038
      4          6           0        0.418634    0.918241   -0.208133
      5          8           0        1.035807    1.890417   -0.521033
      6          8           0       -0.773324    0.986130    0.371525
      7          6           0       -1.525583   -0.206967    0.668711
      8          6           0       -2.362880   -0.618447   -0.525640
      9          1           0       -0.851167   -0.996448    1.001191
     10          1           0       -2.152105    0.081344    1.511202
     11          1           0       -3.011077    0.201891   -0.836468
     12          1           0       -1.730064   -0.903635   -1.368883
     13          1           0       -2.985734   -1.475502   -0.261494
     14          8           0        1.409339   -0.809766    1.343295
     15          1           0        2.364987   -0.662887    1.324495
 ---------------------------------------------------------------------

 SCF Done:  E(UHF) =  -417.968952568     A.U. after   30 cycles
 E2 =    -0.1263923876D+01 EUMP2 =    -0.41923287644398D+03
 CCSD(T)= -0.41935429929D+03

 The electronic state is 2-A.
 Alpha  occ. eigenvalues --  -20.61583 -20.60789 -20.55193 -11.41265 -11.30078
 Alpha  occ. eigenvalues --  -11.29966 -11.29120 -11.23328  -1.47499  -1.37767
 Alpha  occ. eigenvalues --   -1.37347  -1.09096  -1.04889  -0.91607  -0.87835
 Alpha  occ. eigenvalues --   -0.76328  -0.73128  -0.69982  -0.68639  -0.65831
 Alpha  occ. eigenvalues --   -0.63343  -0.62535  -0.57808  -0.55918  -0.54514
 Alpha  occ. eigenvalues --   -0.53349  -0.50662  -0.47557  -0.45318  -0.44594
 Alpha  occ. eigenvalues --   -0.42666
 Alpha virt. eigenvalues --    0.03173   0.04570   0.05335   0.06520   0.06924
 Alpha virt. eigenvalues --    0.08565   0.09144   0.10935   0.11491   0.11738
 Alpha virt. eigenvalues --    0.13136   0.13913   0.14349   0.14662   0.16225

  Beta  occ. eigenvalues --  -20.60734 -20.58732 -20.55637 -11.40871 -11.32310
  Beta  occ. eigenvalues --  -11.29983 -11.26223 -11.23325  -1.47593  -1.38420
  Beta  occ. eigenvalues --   -1.28305  -1.06973  -1.04861  -0.90516  -0.86264
  Beta  occ. eigenvalues --   -0.75363  -0.72170  -0.69909  -0.67700  -0.64677
  Beta  occ. eigenvalues --   -0.62819  -0.58184  -0.56620  -0.54601  -0.50967
  Beta  occ. eigenvalues --   -0.50789  -0.49378  -0.47136  -0.46142  -0.43042
  Beta virt. eigenvalues --    0.03283   0.03504   0.04573   0.06389   0.06591
  Beta virt. eigenvalues --    0.07318   0.08412   0.09935   0.11062   0.11626
  Beta virt. eigenvalues --    0.12403   0.13380   0.14166   0.14937   0.15506

 Mulliken charges and spin densities:
               1          2
     1  C   -0.115387   1.497276
     2  H    0.256429  -0.102342
     3  C    0.101013  -1.088039
     4  C    0.008091   0.175635
     5  O   -0.329403  -0.090418
     6  O   -0.105213  -0.000696
     7  C   -0.270272  -0.006855
     8  C   -0.383546  -0.002667
     9  H    0.192071   0.005382
    10  H    0.181760  -0.001568
    11  H    0.169988   0.000607
    12  H    0.116214   0.003067
    13  H    0.131395  -0.000870
    14  O   -0.216667   0.635828
    15  H    0.263527  -0.024340
 Sum of Mulliken charges =  -0.00000   1.00000

 Dipole moment (field-independent basis, Debye):
    X=             -0.4912    Y=             -4.6368    Z=             -0.6173  Tot=              4.7035
 Quadrupole moment (field-independent basis, Debye-Ang):
   XX=            -39.5530   YY=            -52.9921   ZZ=            -47.0313
   XY=             -4.7346   XZ=             -0.1739   YZ=              4.9070

 Normal termination of Gaussian 16 at Mon May 12 08:24:41 2025.
