 Gaussian 16, Revision A.03,
 Gaussian 16:  ES64L-G16RevA.03 25-Dec-2016

 --------------------------
 # ccsd(t)/6-311++g(d,p) sp
 --------------------------

 -------------------
 Title Card Required
 -------------------
 Symbolic Z-matrix:
 Charge =  0 Multiplicity = 2

                         Standard orientation:
 ---------------------------------------------------------------------
 Center     Atomic      Atomic             Coordinates (Angstroms)
 Number     Number       Type             X           Y           Z
 ---------------------------------------------------------------------
      1          6           0        1.349488   -1.385836   -1.123563
      2          1           0        1.716143   -2.275050   -1.585402
      3          6           0        1.005142   -0.464522   -0.342250
      4          6           0        0.419845    0.916810   -0.208976
      5          8           0        1.037129    1.888252   -0.524219
      6          8           0       -0.773436    0.987288    0.368509
      7          6           0       -1.526585   -0.204780    0.667576
      8          6           0       -2.362557   -0.618289   -0.526931
      9          1           0       -0.853674   -0.994215    1.003038
     10          1           0       -2.154020    0.085634    1.508679
     11          1           0       -3.009890    0.201812   -0.840169
     12          1           0       -1.728662   -0.905307   -1.368820
     13          1           0       -2.986173   -1.474550   -0.262014
     14          8           0        1.404344   -0.805328    1.333729
     15          1           0        2.359979   -0.660319    1.325405
 ---------------------------------------------------------------------

 SCF Done:  E(UHF) =  -417.970967721     A.U. after   29 cycles
 E2 =    -0.1266344551D+01 EUMP2 =    -0.41923731227120D+03
 CCSD(T)= -0.41935716585D+03

 The electronic state is 2-A.
 Alpha  occ. eigenvalues --  -20.61215 -20.60808 -20.55259 -11.41242 -11.30726
 Alpha  occ. eigenvalues --  -11.29979 -11.29329 -11.23358  -1.47516  -1.37807
 Alpha  occ. eigenvalues --   -1.36967  -1.09255  -1.04910  -0.91636  -0.87894
 Alpha  occ. eigenvalues --   -0.76401  -0.73107  -0.70009  -0.68652  -0.65753
 Alpha  occ. eigenvalues --   -0.63093  -0.62338  -0.57804  -0.55887  -0.54512
 Alpha  occ. eigenvalues --   -0.53097  -0.50683  -0.47636  -0.45368  -0.44723
 Alpha  occ. eigenvalues --   -0.42547
 Alpha virt. eigenvalues --    0.03169   0.04569   0.05347   0.06517   0.06911
 Alpha virt. eigenvalues --    0.08564   0.09134   0.10914   0.11625   0.11739
 Alpha virt. eigenvalues --    0.13127   0.13894   0.14309   0.14641   0.16213

  Beta  occ. eigenvalues --  -20.60757 -20.58633 -20.55665 -11.40863 -11.32945
  Beta  occ. eigenvalues --  -11.29996 -11.26321 -11.23354  -1.47600  -1.38407
  Beta  occ. eigenvalues --   -1.28987  -1.06842  -1.04878  -0.90495  -0.86211
  Beta  occ. eigenvalues --   -0.75375  -0.72107  -0.69965  -0.67796  -0.64758
  Beta  occ. eigenvalues --   -0.62830  -0.58152  -0.56733  -0.54609  -0.51081
  Beta  occ. eigenvalues --   -0.50807  -0.49709  -0.47319  -0.46180  -0.43043
  Beta virt. eigenvalues --    0.03284   0.03447   0.04575   0.06344   0.06580
  Beta virt. eigenvalues --    0.07267   0.08396   0.09920   0.11050   0.11613
  Beta virt. eigenvalues --    0.12533   0.13335   0.14115   0.14932   0.15544

 Mulliken charges and spin densities:
               1          2
     1  C   -0.078945   1.549154
     2  H    0.255294  -0.103346
     3  C    0.078347  -1.077073
     4  C    0.008494   0.168809
     5  O   -0.329687  -0.081849
     6  O   -0.104991  -0.000799
     7  C   -0.272589  -0.007003
     8  C   -0.382386  -0.002098
     9  H    0.193702   0.005363
    10  H    0.181700  -0.001464
    11  H    0.170097   0.000588
    12  H    0.114974   0.002989
    13  H    0.131829  -0.000869
    14  O   -0.231971   0.569232
    15  H    0.266130  -0.021633
 Sum of Mulliken charges =  -0.00000   1.00000

 Dipole moment (field-independent basis, Debye):
    X=             -0.5141    Y=             -4.6282    Z=             -0.6949  Tot=              4.7082
 Quadrupole moment (field-independent basis, Debye-Ang):
   XX=            -39.5986   YY=            -52.9882   ZZ=            -47.2055
   XY=             -4.7025   XZ=             -0.2889   YZ=              4.9709

 Normal termination of Gaussian 16 at Mon May 12 04:53:18 2025.
