 Gaussian 16, Revision A.03,
 Gaussian 16:  ES64L-G16RevA.03 25-Dec-2016

 --------------------------
 # ccsd(t)/6-311++g(d,p) sp
 --------------------------

 -------------------
 Title Card Required
 -------------------
 Symbolic Z-matrix:
 Charge =  0 Multiplicity = 2

                         Standard orientation:
 ---------------------------------------------------------------------
 Center     Atomic      Atomic             Coordinates (Angstroms)
 Number     Number       Type             X           Y           Z
 ---------------------------------------------------------------------
      1          6           0        1.352211   -1.375670   -1.140773
      2          1           0        1.717446   -2.251231   -1.626714
      3          6           0        0.965167   -0.427839   -0.475320
      4          6           0        0.412897    0.924248   -0.202898
      5          8           0        1.027871    1.903218   -0.499814
      6          8           0       -0.772692    0.978846    0.390509
      7          6           0       -1.520031   -0.220067    0.674712
      8          6           0       -2.364898   -0.618329   -0.519033
      9          1           0       -0.839066   -1.011736    0.988483
     10          1           0       -2.141365    0.054446    1.525667
     11          1           0       -3.017829    0.203963   -0.814471
     12          1           0       -1.737836   -0.891360   -1.370096
     13          1           0       -2.983561   -1.480253   -0.260831
     14          8           0        1.437165   -0.836824    1.386761
     15          1           0        2.391384   -0.679809    1.318187
 ---------------------------------------------------------------------

 SCF Done:  E(UHF) =  -417.968497655     A.U. after   35 cycles
 E2 =    -0.1258743452D+01 EUMP2 =    -0.41922724110656D+03
 CCSD(T)= -0.41934689660D+03

 The electronic state is 2-A.
 Alpha  occ. eigenvalues --  -20.63075 -20.60716 -20.54987 -11.41331 -11.29908
 Alpha  occ. eigenvalues --  -11.28221 -11.27581 -11.23179  -1.47407  -1.38930
 Alpha  occ. eigenvalues --   -1.37609  -1.08405  -1.04782  -0.91499  -0.87591
 Alpha  occ. eigenvalues --   -0.75951  -0.73197  -0.70003  -0.68630  -0.66592
 Alpha  occ. eigenvalues --   -0.64904  -0.62675  -0.57876  -0.56365  -0.54485
 Alpha  occ. eigenvalues --   -0.54133  -0.50586  -0.47198  -0.45296  -0.43930
 Alpha  occ. eigenvalues --   -0.42815
 Alpha virt. eigenvalues --    0.03209   0.04573   0.05267   0.06528   0.06977
 Alpha virt. eigenvalues --    0.08547   0.09163   0.10841   0.11042   0.11772
 Alpha virt. eigenvalues --    0.13160   0.13968   0.14575   0.14775   0.16256

  Beta  occ. eigenvalues --  -20.60655 -20.59399 -20.55520 -11.40928 -11.29924
  Beta  occ. eigenvalues --  -11.29576 -11.25875 -11.23177  -1.47532  -1.38398
  Beta  occ. eigenvalues --   -1.26106  -1.07371  -1.04771  -0.90661  -0.86577
  Beta  occ. eigenvalues --   -0.75305  -0.72383  -0.69681  -0.67309  -0.64562
  Beta  occ. eigenvalues --   -0.62800  -0.58304  -0.56222  -0.54554  -0.51173
  Beta  occ. eigenvalues --   -0.50716  -0.48671  -0.46607  -0.45095  -0.42923
  Beta virt. eigenvalues --    0.03297   0.03857   0.04572   0.06526   0.06698
  Beta virt. eigenvalues --    0.07621   0.08477   0.09976   0.11158   0.11609
  Beta virt. eigenvalues --    0.11772   0.13627   0.14374   0.14916   0.15337

 Mulliken charges and spin densities:
               1          2
     1  C   -0.521422   1.165850
     2  H    0.257568  -0.084167
     3  C    0.385543  -0.977023
     4  C    0.092981   0.192531
     5  O   -0.326771  -0.110683
     6  O   -0.105647  -0.000602
     7  C   -0.258279  -0.005103
     8  C   -0.392600  -0.004100
     9  H    0.182781   0.004658
    10  H    0.182248  -0.001762
    11  H    0.169314   0.000558
    12  H    0.122594   0.002869
    13  H    0.129492  -0.000748
    14  O   -0.171607   0.851120
    15  H    0.253806  -0.033398
 Sum of Mulliken charges =  -0.00000   1.00000

 Dipole moment (field-independent basis, Debye):
    X=             -0.3558    Y=             -4.6682    Z=             -0.2284  Tot=              4.6873
 Quadrupole moment (field-independent basis, Debye-Ang):
   XX=            -39.2586   YY=            -53.0596   ZZ=            -46.4009
   XY=             -4.8885   XZ=              0.3981   YZ=              4.5124

 603\PMP3-0=-419.2731803\MP4SDQ=-419.2848156\CCSD=-419.2918827\CCSD(T)=
 Normal termination of Gaussian 16 at Mon May 12 16:37:53 2025.
