 Gaussian 16, Revision A.03,
 Gaussian 16:  ES64L-G16RevA.03 25-Dec-2016

 --------------------------
 # ccsd(t)/6-311++g(d,p) sp
 --------------------------

 -------------------
 Title Card Required
 -------------------
 Symbolic Z-matrix:
 Charge =  0 Multiplicity = 2

                         Standard orientation:
 ---------------------------------------------------------------------
 Center     Atomic      Atomic             Coordinates (Angstroms)
 Number     Number       Type             X           Y           Z
 ---------------------------------------------------------------------
      1          6           0        1.352090   -1.378260   -1.136570
      2          1           0        1.715964   -2.254742   -1.622123
      3          6           0        0.972047   -0.434392   -0.453052
      4          6           0        0.414138    0.923145   -0.203737
      5          8           0        1.029646    1.900350   -0.504652
      6          8           0       -0.772824    0.980471    0.386254
      7          6           0       -1.521225   -0.217197    0.673469
      8          6           0       -2.364462   -0.618353   -0.520423
      9          1           0       -0.841423   -1.008232    0.991336
     10          1           0       -2.143653    0.060418    1.522592
     11          1           0       -3.016377    0.203527   -0.819230
     12          1           0       -1.736201   -0.894054   -1.369829
     13          1           0       -2.984035   -1.479204   -0.260886
     14          8           0        1.431193   -0.830946    1.378423
     15          1           0        2.386069   -0.676373    1.319827
 ---------------------------------------------------------------------

 SCF Done:  E(UHF) =  -417.967660348     A.U. after   34 cycles
 E2 =    -0.1258870186D+01 EUMP2 =    -0.41922653053494D+03
 CCSD(T)= -0.41934748581D+03

 The electronic state is 2-A.
 Alpha  occ. eigenvalues --  -20.62840 -20.60723 -20.55006 -11.41319 -11.29917
 Alpha  occ. eigenvalues --  -11.28395 -11.27907 -11.23204  -1.47423  -1.38690
 Alpha  occ. eigenvalues --   -1.37627  -1.08515  -1.04800  -0.91507  -0.87626
 Alpha  occ. eigenvalues --   -0.76015  -0.73183  -0.69996  -0.68631  -0.66392
 Alpha  occ. eigenvalues --   -0.64698  -0.62668  -0.57852  -0.56262  -0.54490
 Alpha  occ. eigenvalues --   -0.54042  -0.50595  -0.47244  -0.45270  -0.44042
 Alpha  occ. eigenvalues --   -0.42825
 Alpha virt. eigenvalues --    0.03203   0.04573   0.05277   0.06526   0.06968
 Alpha virt. eigenvalues --    0.08556   0.09164   0.10967   0.11025   0.11770
 Alpha virt. eigenvalues --    0.13158   0.13966   0.14534   0.14754   0.16256

  Beta  occ. eigenvalues --  -20.60662 -20.59274 -20.55534 -11.40910 -11.30014
  Beta  occ. eigenvalues --  -11.29934 -11.25902 -11.23202  -1.47544  -1.38409
  Beta  occ. eigenvalues --   -1.26424  -1.07318  -1.04787  -0.90621  -0.86506
  Beta  occ. eigenvalues --   -0.75308  -0.72339  -0.69719  -0.67383  -0.64566
  Beta  occ. eigenvalues --   -0.62797  -0.58284  -0.56289  -0.54561  -0.51103
  Beta  occ. eigenvalues --   -0.50726  -0.48750  -0.46639  -0.45356  -0.42948
  Beta virt. eigenvalues --    0.03294   0.03788   0.04572   0.06513   0.06672
  Beta virt. eigenvalues --    0.07557   0.08469   0.09977   0.11141   0.11641
  Beta virt. eigenvalues --    0.11878   0.13582   0.14349   0.14927   0.15365

 Mulliken charges and spin densities:
               1          2
     1  C   -0.406041   1.238403
     2  H    0.257888  -0.088989
     3  C    0.300881  -1.015994
     4  C    0.064379   0.190959
     5  O   -0.327395  -0.109349
     6  O   -0.105547  -0.000599
     7  C   -0.260399  -0.005490
     8  C   -0.390426  -0.004035
     9  H    0.184482   0.004900
    10  H    0.182192  -0.001750
    11  H    0.169466   0.000581
    12  H    0.121436   0.002991
    13  H    0.129782  -0.000785
    14  O   -0.176014   0.821300
    15  H    0.255319  -0.032143
 Sum of Mulliken charges =  -0.00000   1.00000

 Dipole moment (field-independent basis, Debye):
    X=             -0.3819    Y=             -4.6637    Z=             -0.2906  Tot=              4.6883
 Quadrupole moment (field-independent basis, Debye-Ang):
   XX=            -39.3204   YY=            -53.0445   ZZ=            -46.4808
   XY=             -4.8606   XZ=              0.3085   YZ=              4.5857

 19\PMP3-0=-419.2739461\MP4SDQ=-419.2845562\CCSD=-419.2922418\CCSD(T)=-
 Normal termination of Gaussian 16 at Mon May 12 03:12:03 2025.
