 Gaussian 16, Revision A.03,
 Gaussian 16:  ES64L-G16RevA.03 25-Dec-2016

 --------------------------
 # ccsd(t)/6-311++g(d,p) sp
 --------------------------

 -------------------
 Title Card Required
 -------------------
 Symbolic Z-matrix:
 Charge =  0 Multiplicity = 2

                         Standard orientation:
 ---------------------------------------------------------------------
 Center     Atomic      Atomic             Coordinates (Angstroms)
 Number     Number       Type             X           Y           Z
 ---------------------------------------------------------------------
      1          6           0        1.352153   -1.369777   -1.151003
      2          1           0        1.720876   -2.244207   -1.635767
      3          6           0        0.951140   -0.414334   -0.519480
      4          6           0        0.410018    0.926613   -0.201765
      5          8           0        1.024097    1.909400   -0.489307
      6          8           0       -0.772325    0.975310    0.399632
      7          6           0       -1.517394   -0.226274    0.677291
      8          6           0       -2.365852   -0.618221   -0.516049
      9          1           0       -0.834017   -1.019366    0.982208
     10          1           0       -2.136246    0.041351    1.532293
     11          1           0       -3.020966    0.205016   -0.803968
     12          1           0       -1.741456   -0.885244   -1.370786
     13          1           0       -2.982562   -1.482467   -0.260871
     14          8           0        1.449726   -0.849290    1.403292
     15          1           0        2.401999   -0.686481    1.313991
 ---------------------------------------------------------------------

 SCF Done:  E(UHF) =  -417.970879409     A.U. after   36 cycles
 E2 =    -0.1259314251D+01 EUMP2 =    -0.41923019366024D+03
 CCSD(T)= -0.41934665359D+03

 The electronic state is 2-A.
 Alpha  occ. eigenvalues --  -20.63458 -20.60712 -20.54976 -11.41357 -11.29895
 Alpha  occ. eigenvalues --  -11.27958 -11.27099 -11.23138  -1.47385  -1.39297
 Alpha  occ. eigenvalues --   -1.37596  -1.08223  -1.04753  -0.91498  -0.87539
 Alpha  occ. eigenvalues --   -0.75849  -0.73225  -0.70002  -0.68626  -0.67001
 Alpha  occ. eigenvalues --   -0.65164  -0.62696  -0.57943  -0.56545  -0.54487
 Alpha  occ. eigenvalues --   -0.54262  -0.50578  -0.47158  -0.45378  -0.43745
 Alpha  occ. eigenvalues --   -0.42765
 Alpha virt. eigenvalues --    0.03217   0.04571   0.05253   0.06534   0.06991
 Alpha virt. eigenvalues --    0.08521   0.09158   0.10597   0.11069   0.11770
 Alpha virt. eigenvalues --    0.13166   0.13959   0.14653   0.14814   0.16247

  Beta  occ. eigenvalues --  -20.60653 -20.59618 -20.55503 -11.40977 -11.29911
  Beta  occ. eigenvalues --  -11.28867 -11.25886 -11.23136  -1.47512  -1.38374
  Beta  occ. eigenvalues --   -1.25588  -1.07445  -1.04746  -0.90753  -0.86714
  Beta  occ. eigenvalues --   -0.75312  -0.72482  -0.69616  -0.67166  -0.64564
  Beta  occ. eigenvalues --   -0.62815  -0.58344  -0.56097  -0.54550  -0.51304
  Beta  occ. eigenvalues --   -0.50703  -0.48545  -0.46567  -0.44628  -0.42881
  Beta virt. eigenvalues --    0.03298   0.03985   0.04569   0.06546   0.06746
  Beta virt. eigenvalues --    0.07749   0.08484   0.09955   0.11165   0.11415
  Beta virt. eigenvalues --    0.11703   0.13702   0.14389   0.14897   0.15298

 Mulliken charges and spin densities:
               1          2
     1  C   -0.801249   1.016373
     2  H    0.255987  -0.073901
     3  C    0.600652  -0.884957
     4  C    0.159934   0.194166
     5  O   -0.325730  -0.109788
     6  O   -0.106138  -0.000579
     7  C   -0.254422  -0.004401
     8  C   -0.397395  -0.003931
     9  H    0.179914   0.004107
    10  H    0.182247  -0.001774
    11  H    0.168950   0.000502
    12  H    0.124608   0.002512
    13  H    0.129096  -0.000661
    14  O   -0.167885   0.897650
    15  H    0.251430  -0.035318
 Sum of Mulliken charges =  -0.00000   1.00000

 Dipole moment (field-independent basis, Debye):
    X=             -0.3102    Y=             -4.6741    Z=             -0.1376  Tot=              4.6864
 Quadrupole moment (field-independent basis, Debye-Ang):
   XX=            -39.1395   YY=            -53.0934   ZZ=            -46.3022
   XY=             -4.9359   XZ=              0.5256   YZ=              4.3873

 7893\PMP3-0=-419.2726961\MP4SDQ=-419.286569\CCSD=-419.2921419\CCSD(T)=
 Normal termination of Gaussian 16 at Mon May 12 06:45:29 2025.
