 Gaussian 16, Revision A.03,
 Gaussian 16:  ES64L-G16RevA.03 25-Dec-2016

 --------------------------
 # freq 6-311++g(d,p) m062x
 --------------------------

 -------------------
 Title Card Required
 -------------------
 Symbolic Z-matrix:
 Charge =  0 Multiplicity = 2

                         Standard orientation:
 ---------------------------------------------------------------------
 Center     Atomic      Atomic             Coordinates (Angstroms)
 Number     Number       Type             X           Y           Z
 ---------------------------------------------------------------------
      1          6           0        1.349488   -1.385836   -1.123563
      2          1           0        1.716143   -2.275050   -1.585402
      3          6           0        1.005142   -0.464522   -0.342250
      4          6           0        0.419845    0.916810   -0.208976
      5          8           0        1.037129    1.888252   -0.524219
      6          8           0       -0.773436    0.987288    0.368509
      7          6           0       -1.526585   -0.204780    0.667576
      8          6           0       -2.362557   -0.618289   -0.526931
      9          1           0       -0.853674   -0.994215    1.003038
     10          1           0       -2.154020    0.085634    1.508679
     11          1           0       -3.009890    0.201812   -0.840169
     12          1           0       -1.728662   -0.905307   -1.368820
     13          1           0       -2.986173   -1.474550   -0.262014
     14          8           0        1.404344   -0.805328    1.333729
     15          1           0        2.359979   -0.660319    1.325405
 ---------------------------------------------------------------------

 SCF Done:  E(UM062X) =  -420.208375761     A.U. after   19 cycles

 The electronic state is 2-A.
 Alpha  occ. eigenvalues --  -19.68040 -19.65221 -19.62880 -10.70611 -10.63760
 Alpha  occ. eigenvalues --  -10.60804 -10.60564 -10.54452  -1.25253  -1.16660
 Alpha  occ. eigenvalues --   -1.12062  -0.91456  -0.88411  -0.77382  -0.74297
 Alpha  occ. eigenvalues --   -0.64969  -0.62347  -0.58703  -0.58182  -0.54630
 Alpha  occ. eigenvalues --   -0.52913  -0.50598  -0.48590  -0.46764  -0.45908
 Alpha  occ. eigenvalues --   -0.42137  -0.40989  -0.40181  -0.37956  -0.36770
 Alpha  occ. eigenvalues --   -0.32224
 Alpha virt. eigenvalues --   -0.00991  -0.00437   0.00540   0.00777   0.01872
 Alpha virt. eigenvalues --    0.02516   0.03144   0.04476   0.05309   0.05972
 Alpha virt. eigenvalues --    0.06968   0.07817   0.08389   0.09018   0.10379

  Beta  occ. eigenvalues --  -19.68030 -19.64511 -19.62894 -10.70563 -10.63911
  Beta  occ. eigenvalues --  -10.60807 -10.59994 -10.54451  -1.25215  -1.16671
  Beta  occ. eigenvalues --   -1.09573  -0.89386  -0.88360  -0.76886  -0.73464
  Beta  occ. eigenvalues --   -0.64373  -0.61722  -0.58427  -0.57725  -0.53611
  Beta  occ. eigenvalues --   -0.52820  -0.49363  -0.47821  -0.45874  -0.43644
  Beta  occ. eigenvalues --   -0.42065  -0.39540  -0.39157  -0.37968  -0.35616
  Beta virt. eigenvalues --   -0.09924  -0.00948  -0.00071   0.00725   0.01505
  Beta virt. eigenvalues --    0.02000   0.02891   0.03275   0.04364   0.05460
  Beta virt. eigenvalues --    0.06014   0.07019   0.07741   0.08221   0.08916

 Mulliken charges and spin densities:
               1          2
     1  C    0.054032   0.887186
     2  H    0.241538  -0.031032
     3  C   -0.141047  -0.255067
     4  C   -0.010837   0.051387
     5  O   -0.243122  -0.004603
     6  O   -0.012648   0.003137
     7  C   -0.358432  -0.001914
     8  C   -0.394960  -0.000202
     9  H    0.196661   0.005898
    10  H    0.213577  -0.000728
    11  H    0.187119  -0.000153
    12  H    0.127356   0.004165
    13  H    0.160784  -0.000931
    14  O   -0.279896   0.345286
    15  H    0.259875  -0.002430
 Sum of Mulliken charges =  -0.00000   1.00000

 Dipole moment (field-independent basis, Debye):
    X=             -0.6794    Y=             -4.1290    Z=             -1.0801  Tot=              4.3216
 Quadrupole moment (field-independent basis, Debye-Ang):
   XX=            -39.8091   YY=            -52.0559   ZZ=            -47.6407
   XY=             -4.2012   XZ=             -1.0522   YZ=              5.2057

  Exact polarizability:  71.967   0.084  70.996  -2.966   4.126  71.690
 Approx polarizability:  76.247   1.169  86.287  -6.025   5.881  89.447

 ******    1 imaginary frequencies (negative Signs) ******

                      1                      2                      3
                      A                      A                      A
 Frequencies --   -581.9260                87.2192                99.1461
 Red. masses --      9.1450                 3.6551                 3.6637
 Frc consts  --      1.8246                 0.0164                 0.0212
 IR Inten    --     38.0450                 2.3230                 1.5804

                      4                      5                      6
                      A                      A                      A
 Frequencies --    125.5983               158.9844               211.0528
 Red. masses --      2.9482                 1.3006                 1.6946
 Frc consts  --      0.0274                 0.0194                 0.0445
 IR Inten    --      6.9914                77.3934                 4.9695

                      7                      8                      9
                      A                      A                      A
 Frequencies --    234.0663               250.1135               261.5852
 Red. masses --      2.9566                 2.4268                 1.2626
 Frc consts  --      0.0954                 0.0894                 0.0509
 IR Inten    --      7.2075                 5.0919                21.9456

                     10                     11                     12
                      A                      A                      A
 Frequencies --    356.9541               393.7557               425.3782
 Red. masses --      4.6069                 3.2085                 3.6825
 Frc consts  --      0.3458                 0.2931                 0.3926
 IR Inten    --      5.0453                 3.2264                 9.3370

                     13                     14                     15
                      A                      A                      A
 Frequencies --    568.7980               639.5843               708.4538
 Red. masses --      5.3856                 4.1832                 1.3679
 Frc consts  --      1.0266                 1.0082                 0.4045
 IR Inten    --     20.6160                 6.7638                37.8527

                     16                     17                     18
                      A                      A                      A
 Frequencies --    749.1930               761.8107               807.1108
 Red. masses --      5.8371                 9.0865                 1.1302
 Frc consts  --      1.9304                 3.1070                 0.4338
 IR Inten    --      0.8845                16.5695                 2.7728

                     19                     20                     21
                      A                      A                      A
 Frequencies --    949.1653              1022.6513              1100.1199
 Red. masses --      2.2659                 1.1699                 3.6715
 Frc consts  --      1.2028                 0.7209                 2.6181
 IR Inten    --     13.6181                57.3350                49.0745

                     22                     23                     24
                      A                      A                      A
 Frequencies --   1127.9666              1181.2098              1265.2209
 Red. masses --      2.3509                 1.9254                 2.6938
 Frc consts  --      1.7623                 1.5828                 2.5407
 IR Inten    --     38.8498                54.2052               324.4604

                     25                     26                     27
                      A                      A                      A
 Frequencies --   1355.1583              1404.7727              1432.1816
 Red. masses --      1.3121                 1.2709                 1.3701
 Frc consts  --      1.4197                 1.4777                 1.6558
 IR Inten    --    115.4212                26.5192                16.2503

                     28                     29                     30
                      A                      A                      A
 Frequencies --   1492.2984              1501.6235              1540.4823
 Red. masses --      1.0400                 1.0473                 1.0937
 Frc consts  --      1.3645                 1.3914                 1.5291
 IR Inten    --      4.7873                 1.5537                 9.7039

                     31                     32                     33
                      A                      A                      A
 Frequencies --   1851.6459              1880.3979              3068.8310
 Red. masses --      7.8575                10.7818                 1.0356
 Frc consts  --     15.8726                22.4616                 5.7464
 IR Inten    --    157.8253               360.7796                 8.1227

                     34                     35                     36
                      A                      A                      A
 Frequencies --   3115.8250              3141.3423              3151.7509
 Red. masses --      1.0612                 1.1021                 1.1022
 Frc consts  --      6.0699                 6.4079                 6.4510
 IR Inten    --      8.1989                11.2343                11.4589

                     37                     38                     39
                      A                      A                      A
 Frequencies --   3170.9352              3443.2973              3851.2231
 Red. masses --      1.1082                 1.1261                 1.0677
 Frc consts  --      6.5654                 7.8665                 9.3303
 IR Inten    --     13.9505                77.2992                70.7260

 - Thermochemistry -
 -------------------
 Temperature   298.150 Kelvin.  Pressure   1.00000 Atm.
 Atom     1 has atomic number  6 and mass  12.00000

 Molecular mass:   115.03952 amu.
 Principal axes and moments of inertia in atomic units:
                           1         2         3
     Eigenvalues --   729.354011053.425601276.70980
           X            0.99987   0.00875   0.01322
           Y           -0.00944   0.99855   0.05297
           Z           -0.01273  -0.05309   0.99851
 This molecule is an asymmetric top.
 Rotational symmetry number  1.
 Warning -- assumption of classical behavior for rotation
           may cause significant error
 Rotational temperatures (Kelvin)      0.11875     0.08222     0.06784
 Rotational constants (GHZ):           2.47444     1.71321     1.41359
    1 imaginary frequencies ignored.
 Zero-point vibrational energy     292408.6 (Joules/Mol)
                                   69.88734 (Kcal/Mol)
 Warning -- explicit consideration of  12 degrees of freedom as
           vibrations may cause significant error
 Vibrational temperatures:    125.49   142.65   180.71   228.74   303.66
          (Kelvin)            336.77   359.86   376.36   513.58   566.53
                              612.02   818.37   920.22  1019.31  1077.92
                             1096.08  1161.25  1365.64  1471.37  1582.83
                             1622.89  1699.50  1820.37  1949.77  2021.15
                             2060.59  2147.08  2160.50  2216.41  2664.11
                             2705.47  4415.36  4482.98  4519.69  4534.67
                             4562.27  4954.14  5541.05

 Zero-point correction=                           0.111373 (Hartree/Particle)
 Thermal correction to Energy=                    0.120863
 Thermal correction to Enthalpy=                  0.121807
 Thermal correction to Gibbs Free Energy=         0.076534
 Sum of electronic and zero-point Energies=           -420.097003
 Sum of electronic and thermal Energies=              -420.087513
 Sum of electronic and thermal Enthalpies=            -420.086569
 Sum of electronic and thermal Free Energies=         -420.131841

                     E (Thermal)             CV                S
                      KCal/Mol        Cal/Mol-Kelvin    Cal/Mol-Kelvin
 Total                   75.843             32.510             95.285
 Electronic               0.000              0.000              1.377
 Translational            0.889              2.981             40.136
 Rotational               0.889              2.981             28.374
 Vibrational             74.065             26.548             25.397
 Vibration     1          0.601              1.958              3.721
 Vibration     2          0.604              1.950              3.471
 Vibration     3          0.611              1.927              3.012
 Vibration     4          0.621              1.893              2.562
 Vibration     5          0.643              1.824              2.035
 Vibration     6          0.654              1.789              1.848
 Vibration     7          0.663              1.763              1.730
 Vibration     8          0.669              1.743              1.651
 Vibration     9          0.732              1.561              1.135
 Vibration    10          0.761              1.484              0.986
 Vibration    11          0.787              1.415              0.874
 Vibration    12          0.925              1.099              0.507

 Normal termination of Gaussian 16 at Fri Mar 28 14:31:50 2025.
