 Gaussian 16, Revision A.03,
 Gaussian 16:  ES64L-G16RevA.03 25-Dec-2016

 --------------------------
 # freq 6-311++g(d,p) m062x
 --------------------------

 -------------------
 Title Card Required
 -------------------
 Symbolic Z-matrix:
 Charge =  0 Multiplicity = 2

                         Standard orientation:
 ---------------------------------------------------------------------
 Center     Atomic      Atomic             Coordinates (Angstroms)
 Number     Number       Type             X           Y           Z
 ---------------------------------------------------------------------
      1          6           0        1.351885   -1.380667   -1.132956
      2          1           0        1.715094   -2.258671   -1.616457
      3          6           0        0.978821   -0.440767   -0.430665
      4          6           0        0.415275    0.922013   -0.204857
      5          8           0        1.031337    1.897652   -0.509233
      6          8           0       -0.772943    0.982030    0.382206
      7          6           0       -1.522377   -0.214420    0.672247
      8          6           0       -2.364036   -0.618419   -0.521759
      9          1           0       -0.843827   -1.004883    0.994133
     10          1           0       -2.145895    0.066205    1.519559
     11          1           0       -3.014970    0.203010   -0.823901
     12          1           0       -1.734597   -0.896792   -1.369520
     13          1           0       -2.984475   -1.478234   -0.260880
     14          8           0        1.425433   -0.825235    1.370019
     15          1           0        2.380645   -0.672658    1.321077
 ---------------------------------------------------------------------

 SCF Done:  E(UM062X) =  -420.198724797     A.U. after   22 cycles

 The electronic state is 2-A.
 Alpha  occ. eigenvalues --  -19.68070 -19.65553 -19.62848 -10.70846 -10.62167
 Alpha  occ. eigenvalues --  -10.60788 -10.60338 -10.54424  -1.25295  -1.16699
 Alpha  occ. eigenvalues --   -1.11854  -0.91546  -0.88405  -0.77479  -0.74285
 Alpha  occ. eigenvalues --   -0.64973  -0.62600  -0.58410  -0.57901  -0.54287
 Alpha  occ. eigenvalues --   -0.52931  -0.50708  -0.48641  -0.46738  -0.45952
 Alpha  occ. eigenvalues --   -0.42142  -0.41029  -0.40371  -0.37959  -0.36917
 Alpha  occ. eigenvalues --   -0.33420
 Alpha virt. eigenvalues --   -0.01247  -0.00699   0.00501   0.00926   0.01751
 Alpha virt. eigenvalues --    0.02390   0.03269   0.04440   0.05368   0.05978
 Alpha virt. eigenvalues --    0.06974   0.07810   0.08285   0.09002   0.10490

  Beta  occ. eigenvalues --  -19.68063 -19.64450 -19.62873 -10.70809 -10.62281
  Beta  occ. eigenvalues --  -10.60791 -10.59938 -10.54423  -1.25275  -1.16734
  Beta  occ. eigenvalues --   -1.07827  -0.89910  -0.88378  -0.77111  -0.73762
  Beta  occ. eigenvalues --   -0.64478  -0.62130  -0.58349  -0.57342  -0.53064
  Beta  occ. eigenvalues --   -0.52360  -0.49412  -0.47535  -0.45902  -0.42171
  Beta  occ. eigenvalues --   -0.41679  -0.39708  -0.38608  -0.37915  -0.35946
  Beta virt. eigenvalues --   -0.10841  -0.00925  -0.00099   0.00675   0.01341
  Beta virt. eigenvalues --    0.01951   0.02678   0.03352   0.04330   0.05512
  Beta virt. eigenvalues --    0.06045   0.07062   0.07798   0.08186   0.08953

 Mulliken charges and spin densities:
               1          2
     1  C   -0.058392   0.642396
     2  H    0.247502  -0.027085
     3  C   -0.052227  -0.215077
     4  C    0.002768   0.046133
     5  O   -0.240035  -0.011264
     6  O   -0.010223   0.002300
     7  C   -0.357088  -0.002160
     8  C   -0.396465  -0.002011
     9  H    0.195264   0.006138
    10  H    0.213483  -0.001076
    11  H    0.186852  -0.000076
    12  H    0.129077   0.003955
    13  H    0.160183  -0.000789
    14  O   -0.267493   0.569643
    15  H    0.246796  -0.011026
 Sum of Mulliken charges =  -0.00000   1.00000

 Dipole moment (field-independent basis, Debye):
    X=             -0.6791    Y=             -4.1454    Z=             -1.1554  Tot=              4.3567
 Quadrupole moment (field-independent basis, Debye-Ang):
   XX=            -39.7387   YY=            -51.9673   ZZ=            -47.2754
   XY=             -4.2582   XZ=             -1.2502   YZ=              5.3416

  Exact polarizability:  72.222  -0.211  71.869  -1.935   4.325  76.762
 Approx polarizability:  76.383   0.256  88.972  -6.206   7.258  92.461

 ******    1 imaginary frequencies (negative Signs) ******

                      1                      2                      3
                      A                      A                      A
 Frequencies --   -680.9394                86.2191               101.7547
 Red. masses --     12.5930                 3.5529                 4.0665
 Frc consts  --      3.4403                 0.0156                 0.0248
 IR Inten    --     15.3259                 1.8345                 0.6318

                      4                      5                      6
                      A                      A                      A
 Frequencies --    115.1933               179.5612               196.8546
 Red. masses --      4.2629                 2.0602                 3.3238
 Frc consts  --      0.0333                 0.0391                 0.0759
 IR Inten    --      4.2831                54.3154                 6.3774

                      7                      8                      9
                      A                      A                      A
 Frequencies --    208.8357               237.8265               274.6788
 Red. masses --      1.4873                 1.4551                 2.9134
 Frc consts  --      0.0382                 0.0485                 0.1295
 IR Inten    --     24.8250                 1.8311                 7.8755

                     10                     11                     12
                      A                      A                      A
 Frequencies --    377.1362               413.9999               545.0675
 Red. masses --      2.9809                 3.5717                 1.7446
 Frc consts  --      0.2498                 0.3607                 0.3054
 IR Inten    --      1.7515                 5.0864                36.8607

                     13                     14                     15
                      A                      A                      A
 Frequencies --    565.6802               627.8058               719.0017
 Red. masses --      2.7979                 4.5370                 1.3444
 Frc consts  --      0.5275                 1.0536                 0.4095
 IR Inten    --     16.1884                 7.1054                35.9484

                     16                     17                     18
                      A                      A                      A
 Frequencies --    746.4587               751.6080               807.2729
 Red. masses --      6.6340                 6.9472                 1.1290
 Frc consts  --      2.1779                 2.3123                 0.4335
 IR Inten    --     25.0774                 6.2462                 3.0482

                     19                     20                     21
                      A                      A                      A
 Frequencies --    894.4072               949.8197              1100.5465
 Red. masses --      1.1609                 2.2642                 3.6212
 Frc consts  --      0.5472                 1.2035                 2.5842
 IR Inten    --     74.2621                14.9204                49.1742

                     22                     23                     24
                      A                      A                      A
 Frequencies --   1128.9049              1181.6007              1266.7952
 Red. masses --      2.4024                 1.9173                 2.7215
 Frc consts  --      1.8039                 1.5772                 2.5732
 IR Inten    --     43.3344                51.9354               333.0238

                     25                     26                     27
                      A                      A                      A
 Frequencies --   1354.2853              1404.9771              1432.4669
 Red. masses --      1.3024                 1.2733                 1.3740
 Frc consts  --      1.4074                 1.4809                 1.6612
 IR Inten    --    111.0883                29.4119                17.1769

                     28                     29                     30
                      A                      A                      A
 Frequencies --   1492.3168              1501.9733              1537.9875
 Red. masses --      1.0402                 1.0471                 1.0948
 Frc consts  --      1.3649                 1.3918                 1.5258
 IR Inten    --      4.7420                 1.7488                 9.6239

                     31                     32                     33
                      A                      A                      A
 Frequencies --   1870.6148              1990.8602              3069.9845
 Red. masses --     12.7735                 6.7193                 1.0355
 Frc consts  --     26.3347                15.6911                 5.7500
 IR Inten    --    516.1138                56.5505                 8.1705

                     34                     35                     36
                      A                      A                      A
 Frequencies --   3114.9200              3142.8120              3151.6295
 Red. masses --      1.0609                 1.1026                 1.1022
 Frc consts  --      6.0651                 6.4167                 6.4501
 IR Inten    --      8.8159                10.0327                11.3430

                     37                     38                     39
                      A                      A                      A
 Frequencies --   3171.0644              3460.4241              3830.3859
 Red. masses --      1.1082                 1.1366                 1.0678
 Frc consts  --      6.5659                 8.0192                 9.2301
 IR Inten    --     13.7339                73.7997                66.7192

 - Thermochemistry -
 -------------------
 Temperature   298.150 Kelvin.  Pressure   1.00000 Atm.
 Atom     1 has atomic number  6 and mass  12.00000

 Molecular mass:   115.03952 amu.
 Principal axes and moments of inertia in atomic units:
                           1         2         3
     Eigenvalues --   740.929241063.414431279.53016
           X            0.99987   0.00905   0.01301
           Y           -0.00975   0.99846   0.05459
           Z           -0.01250  -0.05471   0.99842
 This molecule is an asymmetric top.
 Rotational symmetry number  1.
 Warning -- assumption of classical behavior for rotation
           may cause significant error
 Rotational temperatures (Kelvin)      0.11690     0.08145     0.06769
 Rotational constants (GHZ):           2.43578     1.69712     1.41047
    1 imaginary frequencies ignored.
 Zero-point vibrational energy     293107.4 (Joules/Mol)
                                   70.05435 (Kcal/Mol)
 Warning -- explicit consideration of  12 degrees of freedom as
           vibrations may cause significant error
 Vibrational temperatures:    124.05   146.40   165.74   258.35   283.23
          (Kelvin)            300.47   342.18   395.20   542.61   595.65
                              784.23   813.89   903.27  1034.48  1073.99
                             1081.40  1161.49  1286.85  1366.58  1583.44
                             1624.24  1700.06  1822.64  1948.51  2021.45
                             2061.00  2147.11  2161.00  2212.82  2691.40
                             2864.40  4417.02  4481.68  4521.81  4534.49
                             4562.45  4978.78  5511.07

 Zero-point correction=                           0.111639 (Hartree/Particle)
 Thermal correction to Energy=                    0.121066
 Thermal correction to Enthalpy=                  0.122010
 Thermal correction to Gibbs Free Energy=         0.076795
 Sum of electronic and zero-point Energies=           -420.087086
 Sum of electronic and thermal Energies=              -420.077659
 Sum of electronic and thermal Enthalpies=            -420.076715
 Sum of electronic and thermal Free Energies=         -420.121930

                     E (Thermal)             CV                S
                      KCal/Mol        Cal/Mol-Kelvin    Cal/Mol-Kelvin
 Total                   75.970             32.376             95.163
 Electronic               0.000              0.000              1.377
 Translational            0.889              2.981             40.136
 Rotational               0.889              2.981             28.402
 Vibrational             74.192             26.415             25.249
 Vibration     1          0.601              1.959              3.744
 Vibration     2          0.604              1.948              3.420
 Vibration     3          0.608              1.937              3.179
 Vibration     4          0.629              1.867              2.333
 Vibration     5          0.636              1.844              2.162
 Vibration     6          0.642              1.827              2.054
 Vibration     7          0.656              1.783              1.819
 Vibration     8          0.677              1.720              1.567
 Vibration     9          0.748              1.519              1.051
 Vibration    10          0.778              1.440              0.913
 Vibration    11          0.900              1.150              0.554
 Vibration    12          0.922              1.106              0.513

 Normal termination of Gaussian 16 at Fri Mar 28 15:22:40 2025.
