 Gaussian 16, Revision A.03,
 Gaussian 16:  ES64L-G16RevA.03 25-Dec-2016

 --------------------------
 # freq 6-311++g(d,p) m062x
 --------------------------

 -------------------
 Title Card Required
 -------------------
 Symbolic Z-matrix:
 Charge =  0 Multiplicity = 2

                         Standard orientation:
 ---------------------------------------------------------------------
 Center     Atomic      Atomic             Coordinates (Angstroms)
 Number     Number       Type             X           Y           Z
 ---------------------------------------------------------------------
      1          6           0        1.349464   -1.353257   -1.185814
      2          1           0        1.733854   -2.229780   -1.653703
      3          6           0        0.913938   -0.379759   -0.626283
      4          6           0        0.399111    0.934604   -0.205247
      5          8           0        1.013752    1.927647   -0.458428
      6          8           0       -0.769859    0.964885    0.425675
      7          6           0       -1.508631   -0.244274    0.684426
      8          6           0       -2.369046   -0.617676   -0.506453
      9          1           0       -0.818550   -1.040999    0.964338
     10          1           0       -2.119072    0.003326    1.551481
     11          1           0       -3.030440    0.208134   -0.771910
     12          1           0       -1.753980   -0.867710   -1.372692
     13          1           0       -2.980049   -1.488347   -0.259353
     14          8           0        1.485148   -0.883150    1.443328
     15          1           0        2.426897   -0.697508    1.293477
 ---------------------------------------------------------------------

 SCF Done:  E(UM062X) =  -420.200098767     A.U. after   26 cycles

 The electronic state is 2-A.
 Alpha  occ. eigenvalues --  -19.68202 -19.67840 -19.62517 -10.70656 -10.60682
 Alpha  occ. eigenvalues --  -10.58863 -10.58551 -10.54209  -1.24987  -1.16391
 Alpha  occ. eigenvalues --   -1.14054  -0.90311  -0.88196  -0.77229  -0.73794
 Alpha  occ. eigenvalues --   -0.64256  -0.62178  -0.58221  -0.57342  -0.55601
 Alpha  occ. eigenvalues --   -0.52742  -0.51285  -0.48979  -0.46827  -0.45778
 Alpha  occ. eigenvalues --   -0.43264  -0.41971  -0.39756  -0.37951  -0.36523
 Alpha  occ. eigenvalues --   -0.36140
 Alpha virt. eigenvalues --   -0.01593  -0.00836   0.00533   0.00982   0.02011
 Alpha virt. eigenvalues --    0.02396   0.03605   0.04587   0.05530   0.06115
 Alpha virt. eigenvalues --    0.07105   0.07807   0.08588   0.09038   0.10619

  Beta  occ. eigenvalues --  -19.67839 -19.66656 -19.62535 -10.70643 -10.60683
  Beta  occ. eigenvalues --  -10.58842 -10.58444 -10.54209  -1.24985  -1.16422
  Beta  occ. eigenvalues --   -1.06904  -0.89702  -0.88186  -0.77120  -0.73637
  Beta  occ. eigenvalues --   -0.64121  -0.61906  -0.58070  -0.56776  -0.53301
  Beta  occ. eigenvalues --   -0.52596  -0.49392  -0.47024  -0.45748  -0.42017
  Beta  occ. eigenvalues --   -0.40364  -0.39635  -0.39068  -0.37513  -0.36147
  Beta virt. eigenvalues --   -0.09992  -0.01046  -0.00665   0.00600   0.01288
  Beta virt. eigenvalues --    0.02134   0.02543   0.03645   0.04579   0.05655
  Beta virt. eigenvalues --    0.06195   0.07215   0.07988   0.08559   0.09086

 Mulliken charges and spin densities:
               1          2
     1  C   -1.111986   0.163451
     2  H    0.227348  -0.010124
     3  C    0.831935  -0.064525
     4  C    0.166460   0.049626
     5  O   -0.237646  -0.008485
     6  O   -0.014502   0.000748
     7  C   -0.335051   0.000466
     8  C   -0.415563  -0.002596
     9  H    0.178941   0.003089
    10  H    0.211651  -0.001133
    11  H    0.184783  -0.000114
    12  H    0.136825   0.001451
    13  H    0.158115  -0.000219
    14  O   -0.228008   0.888615
    15  H    0.246699  -0.020250
 Sum of Mulliken charges =  -0.00000   1.00000

 Dipole moment (field-independent basis, Debye):
    X=             -0.4087    Y=             -4.1987    Z=             -0.5382  Tot=              4.2527
 Quadrupole moment (field-independent basis, Debye-Ang):
   XX=            -39.1005   YY=            -52.3818   ZZ=            -46.6857
   XY=             -4.4259   XZ=             -0.2762   YZ=              4.4818

  Exact polarizability:  72.150  -0.598  73.357  -3.537   4.740  70.027
 Approx polarizability:  76.610  -1.501  93.345  -8.384   8.376  79.593

                      1                      2                      3
                      A                      A                      A
 Frequencies --     57.4432                83.8009               102.4391
 Red. masses --      6.6250                 3.3782                 5.3357
 Frc consts  --      0.0129                 0.0140                 0.0330
 IR Inten    --      4.2042                 1.4710                 1.4305

                      4                      5                      6
                      A                      A                      A
 Frequencies --    113.2427               153.9944               178.6247
 Red. masses --      4.6073                 6.4954                 2.6060
 Frc consts  --      0.0348                 0.0908                 0.0490
 IR Inten    --      7.3655                 6.3061                21.4724

                      7                      8                      9
                      A                      A                      A
 Frequencies --    205.9402               228.6658               257.1991
 Red. masses --      1.7514                 1.2535                 1.9268
 Frc consts  --      0.0438                 0.0386                 0.0751
 IR Inten    --     30.4421                 1.4716                31.5234

                     10                     11                     12
                      A                      A                      A
 Frequencies --    357.2061               409.7716               557.8416
 Red. masses --      2.8884                 3.6382                 4.7085
 Frc consts  --      0.2171                 0.3599                 0.8633
 IR Inten    --      1.7364                 6.1995                15.0273

                     13                     14                     15
                      A                      A                      A
 Frequencies --    585.3621               633.7868               720.5940
 Red. masses --      1.1677                 3.9775                 1.3462
 Frc consts  --      0.2357                 0.9413                 0.4119
 IR Inten    --    107.2512                 5.0109                33.6544

                     16                     17                     18
                      A                      A                      A
 Frequencies --    750.0866               758.3694               760.0387
 Red. masses --      1.5011                 5.0274                 4.8846
 Frc consts  --      0.4976                 1.7036                 1.6625
 IR Inten    --     14.1042                 4.8705                60.2744

                     19                     20                     21
                      A                      A                      A
 Frequencies --    809.0134               951.8055              1105.6433
 Red. masses --      1.1581                 2.2605                 3.3332
 Frc consts  --      0.4466                 1.2066                 2.4007
 IR Inten    --      3.4574                12.0363                42.4261

                     22                     23                     24
                      A                      A                      A
 Frequencies --   1132.4583              1182.6470              1270.8006
 Red. masses --      2.6301                 1.8695                 2.7136
 Frc consts  --      1.9873                 1.5406                 2.5819
 IR Inten    --     52.8091                44.1497               345.4004

                     25                     26                     27
                      A                      A                      A
 Frequencies --   1354.6808              1405.9774              1432.9077
 Red. masses --      1.3010                 1.2788                 1.3775
 Frc consts  --      1.4067                 1.4894                 1.6664
 IR Inten    --    116.7683                32.0596                18.4157

                     28                     29                     30
                      A                      A                      A
 Frequencies --   1492.8991              1503.3096              1532.9783
 Red. masses --      1.0408                 1.0467                 1.0986
 Frc consts  --      1.3668                 1.3937                 1.5212
 IR Inten    --      4.0635                 1.6531                11.9835

                     31                     32                     33
                      A                      A                      A
 Frequencies --   1862.8076              2210.5084              3071.4323
 Red. masses --     12.9454                 5.8697                 1.0354
 Frc consts  --     26.4668                16.8987                 5.7548
 IR Inten    --    505.9282                55.9153                 8.6188

                     34                     35                     36
                      A                      A                      A
 Frequencies --   3112.3990              3145.3607              3150.3893
 Red. masses --      1.0606                 1.1034                 1.1019
 Frc consts  --      6.0530                 6.4319                 6.4433
 IR Inten    --     10.0915                 6.5160                12.2987

                     37                     38                     39
                      A                      A                      A
 Frequencies --   3170.2632              3483.0741              3798.6951
 Red. masses --      1.1080                 1.1639                 1.0673
 Frc consts  --      6.5613                 8.3196                 9.0745
 IR Inten    --     16.2430                66.3862                43.9702

 - Thermochemistry -
 -------------------
 Temperature   298.150 Kelvin.  Pressure   1.00000 Atm.
 Atom     1 has atomic number  6 and mass  12.00000

 Molecular mass:   115.03952 amu.
 Principal axes and moments of inertia in atomic units:
                           1         2         3
     Eigenvalues --   772.424421090.297491287.55094
           X            0.99988   0.00952   0.01230
           Y           -0.01022   0.99827   0.05789
           Z           -0.01172  -0.05801   0.99825
 This molecule is an asymmetric top.
 Rotational symmetry number  1.
 Warning -- assumption of classical behavior for rotation
           may cause significant error
 Rotational temperatures (Kelvin)      0.11213     0.07944     0.06727
 Rotational constants (GHZ):           2.33646     1.65527     1.40169
 Zero-point vibrational energy     293650.1 (Joules/Mol)
                                   70.18405 (Kcal/Mol)
 Warning -- explicit consideration of  13 degrees of freedom as
           vibrations may cause significant error
 Vibrational temperatures:     82.65   120.57   147.39   162.93   221.56
          (Kelvin)            257.00   296.30   329.00   370.05   513.94
                              589.57   802.61   842.21   911.88  1036.77
                             1079.21  1091.12  1093.53  1163.99  1369.44
                             1590.77  1629.35  1701.57  1828.40  1949.08
                             2022.89  2061.63  2147.95  2162.93  2205.61
                             2680.16  3180.43  4419.11  4478.05  4525.47
                             4532.71  4561.30  5011.37  5465.47

 Zero-point correction=                           0.111845 (Hartree/Particle)
 Thermal correction to Energy=                    0.122244
 Thermal correction to Enthalpy=                  0.123188
 Thermal correction to Gibbs Free Energy=         0.075370
 Sum of electronic and zero-point Energies=           -420.088253
 Sum of electronic and thermal Energies=              -420.077855
 Sum of electronic and thermal Enthalpies=            -420.076911
 Sum of electronic and thermal Free Energies=         -420.124729

                     E (Thermal)             CV                S
                      KCal/Mol        Cal/Mol-Kelvin    Cal/Mol-Kelvin
 Total                   76.709             34.594            100.642
 Electronic               0.000              0.000              1.377
 Translational            0.889              2.981             40.136
 Rotational               0.889              2.981             28.474
 Vibrational             74.932             28.632             30.655
 Vibration     1          0.596              1.975              4.543
 Vibration     2          0.601              1.960              3.800
 Vibration     3          0.605              1.947              3.407
 Vibration     4          0.607              1.938              3.213
 Vibration     5          0.620              1.898              2.622
 Vibration     6          0.629              1.869              2.343
 Vibration     7          0.640              1.831              2.079
 Vibration     8          0.651              1.797              1.889
 Vibration     9          0.667              1.751              1.681
 Vibration    10          0.732              1.560              1.134
 Vibration    11          0.774              1.449              0.927
 Vibration    12          0.913              1.123              0.528
 Vibration    13          0.942              1.063              0.476

 Normal termination of Gaussian 16 at Fri Mar 28 17:18:25 2025.
