 Gaussian 16, Revision A.03,
 Gaussian 16:  ES64L-G16RevA.03 25-Dec-2016

 --------------------------
 # freq 6-311++g(d,p) m062x
 --------------------------

 -------------------
 Title Card Required
 -------------------
 Symbolic Z-matrix:
 Charge =  0 Multiplicity = 2

                         Standard orientation:
 ---------------------------------------------------------------------
 Center     Atomic      Atomic             Coordinates (Angstroms)
 Number     Number       Type             X           Y           Z
 ---------------------------------------------------------------------
      1          6           0        1.351382   -1.360348   -1.170049
      2          1           0        1.728750   -2.235304   -1.646596
      3          6           0        0.929213   -0.393573   -0.584235
      4          6           0        0.404087    0.930957   -0.202790
      5          8           0        1.017858    1.919974   -0.471698
      6          8           0       -0.771317    0.969362    0.414652
      7          6           0       -1.512613   -0.236664    0.681415
      8          6           0       -2.367531   -0.618217   -0.510772
      9          1           0       -0.825337   -1.031904    0.971917
     10          1           0       -2.126933    0.019383    1.543255
     11          1           0       -3.026366    0.206424   -0.785983
     12          1           0       -1.748098   -0.875334   -1.371916
     13          1           0       -2.980855   -1.486290   -0.260362
     14          8           0        1.470234   -0.868760    1.427697
     15          1           0        2.417413   -0.694509    1.303056
 ---------------------------------------------------------------------

 SCF Done:  E(UM062X) =  -420.198631254     A.U. after   24 cycles

 The electronic state is 2-A.
 Alpha  occ. eigenvalues --  -19.67871 -19.67772 -19.62546 -10.70682 -10.60692
 Alpha  occ. eigenvalues --  -10.59204 -10.58805 -10.54233  -1.25030  -1.16432
 Alpha  occ. eigenvalues --   -1.13722  -0.90505  -0.88224  -0.77252  -0.73868
 Alpha  occ. eigenvalues --   -0.64352  -0.62264  -0.58240  -0.57437  -0.55336
 Alpha  occ. eigenvalues --   -0.52759  -0.51226  -0.48894  -0.46828  -0.45798
 Alpha  occ. eigenvalues --   -0.42915  -0.41984  -0.39842  -0.37907  -0.36527
 Alpha  occ. eigenvalues --   -0.35826
 Alpha virt. eigenvalues --   -0.01504  -0.00815   0.00534   0.00976   0.01985
 Alpha virt. eigenvalues --    0.02396   0.03568   0.04566   0.05501   0.06103
 Alpha virt. eigenvalues --    0.07082   0.07808   0.08510   0.09044   0.10636

  Beta  occ. eigenvalues --  -19.67869 -19.66260 -19.62566 -10.70666 -10.60694
  Beta  occ. eigenvalues --  -10.59206 -10.58654 -10.54233  -1.25027  -1.16467
  Beta  occ. eigenvalues --   -1.06979  -0.89761  -0.88213  -0.77115  -0.73673
  Beta  occ. eigenvalues --   -0.64175  -0.61946  -0.58108  -0.56871  -0.53168
  Beta  occ. eigenvalues --   -0.52550  -0.49382  -0.47104  -0.45765  -0.42025
  Beta  occ. eigenvalues --   -0.40444  -0.39515  -0.39073  -0.37569  -0.36138
  Beta virt. eigenvalues --   -0.10192  -0.00921  -0.00557   0.00610   0.01276
  Beta virt. eigenvalues --    0.02117   0.02562   0.03612   0.04542   0.05630
  Beta virt. eigenvalues --    0.06178   0.07192   0.07955   0.08469   0.09077

 Mulliken charges and spin densities:
               1          2
     1  C   -0.858334   0.209923
     2  H    0.232952  -0.012989
     3  C    0.575137  -0.073545
     4  C    0.161584   0.048730
     5  O   -0.237507  -0.009602
     6  O   -0.012303   0.001107
     7  C   -0.340852   0.000203
     8  C   -0.411058  -0.002610
     9  H    0.181979   0.003967
    10  H    0.212206  -0.001190
    11  H    0.185100  -0.000126
    12  H    0.136246   0.001991
    13  H    0.158229  -0.000300
    14  O   -0.228740   0.854321
    15  H    0.245362  -0.019881
 Sum of Mulliken charges =  -0.00000   1.00000

 Dipole moment (field-independent basis, Debye):
    X=             -0.4518    Y=             -4.1956    Z=             -0.6065  Tot=              4.2632
 Quadrupole moment (field-independent basis, Debye-Ang):
   XX=            -39.2236   YY=            -52.2888   ZZ=            -46.6928
   XY=             -4.4086   XZ=             -0.3952   YZ=              4.6578

  Exact polarizability:  72.271  -0.555  73.107  -2.746   4.669  73.151
 Approx polarizability:  76.540  -1.210  92.702  -8.014   8.477  82.606

 ******    1 imaginary frequencies (negative Signs) ******

                      1                      2                      3
                      A                      A                      A
 Frequencies --   -184.4501                63.7213                85.0563
 Red. masses --     10.9324                 6.3580                 3.3359
 Frc consts  --      0.2191                 0.0152                 0.0142
 IR Inten    --     19.6146                 6.6405                 0.8499

                      4                      5                      6
                      A                      A                      A
 Frequencies --    103.7512               119.2021               173.4511
 Red. masses --      4.6095                 5.8540                 2.3720
 Frc consts  --      0.0292                 0.0490                 0.0420
 IR Inten    --      0.2123                10.9176                19.2536

                      7                      8                      9
                      A                      A                      A
 Frequencies --    202.8634               228.9551               247.1799
 Red. masses --      1.5606                 1.3080                 1.9434
 Frc consts  --      0.0378                 0.0404                 0.0700
 IR Inten    --     33.1393                 1.6020                26.2862

                     10                     11                     12
                      A                      A                      A
 Frequencies --    359.3261               410.3359               557.8294
 Red. masses --      2.8914                 3.6249                 5.0226
 Frc consts  --      0.2200                 0.3596                 0.9208
 IR Inten    --      1.7243                 6.0101                16.2149

                     13                     14                     15
                      A                      A                      A
 Frequencies --    615.2582               651.5246               713.8972
 Red. masses --      2.1485                 1.5332                 1.3473
 Frc consts  --      0.4792                 0.3834                 0.4045
 IR Inten    --     51.8226                48.0658                30.4407

                     16                     17                     18
                      A                      A                      A
 Frequencies --    743.9836               756.0021               758.6588
 Red. masses --      1.3849                 7.3891                 4.7055
 Frc consts  --      0.4516                 2.4882                 1.5957
 IR Inten    --     18.9460                53.2462                14.1630

                     19                     20                     21
                      A                      A                      A
 Frequencies --    808.6421               951.7921              1104.8297
 Red. masses --      1.1575                 2.2602                 3.3760
 Frc consts  --      0.4459                 1.2064                 2.4280
 IR Inten    --      3.5248                12.5819                43.0142

                     22                     23                     24
                      A                      A                      A
 Frequencies --   1131.9814              1182.3071              1270.3349
 Red. masses --      2.5947                 1.8769                 2.7166
 Frc consts  --      1.9589                 1.5458                 2.5829
 IR Inten    --     52.0165                45.5101               344.4500

                     25                     26                     27
                      A                      A                      A
 Frequencies --   1354.5080              1405.6260              1432.8144
 Red. masses --      1.3008                 1.2780                 1.3777
 Frc consts  --      1.4061                 1.4878                 1.6664
 IR Inten    --    115.1165                32.0465                18.3684

                     28                     29                     30
                      A                      A                      A
 Frequencies --   1492.6414              1503.0190              1533.5072
 Red. masses --      1.0407                 1.0466                 1.0982
 Frc consts  --      1.3661                 1.3931                 1.5216
 IR Inten    --      4.2300                 1.7090                11.5241

                     31                     32                     33
                      A                      A                      A
 Frequencies --   1864.5937              2189.5903              3071.2773
 Red. masses --     12.9421                 5.9481                 1.0354
 Frc consts  --     26.5108                16.8017                 5.7542
 IR Inten    --    510.8067                65.2182                 8.5707

                     34                     35                     36
                      A                      A                      A
 Frequencies --   3113.1704              3145.1350              3150.6581
 Red. masses --      1.0606                 1.1032                 1.1020
 Frc consts  --      6.0561                 6.4296                 6.4453
 IR Inten    --     10.0318                 7.3472                11.9301

                     37                     38                     39
                      A                      A                      A
 Frequencies --   3170.5949              3481.4682              3803.0477
 Red. masses --      1.1081                 1.1609                 1.0674
 Frc consts  --      6.5631                 8.2902                 9.0959
 IR Inten    --     15.5230                66.7192                47.7050

 - Thermochemistry -
 -------------------
 Temperature   298.150 Kelvin.  Pressure   1.00000 Atm.
 Atom     1 has atomic number  6 and mass  12.00000

 Molecular mass:   115.03952 amu.
 Principal axes and moments of inertia in atomic units:
                           1         2         3
     Eigenvalues --   764.536681083.821831285.49053
           X            0.99988   0.00935   0.01254
           Y           -0.01006   0.99832   0.05707
           Z           -0.01198  -0.05719   0.99829
 This molecule is an asymmetric top.
 Rotational symmetry number  1.
 Warning -- assumption of classical behavior for rotation
           may cause significant error
 Rotational temperatures (Kelvin)      0.11329     0.07992     0.06738
 Rotational constants (GHZ):           2.36057     1.66516     1.40393
    1 imaginary frequencies ignored.
 Zero-point vibrational energy     292801.2 (Joules/Mol)
                                   69.98116 (Kcal/Mol)
 Warning -- explicit consideration of  12 degrees of freedom as
           vibrations may cause significant error
 Vibrational temperatures:     91.68   122.38   149.27   171.51   249.56
          (Kelvin)            291.88   329.42   355.64   516.99   590.38
                              802.59   885.22   937.40  1027.14  1070.43
                             1087.72  1091.54  1163.46  1369.42  1589.60
                             1628.67  1701.08  1827.73  1948.83  2022.38
                             2061.50  2147.58  2162.51  2206.37  2682.73
                             3150.33  4418.88  4479.16  4525.15  4533.09
                             4561.78  5009.06  5471.74

 Zero-point correction=                           0.111522 (Hartree/Particle)
 Thermal correction to Energy=                    0.121261
 Thermal correction to Enthalpy=                  0.122205
 Thermal correction to Gibbs Free Energy=         0.075773
 Sum of electronic and zero-point Energies=           -420.087109
 Sum of electronic and thermal Energies=              -420.077371
 Sum of electronic and thermal Enthalpies=            -420.076426
 Sum of electronic and thermal Free Energies=         -420.122858

                     E (Thermal)             CV                S
                      KCal/Mol        Cal/Mol-Kelvin    Cal/Mol-Kelvin
 Total                   76.092             32.641             97.724
 Electronic               0.000              0.000              1.377
 Translational            0.889              2.981             40.136
 Rotational               0.889              2.981             28.456
 Vibrational             74.315             26.679             27.754
 Vibration     1          0.597              1.972              4.338
 Vibration     2          0.601              1.960              3.771
 Vibration     3          0.605              1.946              3.383
 Vibration     4          0.609              1.933              3.113
 Vibration     5          0.627              1.875              2.398
 Vibration     6          0.639              1.836              2.107
 Vibration     7          0.652              1.797              1.887
 Vibration     8          0.661              1.767              1.751
 Vibration     9          0.734              1.556              1.125
 Vibration    10          0.775              1.448              0.925
 Vibration    11          0.913              1.123              0.528
 Vibration    12          0.975              1.000              0.424

 Normal termination of Gaussian 16 at Fri Mar 28 16:52:38 2025.
