 Gaussian 16, Revision A.03,
 Gaussian 16:  ES64L-G16RevA.03 25-Dec-2016

 --------------------------
 # ccsd(t)/6-311++g(d,p) sp
 --------------------------

 -------------------
 Title Card Required
 -------------------
 Symbolic Z-matrix:
 Charge =  0 Multiplicity = 2

                         Standard orientation:
 ---------------------------------------------------------------------
 Center     Atomic      Atomic             Coordinates (Angstroms)
 Number     Number       Type             X           Y           Z
 ---------------------------------------------------------------------
      1          6           0        1.347771   -1.349215   -1.194869
      2          1           0        1.735778   -2.226687   -1.658020
      3          6           0        0.906053   -0.372792   -0.646974
      4          6           0        0.396395    0.936667   -0.206848
      5          8           0        1.011801    1.931645   -0.451144
      6          8           0       -0.768794    0.962427    0.431599
      7          6           0       -1.506298   -0.248358    0.686020
      8          6           0       -2.370009   -0.617018   -0.503984
      9          1           0       -0.814754   -1.045921    0.960063
     10          1           0       -2.114402   -0.005343    1.556007
     11          1           0       -3.032657    0.209563   -0.763896
     12          1           0       -1.757571   -0.863209   -1.373136
     13          1           0       -2.979880   -1.488997   -0.258690
     14          8           0        1.493064   -0.891177    1.450697
     15          1           0        2.431450   -0.698276    1.288391
 ---------------------------------------------------------------------

 SCF Done:  E(UHF) =  -417.979217029     A.U. after   42 cycles
 E2 =    -0.1262796926D+01 EUMP2 =    -0.41924201395501D+03
 CCSD(T)= -0.41934934187D+03

 The electronic state is 2-A.
 Alpha  occ. eigenvalues --  -20.64099 -20.60759 -20.55088 -11.41464 -11.29901
 Alpha  occ. eigenvalues --  -11.27673 -11.26664 -11.23094  -1.47387  -1.39766
 Alpha  occ. eigenvalues --   -1.37671  -1.07894  -1.04725  -0.91548  -0.87446
 Alpha  occ. eigenvalues --   -0.75701  -0.73283  -0.69882  -0.68590  -0.67768
 Alpha  occ. eigenvalues --   -0.65454  -0.62816  -0.58198  -0.56800  -0.54615
 Alpha  occ. eigenvalues --   -0.54454  -0.50605  -0.47319  -0.45686  -0.43444
 Alpha  occ. eigenvalues --   -0.42642
 Alpha virt. eigenvalues --    0.03211   0.04556   0.05261   0.06555   0.07015
 Alpha virt. eigenvalues --    0.08391   0.09112   0.09971   0.11086   0.11747
 Alpha virt. eigenvalues --    0.13245   0.13882   0.14817   0.14928   0.16107

  Beta  occ. eigenvalues --  -20.60714 -20.60031 -20.55509 -11.41187 -11.29912
  Beta  occ. eigenvalues --  -11.27806 -11.26312 -11.23094  -1.47495  -1.38292
  Beta  occ. eigenvalues --   -1.24646  -1.07499  -1.04725  -0.91064  -0.87005
  Beta  occ. eigenvalues --   -0.75396  -0.72784  -0.69493  -0.66791  -0.64585
  Beta  occ. eigenvalues --   -0.62898  -0.58451  -0.55763  -0.54588  -0.51540
  Beta  occ. eigenvalues --   -0.50703  -0.48297  -0.46503  -0.43768  -0.42837
  Beta virt. eigenvalues --    0.03274   0.04293   0.04554   0.06574   0.06840
  Beta virt. eigenvalues --    0.08075   0.08464   0.09771   0.10490   0.11323
  Beta virt. eigenvalues --    0.11675   0.13779   0.14264   0.14919   0.15297

 Mulliken charges and spin densities:
               1          2
     1  C   -1.709506   0.587342
     2  H    0.244461  -0.045751
     3  C    1.504517  -0.577168
     4  C    0.209663   0.191852
     5  O   -0.327885  -0.088404
     6  O   -0.113197  -0.000250
     7  C   -0.243024  -0.003394
     8  C   -0.413036  -0.002237
     9  H    0.174717   0.002696
    10  H    0.181607  -0.001675
    11  H    0.167709   0.000333
    12  H    0.126830   0.001063
    13  H    0.129198  -0.000380
    14  O   -0.180254   0.974188
    15  H    0.248199  -0.038214
 Sum of Mulliken charges =  -0.00000   1.00000

 Dipole moment (field-independent basis, Debye):
    X=             -0.2322    Y=             -4.6716    Z=             -0.1070  Tot=              4.6786
 Quadrupole moment (field-independent basis, Debye-Ang):
   XX=            -38.8488   YY=            -53.2164   ZZ=            -46.4149
   XY=             -5.0142   XZ=              0.5390   YZ=              4.1349

 7\PMP3-0=-419.2758033\MP4SDQ=-419.2946253\CCSD=-419.2960106\CCSD(T)=-4
 Normal termination of Gaussian 16 at Mon May 12 14:42:45 2025.
