 Gaussian 16, Revision A.03,
 Gaussian 16:  ES64L-G16RevA.03 25-Dec-2016

 --------------------------
 # freq 6-311++g(d,p) m062x
 --------------------------

 -------------------
 Title Card Required
 -------------------
 Symbolic Z-matrix:
 Charge =  0 Multiplicity = 2

                         Standard orientation:
 ---------------------------------------------------------------------
 Center     Atomic      Atomic             Coordinates (Angstroms)
 Number     Number       Type             X           Y           Z
 ---------------------------------------------------------------------
      1          6           0        1.351837   -1.363560   -1.163137
      2          1           0        1.725998   -2.238036   -1.643247
      3          6           0        0.936651   -0.400480   -0.562889
      4          6           0        0.406299    0.929358   -0.202018
      5          8           0        1.019951    1.916304   -0.477824
      6          8           0       -0.771786    0.971427    0.409466
      7          6           0       -1.514343   -0.233085    0.679990
      8          6           0       -2.366914   -0.618260   -0.512682
      9          1           0       -0.828411   -1.027623    0.975420
     10          1           0       -2.130309    0.026933    1.539452
     11          1           0       -3.024478    0.205901   -0.792305
     12          1           0       -1.745642   -0.878723   -1.371557
     13          1           0       -2.981392   -1.485049   -0.260697
     14          8           0        1.463161   -0.862091    1.419625
     15          1           0        2.412446   -0.692355    1.307208
 ---------------------------------------------------------------------

 SCF Done:  E(UM062X) =  -420.197933083     A.U. after   24 cycles

 The electronic state is 2-A.
 Alpha  occ. eigenvalues --  -19.67894 -19.67505 -19.62573 -10.70706 -10.60701
 Alpha  occ. eigenvalues --  -10.59454 -10.58976 -10.54252  -1.25062  -1.16462
 Alpha  occ. eigenvalues --   -1.13502  -0.90631  -0.88245  -0.77274  -0.73915
 Alpha  occ. eigenvalues --   -0.64417  -0.62319  -0.58252  -0.57489  -0.55177
 Alpha  occ. eigenvalues --   -0.52775  -0.51176  -0.48851  -0.46825  -0.45815
 Alpha  occ. eigenvalues --   -0.42694  -0.41994  -0.39903  -0.37897  -0.36565
 Alpha  occ. eigenvalues --   -0.35602
 Alpha virt. eigenvalues --   -0.01468  -0.00803   0.00532   0.00975   0.01963
 Alpha virt. eigenvalues --    0.02394   0.03540   0.04551   0.05485   0.06093
 Alpha virt. eigenvalues --    0.07069   0.07809   0.08468   0.09042   0.10635

  Beta  occ. eigenvalues --  -19.67891 -19.66017 -19.62594 -10.70688 -10.60703
  Beta  occ. eigenvalues --  -10.59469 -10.58799 -10.54252  -1.25057  -1.16499
  Beta  occ. eigenvalues --   -1.07029  -0.89800  -0.88232  -0.77117  -0.73696
  Beta  occ. eigenvalues --   -0.64211  -0.61976  -0.58134  -0.56927  -0.53107
  Beta  occ. eigenvalues --   -0.52510  -0.49382  -0.47152  -0.45779  -0.42034
  Beta  occ. eigenvalues --   -0.40510  -0.39497  -0.39019  -0.37606  -0.36136
  Beta virt. eigenvalues --   -0.10341  -0.00891  -0.00477   0.00616   0.01273
  Beta virt. eigenvalues --    0.02102   0.02573   0.03586   0.04517   0.05615
  Beta virt. eigenvalues --    0.06166   0.07178   0.07936   0.08425   0.09067

 Mulliken charges and spin densities:
               1          2
     1  C   -0.718684   0.246883
     2  H    0.235653  -0.014679
     3  C    0.452645  -0.084453
     4  C    0.142434   0.046883
     5  O   -0.237675  -0.010187
     6  O   -0.011437   0.001279
     7  C   -0.343700   0.000073
     8  C   -0.408693  -0.002625
     9  H    0.183805   0.004389
    10  H    0.212459  -0.001195
    11  H    0.185333  -0.000128
    12  H    0.135634   0.002292
    13  H    0.158370  -0.000353
    14  O   -0.230821   0.831376
    15  H    0.244677  -0.019556
 Sum of Mulliken charges =  -0.00000   1.00000

 Dipole moment (field-independent basis, Debye):
    X=             -0.4803    Y=             -4.1910    Z=             -0.6629  Tot=              4.2702
 Quadrupole moment (field-independent basis, Debye-Ang):
   XX=            -39.2960   YY=            -52.2379   ZZ=            -46.7194
   XY=             -4.3929   XZ=             -0.4897   YZ=              4.7598

  Exact polarizability:  72.337  -0.526  72.969  -2.312   4.631  74.931
 Approx polarizability:  76.508  -1.041  92.326  -7.785   8.501  84.354

 ******    1 imaginary frequencies (negative Signs) ******

                      1                      2                      3
                      A                      A                      A
 Frequencies --   -296.1471                67.0634                86.1337
 Red. masses --     11.7033                 6.0918                 3.2778
 Frc consts  --      0.6047                 0.0161                 0.0143
 IR Inten    --     32.5275                 6.3042                 0.5287

                      4                      5                      6
                      A                      A                      A
 Frequencies --    103.7092               123.8389               173.6750
 Red. masses --      4.3350                 6.5690                 2.3480
 Frc consts  --      0.0275                 0.0594                 0.0417
 IR Inten    --      0.1166                12.3648                20.0667

                      7                      8                      9
                      A                      A                      A
 Frequencies --    202.3986               229.4164               246.2494
 Red. masses --      1.5077                 1.3199                 2.0239
 Frc consts  --      0.0364                 0.0409                 0.0723
 IR Inten    --     33.6169                 1.1979                23.7224

                     10                     11                     12
                      A                      A                      A
 Frequencies --    360.6589               410.6239               557.4671
 Red. masses --      2.8965                 3.6201                 5.0629
 Frc consts  --      0.2220                 0.3596                 0.9270
 IR Inten    --      1.7258                 5.9355                16.9201

                     13                     14                     15
                      A                      A                      A
 Frequencies --    619.9074               674.1211               708.1012
 Red. masses --      3.2575                 1.2397                 1.3426
 Frc consts  --      0.7375                 0.3319                 0.3966
 IR Inten    --     27.6942                64.4252                27.5089

                     16                     17                     18
                      A                      A                      A
 Frequencies --    741.1869               754.1835               758.0737
 Red. masses --      1.3559                 7.3824                 5.0724
 Frc consts  --      0.4389                 2.4740                 1.7175
 IR Inten    --     22.0516                59.4612                11.2864

                     19                     20                     21
                      A                      A                      A
 Frequencies --    808.4574               951.6361              1104.2484
 Red. masses --      1.1558                 2.2603                 3.4074
 Frc consts  --      0.4451                 1.2060                 2.4480
 IR Inten    --      3.6145                13.0021                43.7129

                     22                     23                     24
                      A                      A                      A
 Frequencies --   1131.6102              1182.1233              1269.8593
 Red. masses --      2.5675                 1.8828                 2.7222
 Frc consts  --      1.9371                 1.5502                 2.5863
 IR Inten    --     51.2256                46.5111               343.8569

                     25                     26                     27
                      A                      A                      A
 Frequencies --   1354.3017              1405.4556              1432.7503
 Red. masses --      1.2997                 1.2774                 1.3776
 Frc consts  --      1.4045                 1.4867                 1.6661
 IR Inten    --    113.8481                31.9302                18.3043

                     28                     29                     30
                      A                      A                      A
 Frequencies --   1492.5257              1502.8658              1533.8532
 Red. masses --      1.0406                 1.0466                 1.0978
 Frc consts  --      1.3658                 1.3928                 1.5218
 IR Inten    --      4.3320                 1.7422                11.2159

                     31                     32                     33
                      A                      A                      A
 Frequencies --   1865.5592              2173.8278              3071.1742
 Red. masses --     12.9390                 6.0061                 1.0354
 Frc consts  --     26.5320                16.7221                 5.7538
 IR Inten    --    513.5405                71.9256                 8.5262

                     34                     35                     36
                      A                      A                      A
 Frequencies --   3113.4841              3144.9546              3150.7982
 Red. masses --      1.0606                 1.1031                 1.1021
 Frc consts  --      6.0575                 6.4283                 6.4462
 IR Inten    --      9.9576                 7.7314                11.7663

                     37                     38                     39
                      A                      A                      A
 Frequencies --   3170.7216              3479.7577              3805.3274
 Red. masses --      1.1081                 1.1587                 1.0675
 Frc consts  --      6.5638                 8.2665                 9.1071
 IR Inten    --     15.1722                66.9737                49.8963

 - Thermochemistry -
 -------------------
 Temperature   298.150 Kelvin.  Pressure   1.00000 Atm.
 Atom     1 has atomic number  6 and mass  12.00000

 Molecular mass:   115.03952 amu.
 Principal axes and moments of inertia in atomic units:
                           1         2         3
     Eigenvalues --   760.763691080.668551284.49007
           X            0.99988   0.00929   0.01264
           Y           -0.00999   0.99834   0.05669
           Z           -0.01209  -0.05681   0.99831
 This molecule is an asymmetric top.
 Rotational symmetry number  1.
 Warning -- assumption of classical behavior for rotation
           may cause significant error
 Rotational temperatures (Kelvin)      0.11385     0.08015     0.06743
 Rotational constants (GHZ):           2.37228     1.67002     1.40503
    1 imaginary frequencies ignored.
 Zero-point vibrational energy     292858.4 (Joules/Mol)
                                   69.99484 (Kcal/Mol)
 Warning -- explicit consideration of  12 degrees of freedom as
           vibrations may cause significant error
 Vibrational temperatures:     96.49   123.93   149.21   178.18   249.88
          (Kelvin)            291.21   330.08   354.30   518.91   590.80
                              802.07   891.91   969.91  1018.80  1066.40
                             1085.10  1090.70  1163.19  1369.19  1588.77
                             1628.13  1700.81  1827.04  1948.54  2022.14
                             2061.41  2147.41  2162.29  2206.87  2684.12
                             3127.65  4418.73  4479.61  4524.89  4533.30
                             4561.96  5006.60  5475.02

 Zero-point correction=                           0.111544 (Hartree/Particle)
 Thermal correction to Energy=                    0.121256
 Thermal correction to Enthalpy=                  0.122200
 Thermal correction to Gibbs Free Energy=         0.075880
 Sum of electronic and zero-point Energies=           -420.086389
 Sum of electronic and thermal Energies=              -420.076677
 Sum of electronic and thermal Enthalpies=            -420.075733
 Sum of electronic and thermal Free Energies=         -420.122053

                     E (Thermal)             CV                S
                      KCal/Mol        Cal/Mol-Kelvin    Cal/Mol-Kelvin
 Total                   76.089             32.600             97.490
 Electronic               0.000              0.000              1.377
 Translational            0.889              2.981             40.136
 Rotational               0.889              2.981             28.448
 Vibrational             74.312             26.639             27.529
 Vibration     1          0.598              1.970              4.238
 Vibration     2          0.601              1.959              3.746
 Vibration     3          0.605              1.946              3.383
 Vibration     4          0.610              1.929              3.040
 Vibration     5          0.627              1.875              2.395
 Vibration     6          0.639              1.836              2.111
 Vibration     7          0.652              1.796              1.884
 Vibration     8          0.661              1.769              1.757
 Vibration     9          0.735              1.553              1.119
 Vibration    10          0.775              1.447              0.924
 Vibration    11          0.913              1.123              0.529
 Vibration    12          0.980              0.990              0.417

 Normal termination of Gaussian 16 at Fri Mar 28 16:39:50 2025.
