 Gaussian 16, Revision A.03,
 Gaussian 16:  ES64L-G16RevA.03 25-Dec-2016

 --------------------------
 # ccsd(t)/6-311++g(d,p) sp
 --------------------------

 -------------------
 Title Card Required
 -------------------
 Symbolic Z-matrix:
 Charge =  0 Multiplicity = 2

                         Standard orientation:
 ---------------------------------------------------------------------
 Center     Atomic      Atomic             Coordinates (Angstroms)
 Number     Number       Type             X           Y           Z
 ---------------------------------------------------------------------
      1          6           0        1.351837   -1.363560   -1.163137
      2          1           0        1.725998   -2.238036   -1.643247
      3          6           0        0.936651   -0.400480   -0.562889
      4          6           0        0.406299    0.929358   -0.202018
      5          8           0        1.019951    1.916304   -0.477824
      6          8           0       -0.771786    0.971427    0.409466
      7          6           0       -1.514343   -0.233085    0.679990
      8          6           0       -2.366914   -0.618260   -0.512682
      9          1           0       -0.828411   -1.027623    0.975420
     10          1           0       -2.130309    0.026933    1.539452
     11          1           0       -3.024478    0.205901   -0.792305
     12          1           0       -1.745642   -0.878723   -1.371557
     13          1           0       -2.981392   -1.485049   -0.260697
     14          8           0        1.463161   -0.862091    1.419625
     15          1           0        2.412446   -0.692355    1.307208
 ---------------------------------------------------------------------

 SCF Done:  E(UHF) =  -417.973699705     A.U. after   38 cycles
 E2 =    -0.1260444537D+01 EUMP2 =    -0.41923414424181D+03
 CCSD(T)= -0.41934724922D+03

 The electronic state is 2-A.
 Alpha  occ. eigenvalues --  -20.63743 -20.60721 -20.54996 -11.41388 -11.29890
 Alpha  occ. eigenvalues --  -11.27795 -11.26822 -11.23110  -1.47373  -1.39537
 Alpha  occ. eigenvalues --   -1.37603  -1.08082  -1.04734  -0.91512  -0.87503
 Alpha  occ. eigenvalues --   -0.75777  -0.73250  -0.69975  -0.68615  -0.67350
 Alpha  occ. eigenvalues --   -0.65305  -0.62727  -0.58025  -0.56674  -0.54507
 Alpha  occ. eigenvalues --   -0.54348  -0.50579  -0.47176  -0.45479  -0.43610
 Alpha  occ. eigenvalues --   -0.42706
 Alpha virt. eigenvalues --    0.03219   0.04567   0.05250   0.06541   0.07001
 Alpha virt. eigenvalues --    0.08485   0.09148   0.10364   0.11085   0.11764
 Alpha virt. eigenvalues --    0.13178   0.13938   0.14723   0.14847   0.16220

  Beta  occ. eigenvalues --  -20.60665 -20.59793 -20.55499 -11.41038 -11.29904
  Beta  occ. eigenvalues --  -11.28366 -11.25979 -11.23109  -1.47498  -1.38346
  Beta  occ. eigenvalues --   -1.25192  -1.07484  -1.04730  -0.90856  -0.86836
  Beta  occ. eigenvalues --   -0.75333  -0.72586  -0.69565  -0.67028  -0.64568
  Beta  occ. eigenvalues --   -0.62837  -0.58381  -0.55980  -0.54556  -0.51406
  Beta  occ. eigenvalues --   -0.50698  -0.48449  -0.46540  -0.44256  -0.42852
  Beta virt. eigenvalues --    0.03294   0.04101   0.04565   0.06559   0.06785
  Beta virt. eigenvalues --    0.07872   0.08482   0.09914   0.11018   0.11305
  Beta virt. eigenvalues --    0.11690   0.13755   0.14359   0.14893   0.15279

 Mulliken charges and spin densities:
               1          2
     1  C   -1.132985   0.867075
     2  H    0.253015  -0.063693
     3  C    0.878357  -0.783988
     4  C    0.223535   0.195339
     5  O   -0.325289  -0.105226
     6  O   -0.107402  -0.000503
     7  C   -0.250703  -0.003853
     8  C   -0.402604  -0.003478
     9  H    0.177709   0.003568
    10  H    0.182119  -0.001775
    11  H    0.168496   0.000442
    12  H    0.126082   0.002049
    13  H    0.128943  -0.000567
    14  O   -0.169052   0.931275
    15  H    0.249780  -0.036664
 Sum of Mulliken charges =  -0.00000   1.00000

 Dipole moment (field-independent basis, Debye):
    X=             -0.2729    Y=             -4.6783    Z=             -0.0915  Tot=              4.6871
 Quadrupole moment (field-independent basis, Debye-Ang):
   XX=            -39.0264   YY=            -53.1285   ZZ=            -46.2869
   XY=             -4.9774   XZ=              0.5828   YZ=              4.2853

 \PMP3-0=-419.2732629\MP4SDQ=-419.2891787\CCSD=-419.2932057\CCSD(T)=-41
 Normal termination of Gaussian 16 at Mon May 12 17:37:39 2025.
