 Gaussian 16, Revision A.03,
 Gaussian 16:  ES64L-G16RevA.03 25-Dec-2016

 --------------------------
 # ccsd(t)/6-311++g(d,p) sp
 --------------------------

 -------------------
 Title Card Required
 -------------------
 Symbolic Z-matrix:
 Charge =  0 Multiplicity = 2

                         Standard orientation:
 ---------------------------------------------------------------------
 Center     Atomic      Atomic             Coordinates (Angstroms)
 Number     Number       Type             X           Y           Z
 ---------------------------------------------------------------------
      1          6           0        1.346818   -1.384749   -1.121666
      2          1           0        1.719136   -2.282935   -1.563537
      3          6           0        1.018039   -0.475636   -0.299697
      4          6           0        0.422534    0.913622   -0.210001
      5          8           0        1.039548    1.884243   -0.529321
      6          8           0       -0.773609    0.989253    0.363385
      7          6           0       -1.528504   -0.200870    0.665377
      8          6           0       -2.362030   -0.617579   -0.529561
      9          1           0       -0.858789   -0.990701    1.005890
     10          1           0       -2.157628    0.093007    1.504071
     11          1           0       -3.007688    0.202296   -0.846807
     12          1           0       -1.726059   -0.907524   -1.369006
     13          1           0       -2.987125   -1.472471   -0.263677
     14          8           0        1.394901   -0.797718    1.313374
     15          1           0        2.350288   -0.656619    1.326851
 ---------------------------------------------------------------------

 SCF Done:  E(UHF) =  -417.977477969     A.U. after   29 cycles
 E2 =    -0.1270940272D+01 EUMP2 =    -0.41924841824154D+03
 CCSD(T)= -0.41936395676D+03

 The electronic state is 2-A.
 Alpha  occ. eigenvalues --  -20.60822 -20.60571 -20.55373 -11.41149 -11.31941
 Alpha  occ. eigenvalues --  -11.29997 -11.29628 -11.23397  -1.47519  -1.37867
 Alpha  occ. eigenvalues --   -1.36401  -1.09466  -1.04934  -0.91654  -0.87980
 Alpha  occ. eigenvalues --   -0.76480  -0.73012  -0.70174  -0.68715  -0.65683
 Alpha  occ. eigenvalues --   -0.62941  -0.61785  -0.57779  -0.55914  -0.54478
 Alpha  occ. eigenvalues --   -0.52656  -0.50716  -0.47709  -0.45475  -0.44871
 Alpha  occ. eigenvalues --   -0.42233
 Alpha virt. eigenvalues --    0.03178   0.04575   0.05350   0.06507   0.06887
 Alpha virt. eigenvalues --    0.08568   0.09115   0.10895   0.11668   0.12019
 Alpha virt. eigenvalues --    0.13111   0.13873   0.14267   0.14608   0.16190

  Beta  occ. eigenvalues --  -20.60781 -20.58616 -20.55689 -11.40806 -11.34034
  Beta  occ. eigenvalues --  -11.30014 -11.26435 -11.23393  -1.47579  -1.38337
  Beta  occ. eigenvalues --   -1.30698  -1.06482  -1.04889  -0.90433  -0.86076
  Beta  occ. eigenvalues --   -0.75358  -0.71884  -0.70096  -0.68053  -0.65046
  Beta  occ. eigenvalues --   -0.62839  -0.58079  -0.57054  -0.54609  -0.51884
  Beta  occ. eigenvalues --   -0.50827  -0.50507  -0.47452  -0.46146  -0.42944
  Beta virt. eigenvalues --    0.03301   0.03405   0.04587   0.06256   0.06568
  Beta virt. eigenvalues --    0.07184   0.08379   0.09905   0.11055   0.11589
  Beta virt. eigenvalues --    0.12803   0.13270   0.14030   0.14922   0.15622

 Mulliken charges and spin densities:
               1          2
     1  C   -0.039582   1.634658
     2  H    0.251411  -0.101770
     3  C    0.053340  -1.025379
     4  C    0.021638   0.153087
     5  O   -0.330113  -0.061877
     6  O   -0.104433  -0.001165
     7  C   -0.275544  -0.006693
     8  C   -0.381210  -0.000954
     9  H    0.195629   0.005197
    10  H    0.181715  -0.001175
    11  H    0.170221   0.000516
    12  H    0.113238   0.002778
    13  H    0.132484  -0.000838
    14  O   -0.260919   0.419432
    15  H    0.272127  -0.015815
 Sum of Mulliken charges =  -0.00000   1.00000

 Dipole moment (field-independent basis, Debye):
    X=             -0.5364    Y=             -4.6133    Z=             -0.7713  Tot=              4.7080
 Quadrupole moment (field-independent basis, Debye-Ang):
   XX=            -39.6542   YY=            -53.0139   ZZ=            -47.5245
   XY=             -4.6503   XZ=             -0.3923   YZ=              5.0052

 Normal termination of Gaussian 16 at Mon May 12 02:21:28 2025.
