 Gaussian 16, Revision A.03,
 Gaussian 16:  ES64L-G16RevA.03 25-Dec-2016

 --------------------------
 # ccsd(t)/6-311++g(d,p) sp
 --------------------------

 -------------------
 Title Card Required
 -------------------
 Symbolic Z-matrix:
 Charge =  0 Multiplicity = 2

                         Standard orientation:
 ---------------------------------------------------------------------
 Center     Atomic      Atomic             Coordinates (Angstroms)
 Number     Number       Type             X           Y           Z
 ---------------------------------------------------------------------
      1          6           0        1.348290   -1.385649   -1.122394
      2          1           0        1.717448   -2.279069   -1.575073
      3          6           0        1.011614   -0.470129   -0.320780
      4          6           0        0.421138    0.915274   -0.209616
      5          8           0        1.038375    1.886197   -0.526989
      6          8           0       -0.773533    0.988330    0.365791
      7          6           0       -1.527557   -0.202746    0.666465
      8          6           0       -2.362272   -0.618006   -0.528236
      9          1           0       -0.856213   -0.992295    1.004608
     10          1           0       -2.155860    0.089526    1.506300
     11          1           0       -3.008759    0.201937   -0.843617
     12          1           0       -1.727325   -0.906617   -1.368855
     13          1           0       -2.986635   -1.473547   -0.262732
     14          8           0        1.399531   -0.801301    1.323765
     15          1           0        2.355082   -0.658207    1.326193
 ---------------------------------------------------------------------

 SCF Done:  E(UHF) =  -417.973816772     A.U. after   29 cycles
 E2 =    -0.1268831630D+01 EUMP2 =    -0.41924264840163D+03
 CCSD(T)= -0.41936041654D+03

 The electronic state is 2-A.
 Alpha  occ. eigenvalues --  -20.60865 -20.60821 -20.55322 -11.41206 -11.31368
 Alpha  occ. eigenvalues --  -11.29990 -11.29505 -11.23382  -1.47524  -1.37844
 Alpha  occ. eigenvalues --   -1.36629  -1.09388  -1.04927  -0.91656  -0.87945
 Alpha  occ. eigenvalues --   -0.76455  -0.73071  -0.70068  -0.68676  -0.65701
 Alpha  occ. eigenvalues --   -0.62985  -0.62047  -0.57795  -0.55887  -0.54500
 Alpha  occ. eigenvalues --   -0.52853  -0.50702  -0.47692  -0.45423  -0.44822
 Alpha  occ. eigenvalues --   -0.42396
 Alpha virt. eigenvalues --    0.03170   0.04571   0.05354   0.06513   0.06898
 Alpha virt. eigenvalues --    0.08564   0.09124   0.10900   0.11674   0.11841
 Alpha virt. eigenvalues --    0.13118   0.13879   0.14279   0.14622   0.16201

  Beta  occ. eigenvalues --  -20.60774 -20.58586 -20.55684 -11.40844 -11.33538
  Beta  occ. eigenvalues --  -11.30007 -11.26398 -11.23379  -1.47597  -1.38381
  Beta  occ. eigenvalues --   -1.29783  -1.06680  -1.04889  -0.90470  -0.86152
  Beta  occ. eigenvalues --   -0.75375  -0.72016  -0.70026  -0.67910  -0.64879
  Beta  occ. eigenvalues --   -0.62839  -0.58115  -0.56874  -0.54613  -0.51365
  Beta  occ. eigenvalues --   -0.50821  -0.50110  -0.47431  -0.46177  -0.43015
  Beta virt. eigenvalues --    0.03289   0.03410   0.04579   0.06298   0.06572
  Beta virt. eigenvalues --    0.07222   0.08384   0.09908   0.11046   0.11600
  Beta virt. eigenvalues --    0.12666   0.13297   0.14068   0.14926   0.15582

 Mulliken charges and spin densities:
               1          2
     1  C   -0.054078   1.594984
     2  H    0.253676  -0.103175
     3  C    0.063109  -1.054961
     4  C    0.013384   0.161101
     5  O   -0.329905  -0.072106
     6  O   -0.104720  -0.000957
     7  C   -0.274436  -0.006971
     8  C   -0.381571  -0.001507
     9  H    0.194943   0.005299
    10  H    0.181686  -0.001332
    11  H    0.170180   0.000557
    12  H    0.113938   0.002888
    13  H    0.132208  -0.000858
    14  O   -0.247395   0.495761
    15  H    0.268983  -0.018723
 Sum of Mulliken charges =  -0.00000   1.00000

 Dipole moment (field-independent basis, Debye):
    X=             -0.5304    Y=             -4.6199    Z=             -0.7511  Tot=              4.7105
 Quadrupole moment (field-independent basis, Debye-Ang):
   XX=            -39.6337   YY=            -52.9941   ZZ=            -47.3753
   XY=             -4.6734   XZ=             -0.3696   YZ=              5.0082

 04\PMP3-0=-419.2867889\MP4SDQ=-419.2987136\CCSD=-419.3049818\CCSD(T)=-
 Normal termination of Gaussian 16 at Mon May 12 01:34:54 2025.
