 Gaussian 16, Revision A.03,
 Gaussian 16:  ES64L-G16RevA.03 25-Dec-2016

 --------------------------
 # freq 6-311++g(d,p) m062x
 --------------------------

 -------------------
 Title Card Required
 -------------------
 Symbolic Z-matrix:
 Charge =  0 Multiplicity = 2

                         Standard orientation:
 ---------------------------------------------------------------------
 Center     Atomic      Atomic             Coordinates (Angstroms)
 Number     Number       Type             X           Y           Z
 ---------------------------------------------------------------------
      1          6           0        1.352090   -1.378260   -1.136570
      2          1           0        1.715964   -2.254742   -1.622123
      3          6           0        0.972047   -0.434392   -0.453052
      4          6           0        0.414138    0.923145   -0.203737
      5          8           0        1.029646    1.900350   -0.504652
      6          8           0       -0.772824    0.980471    0.386254
      7          6           0       -1.521225   -0.217197    0.673469
      8          6           0       -2.364462   -0.618353   -0.520423
      9          1           0       -0.841423   -1.008232    0.991336
     10          1           0       -2.143653    0.060418    1.522592
     11          1           0       -3.016377    0.203527   -0.819230
     12          1           0       -1.736201   -0.894054   -1.369829
     13          1           0       -2.984035   -1.479204   -0.260886
     14          8           0        1.431193   -0.830946    1.378423
     15          1           0        2.386069   -0.676373    1.319827
 ---------------------------------------------------------------------

 SCF Done:  E(UM062X) =  -420.197583394     A.U. after   23 cycles

 The electronic state is 2-A.
 Alpha  occ. eigenvalues --  -19.68052 -19.65816 -19.62809 -10.70853 -10.61645
 Alpha  occ. eigenvalues --  -10.60775 -10.60151 -10.54399  -1.25270  -1.16672
 Alpha  occ. eigenvalues --   -1.12048  -0.91439  -0.88384  -0.77458  -0.74236
 Alpha  occ. eigenvalues --   -0.64899  -0.62593  -0.58376  -0.57823  -0.54342
 Alpha  occ. eigenvalues --   -0.52911  -0.50783  -0.48664  -0.46752  -0.45939
 Alpha  occ. eigenvalues --   -0.42126  -0.41228  -0.40325  -0.37946  -0.36888
 Alpha  occ. eigenvalues --   -0.33831
 Alpha virt. eigenvalues --   -0.01311  -0.00728   0.00504   0.00953   0.01774
 Alpha virt. eigenvalues --    0.02384   0.03315   0.04451   0.05387   0.05996
 Alpha virt. eigenvalues --    0.06987   0.07809   0.08295   0.09007   0.10522

  Beta  occ. eigenvalues --  -19.68045 -19.64619 -19.62834 -10.70819 -10.61742
  Beta  occ. eigenvalues --  -10.60778 -10.59795 -10.54398  -1.25254  -1.16711
  Beta  occ. eigenvalues --   -1.07582  -0.89952  -0.88361  -0.77134  -0.73784
  Beta  occ. eigenvalues --   -0.64453  -0.62144  -0.58318  -0.57268  -0.53045
  Beta  occ. eigenvalues --   -0.52279  -0.49414  -0.47467  -0.45888  -0.42133
  Beta  occ. eigenvalues --   -0.41364  -0.39713  -0.38575  -0.37866  -0.36007
  Beta virt. eigenvalues --   -0.10934  -0.00910  -0.00129   0.00663   0.01313
  Beta virt. eigenvalues --    0.01968   0.02652   0.03388   0.04352   0.05530
  Beta virt. eigenvalues --    0.06064   0.07080   0.07819   0.08212   0.08972

 Mulliken charges and spin densities:
               1          2
     1  C   -0.128550   0.567939
     2  H    0.246621  -0.025118
     3  C   -0.000933  -0.193894
     4  C    0.017267   0.043928
     5  O   -0.239435  -0.011865
     6  O   -0.009888   0.002110
     7  C   -0.355598  -0.001610
     8  C   -0.397828  -0.002380
     9  H    0.193929   0.005987
    10  H    0.213414  -0.001109
    11  H    0.186653  -0.000083
    12  H    0.130127   0.003788
    13  H    0.159872  -0.000723
    14  O   -0.260594   0.626359
    15  H    0.244942  -0.013329
 Sum of Mulliken charges =  -0.00000   1.00000

 Dipole moment (field-independent basis, Debye):
    X=             -0.6555    Y=             -4.1529    Z=             -1.0972  Tot=              4.3451
 Quadrupole moment (field-independent basis, Debye-Ang):
   XX=            -39.6836   YY=            -51.9850   ZZ=            -47.1561
   XY=             -4.2809   XZ=             -1.1716   YZ=              5.2898

  Exact polarizability:  72.301  -0.281  72.092  -1.689   4.398  77.899
 Approx polarizability:  76.406   0.013  89.672  -6.411   7.654  92.111

 ******    1 imaginary frequencies (negative Signs) ******

                      1                      2                      3
                      A                      A                      A
 Frequencies --   -663.3139                85.5000               102.1870
 Red. masses --     12.4527                 3.5927                 4.0981
 Frc consts  --      3.2281                 0.0155                 0.0252
 IR Inten    --     36.7472                 2.1123                 0.5618

                      4                      5                      6
                      A                      A                      A
 Frequencies --    109.5809               173.1518               189.2970
 Red. masses --      4.3413                 3.4849                 2.7100
 Frc consts  --      0.0307                 0.0616                 0.0572
 IR Inten    --      4.2174                35.7557                11.9444

                      7                      8                      9
                      A                      A                      A
 Frequencies --    208.6541               235.7925               266.7560
 Red. masses --      1.3297                 1.3949                 2.8432
 Frc consts  --      0.0341                 0.0457                 0.1192
 IR Inten    --     34.0557                 1.5824                 9.5828

                     10                     11                     12
                      A                      A                      A
 Frequencies --    373.4535               413.1080               555.0908
 Red. masses --      2.9657                 3.5957                 4.4176
 Frc consts  --      0.2437                 0.3615                 0.8020
 IR Inten    --      1.6940                 5.4145                22.8912

                     13                     14                     15
                      A                      A                      A
 Frequencies --    601.9360               626.0088               721.8698
 Red. masses --      1.3805                 4.6271                 1.3422
 Frc consts  --      0.2947                 1.0684                 0.4121
 IR Inten    --     29.1553                 6.5393                34.7904

                     16                     17                     18
                      A                      A                      A
 Frequencies --    745.0525               752.4382               807.1883
 Red. masses --      6.7727                 6.2932                 1.1286
 Frc consts  --      2.2151                 2.0993                 0.4333
 IR Inten    --     30.1902                 4.0259                 3.3685

                     19                     20                     21
                      A                      A                      A
 Frequencies --    857.2955               950.0734              1100.9532
 Red. masses --      1.1702                 2.2633                 3.5925
 Frc consts  --      0.5067                 1.2036                 2.5656
 IR Inten    --     80.4377                14.8732                48.6654

                     22                     23                     24
                      A                      A                      A
 Frequencies --   1129.2788              1181.6455              1267.1516
 Red. masses --      2.4216                 1.9141                 2.7294
 Frc consts  --      1.8195                 1.5747                 2.5821
 IR Inten    --     44.7020                51.3805               335.6004

                     25                     26                     27
                      A                      A                      A
 Frequencies --   1354.1248              1405.0009              1432.5194
 Red. masses --      1.3000                 1.2737                 1.3748
 Frc consts  --      1.4045                 1.4814                 1.6622
 IR Inten    --    110.4815                29.9689                17.4247

                     28                     29                     30
                      A                      A                      A
 Frequencies --   1492.3097              1502.1024              1537.2348
 Red. masses --      1.0403                 1.0470                 1.0953
 Frc consts  --      1.3649                 1.3919                 1.5250
 IR Inten    --      4.7211                 1.7878                 9.7186

                     31                     32                     33
                      A                      A                      A
 Frequencies --   1870.1335              2027.9383              3070.2588
 Red. masses --     12.8496                 6.5710                 1.0354
 Frc consts  --     26.4779                15.9217                 5.7508
 IR Inten    --    518.9750                70.5857                 8.2064

                     34                     35                     36
                      A                      A                      A
 Frequencies --   3114.7011              3143.2589              3151.5162
 Red. masses --      1.0609                 1.1027                 1.1021
 Frc consts  --      6.0639                 6.4192                 6.4495
 IR Inten    --      9.0506                 9.6205                11.3673

                     37                     38                     39
                      A                      A                      A
 Frequencies --   3171.0484              3463.9302              3824.4378
 Red. masses --      1.1082                 1.1405                 1.0677
 Frc consts  --      6.5658                 8.0627                 9.2011
 IR Inten    --     13.8314                71.9424                64.5406

 - Thermochemistry -
 -------------------
 Temperature   298.150 Kelvin.  Pressure   1.00000 Atm.
 Atom     1 has atomic number  6 and mass  12.00000

 Molecular mass:   115.03952 amu.
 Principal axes and moments of inertia in atomic units:
                           1         2         3
     Eigenvalues --   743.926561066.059891280.24539
           X            0.99987   0.00909   0.01297
           Y           -0.00978   0.99844   0.05493
           Z           -0.01245  -0.05505   0.99841
 This molecule is an asymmetric top.
 Rotational symmetry number  1.
 Warning -- assumption of classical behavior for rotation
           may cause significant error
 Rotational temperatures (Kelvin)      0.11643     0.08125     0.06765
 Rotational constants (GHZ):           2.42597     1.69291     1.40968
    1 imaginary frequencies ignored.
 Zero-point vibrational energy     293168.7 (Joules/Mol)
                                   70.06900 (Kcal/Mol)
 Warning -- explicit consideration of  12 degrees of freedom as
           vibrations may cause significant error
 Vibrational temperatures:    123.02   147.02   157.66   249.13   272.36
          (Kelvin)            300.21   339.25   383.80   537.32   594.37
                              798.65   866.05   900.69  1038.61  1071.96
                             1082.59  1161.36  1233.46  1366.94  1584.03
                             1624.78  1700.12  1823.15  1948.28  2021.48
                             2061.08  2147.10  2161.19  2211.74  2690.70
                             2917.75  4417.42  4481.36  4522.45  4534.33
                             4562.43  4983.82  5502.51

 Zero-point correction=                           0.111662 (Hartree/Particle)
 Thermal correction to Energy=                    0.121122
 Thermal correction to Enthalpy=                  0.122066
 Thermal correction to Gibbs Free Energy=         0.076721
 Sum of electronic and zero-point Energies=           -420.085921
 Sum of electronic and thermal Energies=              -420.076462
 Sum of electronic and thermal Enthalpies=            -420.075517
 Sum of electronic and thermal Free Energies=         -420.120862

                     E (Thermal)             CV                S
                      KCal/Mol        Cal/Mol-Kelvin    Cal/Mol-Kelvin
 Total                   76.005             32.377             95.437
 Electronic               0.000              0.000              1.377
 Translational            0.889              2.981             40.136
 Rotational               0.889              2.981             28.409
 Vibrational             74.228             26.416             25.515
 Vibration     1          0.601              1.959              3.760
 Vibration     2          0.604              1.947              3.412
 Vibration     3          0.606              1.942              3.276
 Vibration     4          0.627              1.876              2.401
 Vibration     5          0.633              1.855              2.235
 Vibration     6          0.642              1.827              2.055
 Vibration     7          0.655              1.786              1.834
 Vibration     8          0.672              1.734              1.617
 Vibration     9          0.745              1.527              1.066
 Vibration    10          0.777              1.442              0.916
 Vibration    11          0.911              1.129              0.534
 Vibration    12          0.960              1.028              0.446

 Normal termination of Gaussian 16 at Fri Mar 28 15:35:29 2025.
