 Gaussian 16, Revision A.03,
 Gaussian 16:  ES64L-G16RevA.03 25-Dec-2016

 --------------------------
 # ccsd(t)/6-311++g(d,p) sp
 --------------------------

 -------------------
 Title Card Required
 -------------------
 Symbolic Z-matrix:
 Charge =  0 Multiplicity = 2

                         Standard orientation:
 ---------------------------------------------------------------------
 Center     Atomic      Atomic             Coordinates (Angstroms)
 Number     Number       Type             X           Y           Z
 ---------------------------------------------------------------------
      1          6           0        1.351577   -1.382718   -1.129870
      2          1           0        1.714707   -2.262719   -1.610043
      3          6           0        0.985488   -0.446937   -0.408314
      4          6           0        0.416377    0.920828   -0.206017
      5          8           0        1.032918    1.895107   -0.513514
      6          8           0       -0.773071    0.983497    0.378390
      7          6           0       -1.523484   -0.211790    0.671047
      8          6           0       -2.363625   -0.618484   -0.523063
      9          1           0       -0.846245   -1.001796    0.996719
     10          1           0       -2.148044    0.071618    1.516650
     11          1           0       -3.013619    0.202531   -0.828326
     12          1           0       -1.733038   -0.899333   -1.369249
     13          1           0       -2.984895   -1.477317   -0.260956
     14          8           0        1.419879   -0.819761    1.361398
     15          1           0        2.375331   -0.669128    1.322316
 ---------------------------------------------------------------------

 SCF Done:  E(UHF) =  -417.967164485     A.U. after   30 cycles
 E2 =    -0.1260353377D+01 EUMP2 =    -0.41922751786278D+03
 CCSD(T)= -0.41934994563D+03

 The electronic state is 2-A.
 Alpha  occ. eigenvalues --  -20.62272 -20.60750 -20.55078 -11.41294 -11.29939
 Alpha  occ. eigenvalues --  -11.28968 -11.28626 -11.23264  -1.47459  -1.38096
 Alpha  occ. eigenvalues --   -1.37677  -1.08778  -1.04842  -0.91546  -0.87719
 Alpha  occ. eigenvalues --   -0.76165  -0.73156  -0.69978  -0.68631  -0.66059
 Alpha  occ. eigenvalues --   -0.64087  -0.62647  -0.57820  -0.56059  -0.54503
 Alpha  occ. eigenvalues --   -0.53771  -0.50622  -0.47382  -0.45260  -0.44307
 Alpha  occ. eigenvalues --   -0.42799
 Alpha virt. eigenvalues --    0.03188   0.04572   0.05304   0.06523   0.06948
 Alpha virt. eigenvalues --    0.08565   0.09158   0.10982   0.11222   0.11759
 Alpha virt. eigenvalues --    0.13150   0.13947   0.14442   0.14708   0.16246

  Beta  occ. eigenvalues --  -20.60690 -20.58999 -20.55578 -11.40884 -11.31073
  Beta  occ. eigenvalues --  -11.29957 -11.26031 -11.23261  -1.47570  -1.38423
  Beta  occ. eigenvalues --   -1.27224  -1.07174  -1.04822  -0.90559  -0.86375
  Beta  occ. eigenvalues --   -0.75330  -0.72259  -0.69807  -0.67534  -0.64595
  Beta  occ. eigenvalues --   -0.62801  -0.58238  -0.56438  -0.54579  -0.50978
  Beta  occ. eigenvalues --   -0.50754  -0.48972  -0.46785  -0.45863  -0.43001
  Beta virt. eigenvalues --    0.03288   0.03645   0.04573   0.06466   0.06624
  Beta virt. eigenvalues --    0.07431   0.08444   0.09965   0.11101   0.11644
  Beta virt. eigenvalues --    0.12139   0.13482   0.14268   0.14939   0.15432

 Mulliken charges and spin densities:
               1          2
     1  C   -0.228680   1.376747
     2  H    0.257693  -0.097233
     3  C    0.175905  -1.073101
     4  C    0.023975   0.185628
     5  O   -0.328545  -0.102933
     6  O   -0.105464  -0.000612
     7  C   -0.265181  -0.006249
     8  C   -0.386598  -0.003571
     9  H    0.188269   0.005254
    10  H    0.181975  -0.001695
    11  H    0.169740   0.000612
    12  H    0.118885   0.003115
    13  H    0.130521  -0.000844
    14  O   -0.191471   0.743725
    15  H    0.258977  -0.028842
 Sum of Mulliken charges =  -0.00000   1.00000

 Dipole moment (field-independent basis, Debye):
    X=             -0.4371    Y=             -4.6522    Z=             -0.4447  Tot=              4.6938
 Quadrupole moment (field-independent basis, Debye-Ang):
   XX=            -39.4428   YY=            -53.0148   ZZ=            -46.7160
   XY=             -4.7997   XZ=              0.0826   YZ=              4.7466

 \PMP3-0=-419.2767168\MP4SDQ=-419.2859462\CCSD=-419.294361\CCSD(T)=-419
 Normal termination of Gaussian 16 at Mon May 12 07:36:36 2025.
