 Gaussian 16, Revision A.03,
 Gaussian 16:  ES64L-G16RevA.03 25-Dec-2016

 --------------------------
 # ccsd(t)/6-311++g(d,p) sp
 --------------------------

 -------------------
 Title Card Required
 -------------------
 Symbolic Z-matrix:
 Charge =  0 Multiplicity = 2

                         Standard orientation:
 ---------------------------------------------------------------------
 Center     Atomic      Atomic             Coordinates (Angstroms)
 Number     Number       Type             X           Y           Z
 ---------------------------------------------------------------------
      1          6           0        1.342230   -1.339834   -1.215720
      2          1           0        1.736821   -2.219047   -1.670026
      3          6           0        0.889681   -0.358652   -0.687628
      4          6           0        0.390785    0.941240   -0.210360
      5          8           0        1.008346    1.939785   -0.435108
      6          8           0       -0.765811    0.957006    0.444387
      7          6           0       -1.500744   -0.257154    0.689398
      8          6           0       -2.372560   -0.614432   -0.498219
      9          1           0       -0.806172   -1.056727    0.949993
     10          1           0       -2.103056   -0.024309    1.566160
     11          1           0       -3.037526    0.214279   -0.745189
     12          1           0       -1.766551   -0.852099   -1.374151
     13          1           0       -2.980356   -1.489001   -0.256988
     14          8           0        1.510009   -0.909618    1.464139
     15          1           0        2.440135   -0.697490    1.278027
 ---------------------------------------------------------------------

 SCF Done:  E(UHF) =  -417.981553146     A.U. after   40 cycles
 E2 =    -0.1263708988D+01 EUMP2 =    -0.41924526213420D+03
 CCSD(T)= -0.41935036083D+03

 The electronic state is 2-A.
 Alpha  occ. eigenvalues --  -20.64207 -20.60781 -20.55147 -11.41504 -11.29913
 Alpha  occ. eigenvalues --  -11.27668 -11.26689 -11.23099  -1.47408  -1.39802
 Alpha  occ. eigenvalues --   -1.37720  -1.07843  -1.04731  -0.91565  -0.87419
 Alpha  occ. eigenvalues --   -0.75685  -0.73294  -0.69829  -0.68597  -0.67840
 Alpha  occ. eigenvalues --   -0.65505  -0.62867  -0.58276  -0.56822  -0.54692
 Alpha  occ. eigenvalues --   -0.54490  -0.50623  -0.47411  -0.45783  -0.43399
 Alpha  occ. eigenvalues --   -0.42649
 Alpha virt. eigenvalues --    0.03205   0.04550   0.05269   0.06556   0.07022
 Alpha virt. eigenvalues --    0.08335   0.09085   0.09821   0.11078   0.11740
 Alpha virt. eigenvalues --    0.13297   0.13862   0.14830   0.14983   0.16016

  Beta  occ. eigenvalues --  -20.60742 -20.60112 -20.55517 -11.41266 -11.29922
  Beta  occ. eigenvalues --  -11.27658 -11.26503 -11.23099  -1.47504  -1.38265
  Beta  occ. eigenvalues --   -1.24453  -1.07503  -1.04731  -0.91158  -0.87059
  Beta  occ. eigenvalues --   -0.75430  -0.72871  -0.69468  -0.66694  -0.64594
  Beta  occ. eigenvalues --   -0.62931  -0.58482  -0.55663  -0.54609  -0.51585
  Beta  occ. eigenvalues --   -0.50708  -0.48232  -0.46486  -0.43620  -0.42853
  Beta virt. eigenvalues --    0.03262   0.04373   0.04549   0.06575   0.06861
  Beta virt. eigenvalues --    0.08141   0.08456   0.09663   0.10262   0.11334
  Beta virt. eigenvalues --    0.11670   0.13754   0.14236   0.14929   0.15337

 Mulliken charges and spin densities:
               1          2
     1  C   -1.791285   0.469480
     2  H    0.241685  -0.038194
     3  C    1.724744  -0.477958
     4  C    0.092154   0.179437
     5  O   -0.330916  -0.077755
     6  O   -0.116790  -0.000179
     7  C   -0.239899  -0.003488
     8  C   -0.417587  -0.001616
     9  H    0.173546   0.002280
    10  H    0.181037  -0.001537
    11  H    0.167779   0.000288
    12  H    0.126121   0.000631
    13  H    0.129396  -0.000292
    14  O   -0.187704   0.987668
    15  H    0.247718  -0.038765
 Sum of Mulliken charges =  -0.00000   1.00000

 Dipole moment (field-independent basis, Debye):
    X=             -0.2277    Y=             -4.6561    Z=             -0.1546  Tot=              4.6643
 Quadrupole moment (field-independent basis, Debye-Ang):
   XX=            -38.7992   YY=            -53.2837   ZZ=            -46.5020
   XY=             -4.9918   XZ=              0.4632   YZ=              4.0826

 Normal termination of Gaussian 16 at Mon May 12 19:18:45 2025.
