 Gaussian 16, Revision A.03,
 Gaussian 16:  ES64L-G16RevA.03 25-Dec-2016

 --------------------------
 # freq 6-311++g(d,p) m062x
 --------------------------

 -------------------
 Title Card Required
 -------------------
 Symbolic Z-matrix:
 Charge =  0 Multiplicity = 2

                         Standard orientation:
 ---------------------------------------------------------------------
 Center     Atomic      Atomic             Coordinates (Angstroms)
 Number     Number       Type             X           Y           Z
 ---------------------------------------------------------------------
      1          6           0        1.352078   -1.366669   -1.156730
      2          1           0        1.723216   -2.240766   -1.640030
      3          6           0        0.943977   -0.407405   -0.541338
      4          6           0        0.408311    0.927903   -0.201584
      5          8           0        1.022043    1.912750   -0.483685
      6          8           0       -0.772120    0.973403    0.404455
      7          6           0       -1.515936   -0.229631    0.678613
      8          6           0       -2.366359   -0.618228   -0.514453
      9          1           0       -0.831302   -1.023469    0.978806
     10          1           0       -2.133395    0.034206    1.535821
     11          1           0       -3.022674    0.205498   -0.798248
     12          1           0       -1.743437   -0.881921   -1.371213
     13          1           0       -2.981978   -1.483744   -0.260930
     14          8           0        1.456305   -0.855626    1.411471
     15          1           0        2.407331   -0.689839    1.310816
 ---------------------------------------------------------------------

 SCF Done:  E(UM062X) =  -420.197335527     A.U. after   24 cycles

 The electronic state is 2-A.
 Alpha  occ. eigenvalues --  -19.67922 -19.67197 -19.62609 -10.70738 -10.60713
 Alpha  occ. eigenvalues --  -10.59769 -10.59179 -10.54276  -1.25101  -1.16500
 Alpha  occ. eigenvalues --   -1.13240  -0.90779  -0.88269  -0.77302  -0.73971
 Alpha  occ. eigenvalues --   -0.64498  -0.62381  -0.58269  -0.57546  -0.54999
 Alpha  occ. eigenvalues --   -0.52796  -0.51110  -0.48808  -0.46818  -0.45836
 Alpha  occ. eigenvalues --   -0.42439  -0.42003  -0.39979  -0.37895  -0.36621
 Alpha  occ. eigenvalues --   -0.35335
 Alpha virt. eigenvalues --   -0.01439  -0.00790   0.00529   0.00975   0.01934
 Alpha virt. eigenvalues --    0.02391   0.03505   0.04533   0.05467   0.06079
 Alpha virt. eigenvalues --    0.07054   0.07809   0.08427   0.09038   0.10625

  Beta  occ. eigenvalues --  -19.67919 -19.65743 -19.62632 -10.70717 -10.60715
  Beta  occ. eigenvalues --  -10.59798 -10.58973 -10.54276  -1.25095  -1.16538
  Beta  occ. eigenvalues --   -1.07089  -0.89846  -0.88255  -0.77124  -0.73721
  Beta  occ. eigenvalues --   -0.64255  -0.62014  -0.58165  -0.56988  -0.53059
  Beta  occ. eigenvalues --   -0.52453  -0.49386  -0.47206  -0.45797  -0.42047
  Beta  occ. eigenvalues --   -0.40599  -0.39522  -0.38920  -0.37650  -0.36133
  Beta virt. eigenvalues --   -0.10515  -0.00877  -0.00390   0.00623   0.01273
  Beta virt. eigenvalues --    0.02081   0.02585   0.03554   0.04487   0.05600
  Beta virt. eigenvalues --    0.06150   0.07161   0.07915   0.08381   0.09053

 Mulliken charges and spin densities:
               1          2
     1  C   -0.579828   0.293986
     2  H    0.238191  -0.016548
     3  C    0.338833  -0.099975
     4  C    0.117037   0.044690
     5  O   -0.237924  -0.010758
     6  O   -0.010748   0.001450
     7  C   -0.346434  -0.000075
     8  C   -0.406301  -0.002648
     9  H    0.185822   0.004794
    10  H    0.212703  -0.001186
    11  H    0.185593  -0.000126
    12  H    0.134796   0.002607
    13  H    0.158579  -0.000415
    14  O   -0.234355   0.803252
    15  H    0.244037  -0.019047
 Sum of Mulliken charges =  -0.00000   1.00000

 Dipole moment (field-independent basis, Debye):
    X=             -0.5135    Y=             -4.1846    Z=             -0.7362  Tot=              4.2797
 Quadrupole moment (field-independent basis, Debye-Ang):
   XX=            -39.3749   YY=            -52.1835   ZZ=            -46.7652
   XY=             -4.3731   XZ=             -0.6103   YZ=              4.8714

  Exact polarizability:  72.395  -0.492  72.820  -1.903   4.590  76.658
 Approx polarizability:  76.479  -0.858  91.908  -7.527   8.483  86.210

 ******    1 imaginary frequencies (negative Signs) ******

                      1                      2                      3
                      A                      A                      A
 Frequencies --   -386.1510                72.0762                87.8623
 Red. masses --     11.8885                 5.6816                 3.3033
 Frc consts  --      1.0445                 0.0174                 0.0150
 IR Inten    --     48.1795                 6.2062                 0.4206

                      4                      5                      6
                      A                      A                      A
 Frequencies --    103.4427               130.7719               174.5856
 Red. masses --      4.1997                 7.0947                 2.3198
 Frc consts  --      0.0265                 0.0715                 0.0417
 IR Inten    --      0.2225                13.7202                20.7038

                      7                      8                      9
                      A                      A                      A
 Frequencies --    202.8624               230.0984               246.9925
 Red. masses --      1.4640                 1.3245                 2.1304
 Frc consts  --      0.0355                 0.0413                 0.0766
 IR Inten    --     33.9020                 0.7100                21.5123

                     10                     11                     12
                      A                      A                      A
 Frequencies --    362.2662               410.9428               556.9764
 Red. masses --      2.9038                 3.6162                 5.0848
 Frc consts  --      0.2245                 0.3598                 0.9294
 IR Inten    --      1.7265                 5.8647                17.6487

                     13                     14                     15
                      A                      A                      A
 Frequencies --    621.5910               698.8712               701.5734
 Red. masses --      3.9397                 1.3530                 1.1767
 Frc consts  --      0.8969                 0.3893                 0.3412
 IR Inten    --     18.3753                47.9160                37.3222

                     16                     17                     18
                      A                      A                      A
 Frequencies --    739.3047               752.8634               757.2988
 Red. masses --      1.3380                 6.4641                 5.5517
 Frc consts  --      0.4309                 2.1587                 1.8759
 IR Inten    --     25.7365                64.6584                14.0165

                     19                     20                     21
                      A                      A                      A
 Frequencies --    808.3036               951.3782              1103.5591
 Red. masses --      1.1535                 2.2606                 3.4452
 Frc consts  --      0.4440                 1.2055                 2.4720
 IR Inten    --      3.7793                13.4957                44.7019

                     22                     23                     24
                      A                      A                      A
 Frequencies --   1131.1599              1181.9532              1269.2730
 Red. masses --      2.5354                 1.8899                 2.7286
 Frc consts  --      1.9114                 1.5556                 2.5900
 IR Inten    --     50.1523                47.6518               343.0031

                     25                     26                     27
                      A                      A                      A
 Frequencies --   1354.1054              1405.3028              1432.6916
 Red. masses --      1.2985                 1.2766                 1.3773
 Frc consts  --      1.4028                 1.4854                 1.6657
 IR Inten    --    112.5512                31.7107                18.1991

                     28                     29                     30
                      A                      A                      A
 Frequencies --   1492.4307              1502.7109              1534.3199
 Red. masses --      1.0405                 1.0467                 1.0974
 Frc consts  --      1.3655                 1.3926                 1.5221
 IR Inten    --      4.4402                 1.7758                10.8579

                     31                     32                     33
                      A                      A                      A
 Frequencies --   1866.5856              2153.9373              3071.0519
 Red. masses --     12.9343                 6.0803                 1.0354
 Frc consts  --     26.5514                16.6203                 5.7534
 IR Inten    --    516.2322                79.3254                 8.4667

                     34                     35                     36
                      A                      A                      A
 Frequencies --   3113.7570              3144.7264              3150.9388
 Red. masses --      1.0606                 1.1030                 1.1021
 Frc consts  --      6.0588                 6.4269                 6.4469
 IR Inten    --      9.8509                 8.0678                11.6535

                     37                     38                     39
                      A                      A                      A
 Frequencies --   3170.8155              3477.7057              3807.8900
 Red. masses --      1.1082                 1.1560                 1.0675
 Frc consts  --      6.5644                 8.2375                 9.1198
 IR Inten    --     14.8327                67.3592                52.3435

 - Thermochemistry -
 -------------------
 Temperature   298.150 Kelvin.  Pressure   1.00000 Atm.
 Atom     1 has atomic number  6 and mass  12.00000

 Molecular mass:   115.03952 amu.
 Principal axes and moments of inertia in atomic units:
                           1         2         3
     Eigenvalues --   757.113981077.580251283.52266
           X            0.99988   0.00924   0.01273
           Y           -0.00994   0.99836   0.05632
           Z           -0.01219  -0.05644   0.99833
 This molecule is an asymmetric top.
 Rotational symmetry number  1.
 Warning -- assumption of classical behavior for rotation
           may cause significant error
 Rotational temperatures (Kelvin)      0.11440     0.08038     0.06748
 Rotational constants (GHZ):           2.38371     1.67481     1.40608
    1 imaginary frequencies ignored.
 Zero-point vibrational energy     292935.4 (Joules/Mol)
                                   70.01324 (Kcal/Mol)
 Warning -- explicit consideration of  11 degrees of freedom as
           vibrations may cause significant error
 Vibrational temperatures:    103.70   126.41   148.83   188.15   251.19
          (Kelvin)            291.87   331.06   355.37   521.22   591.26
                              801.36   894.33  1005.52  1009.41  1063.69
                             1083.20  1089.58  1162.97  1368.82  1587.78
                             1627.49  1700.57  1826.20  1948.26  2021.92
                             2061.32  2147.27  2162.07  2207.54  2685.60
                             3099.04  4418.56  4480.00  4524.56  4533.50
                             4562.10  5003.64  5478.70

 Zero-point correction=                           0.111573 (Hartree/Particle)
 Thermal correction to Energy=                    0.121247
 Thermal correction to Enthalpy=                  0.122191
 Thermal correction to Gibbs Free Energy=         0.076033
 Sum of electronic and zero-point Energies=           -420.085762
 Sum of electronic and thermal Energies=              -420.076089
 Sum of electronic and thermal Enthalpies=            -420.075145
 Sum of electronic and thermal Free Energies=         -420.121303

                     E (Thermal)             CV                S
                      KCal/Mol        Cal/Mol-Kelvin    Cal/Mol-Kelvin
 Total                   76.084             32.553             97.148
 Electronic               0.000              0.000              1.377
 Translational            0.889              2.981             40.136
 Rotational               0.889              2.981             28.439
 Vibrational             74.306             26.592             27.195
 Vibration     1          0.598              1.967              4.096
 Vibration     2          0.601              1.958              3.707
 Vibration     3          0.605              1.946              3.388
 Vibration     4          0.612              1.923              2.935
 Vibration     5          0.627              1.874              2.386
 Vibration     6          0.639              1.836              2.107
 Vibration     7          0.652              1.795              1.878
 Vibration     8          0.661              1.768              1.752
 Vibration     9          0.736              1.550              1.112
 Vibration    10          0.775              1.446              0.923
 Vibration    11          0.912              1.124              0.530

 Normal termination of Gaussian 16 at Fri Mar 28 16:27:00 2025.
