 Gaussian 16, Revision A.03,
 Gaussian 16:  ES64L-G16RevA.03 25-Dec-2016

 --------------------------
 # freq 6-311++g(d,p) m062x
 --------------------------

 -------------------
 Title Card Required
 -------------------
 Symbolic Z-matrix:
 Charge =  0 Multiplicity = 2

                         Standard orientation:
 ---------------------------------------------------------------------
 Center     Atomic      Atomic             Coordinates (Angstroms)
 Number     Number       Type             X           Y           Z
 ---------------------------------------------------------------------
      1          6           0       -2.108422   -1.039626   -0.850313
      2          1           0       -2.770872   -1.772405   -1.255778
      3          6           0       -1.225002   -0.426749   -0.179853
      4          6           0       -0.600690    0.935195    0.036463
      5          8           0       -1.213353    1.846075    0.505768
      6          8           0        0.694528    1.021473   -0.237574
      7          6           0        1.464953   -0.077051   -0.765337
      8          6           0        2.536522   -0.452254    0.233828
      9          1           0        0.821127   -0.926933   -0.988269
     10          1           0        1.893851    0.292781   -1.697812
     11          1           0        3.157237    0.413463    0.468635
     12          1           0        2.076185   -0.827090    1.147577
     13          1           0        3.172170   -1.233799   -0.187648
     14          8           0       -0.432809   -1.373486    0.986964
     15          1           0       -1.140793   -1.535615    1.623304
 ---------------------------------------------------------------------

 SCF Done:  E(UM062X) =  -420.214711133     A.U. after   19 cycles

 The electronic state is 2-A.
 Alpha  occ. eigenvalues --  -19.67880 -19.65537 -19.62688 -10.70413 -10.64213
 Alpha  occ. eigenvalues --  -10.60648 -10.60487 -10.53199  -1.25050  -1.16404
 Alpha  occ. eigenvalues --   -1.12834  -0.91274  -0.88064  -0.76568  -0.73868
 Alpha  occ. eigenvalues --   -0.65123  -0.62349  -0.59943  -0.56391  -0.55197
 Alpha  occ. eigenvalues --   -0.53345  -0.49524  -0.47669  -0.46880  -0.44913
 Alpha  occ. eigenvalues --   -0.42100  -0.41193  -0.40083  -0.37522  -0.36489
 Alpha  occ. eigenvalues --   -0.32045
 Alpha virt. eigenvalues --   -0.00774  -0.00531   0.00548   0.00769   0.02322
 Alpha virt. eigenvalues --    0.02685   0.03320   0.04666   0.05453   0.05888
 Alpha virt. eigenvalues --    0.07282   0.07390   0.08676   0.09343   0.09848

  Beta  occ. eigenvalues --  -19.67868 -19.64974 -19.62698 -10.70363 -10.64365
  Beta  occ. eigenvalues --  -10.60652 -10.59854 -10.53198  -1.25005  -1.16405
  Beta  occ. eigenvalues --   -1.10865  -0.89204  -0.87888  -0.75874  -0.73116
  Beta  occ. eigenvalues --   -0.64592  -0.61630  -0.59356  -0.56143  -0.54307
  Beta  occ. eigenvalues --   -0.53060  -0.47959  -0.47286  -0.45115  -0.44692
  Beta  occ. eigenvalues --   -0.41940  -0.39966  -0.39234  -0.37532  -0.35217
  Beta virt. eigenvalues --   -0.09468  -0.00748  -0.00099   0.00694   0.01401
  Beta virt. eigenvalues --    0.02392   0.02835   0.03643   0.04604   0.05723
  Beta virt. eigenvalues --    0.05951   0.07232   0.07298   0.08522   0.09388

 Mulliken charges and spin densities:
               1          2
     1  C   -0.009509   0.969119
     2  H    0.233688  -0.030855
     3  C   -0.047059  -0.261688
     4  C    0.004608   0.047878
     5  O   -0.248098  -0.001859
     6  O   -0.024990   0.002584
     7  C   -0.346960   0.007870
     8  C   -0.450596  -0.003903
     9  H    0.191692   0.004938
    10  H    0.210694   0.000128
    11  H    0.177867  -0.000357
    12  H    0.187738   0.000310
    13  H    0.148084   0.000102
    14  O   -0.295488   0.264654
    15  H    0.268330   0.001079
 Sum of Mulliken charges =  -0.00000   1.00000

 Dipole moment (field-independent basis, Debye):
    X=             -0.3235    Y=             -3.7502    Z=             -1.8244  Tot=              4.1830
 Quadrupole moment (field-independent basis, Debye-Ang):
   XX=            -40.7580   YY=            -53.4070   ZZ=            -44.1877
   XY=              7.5016   XZ=              0.4543   YZ=             -0.8182

  Exact polarizability:  83.458   0.132  68.196   6.567   3.022  63.155
 Approx polarizability:  90.307  -1.056  80.721   8.373   5.484  77.869

 ******    1 imaginary frequencies (negative Signs) ******

                      1                      2                      3
                      A                      A                      A
 Frequencies --   -471.1147                66.8454                89.3296
 Red. masses --      5.3923                 1.3244                 3.6971
 Frc consts  --      0.7051                 0.0035                 0.0174
 IR Inten    --     91.0523                49.6371                 6.6653

                      4                      5                      6
                      A                      A                      A
 Frequencies --    107.1365               140.0726               207.3024
 Red. masses --      2.5519                 4.1426                 1.2812
 Frc consts  --      0.0173                 0.0479                 0.0324
 IR Inten    --      0.4528                17.2202                27.1021

                      7                      8                      9
                      A                      A                      A
 Frequencies --    222.2142               257.5469               261.1484
 Red. masses --      1.1920                 7.2056                 2.6258
 Frc consts  --      0.0347                 0.2816                 0.1055
 IR Inten    --     12.8598                 0.7515                 2.1788

                     10                     11                     12
                      A                      A                      A
 Frequencies --    351.5008               394.8688               420.1194
 Red. masses --      6.3304                 3.5153                 3.6058
 Frc consts  --      0.4608                 0.3229                 0.3750
 IR Inten    --      1.4949                 2.3078                 7.5706

                     13                     14                     15
                      A                      A                      A
 Frequencies --    568.3018               645.2948               708.6449
 Red. masses --      5.9674                 4.1277                 1.4031
 Frc consts  --      1.1355                 1.0127                 0.4151
 IR Inten    --     25.1041                 3.5323                39.0022

                     16                     17                     18
                      A                      A                      A
 Frequencies --    752.7712               763.9823               815.6436
 Red. masses --      5.0226                 9.0908                 1.1504
 Frc consts  --      1.6769                 3.1262                 0.4509
 IR Inten    --      1.5373                 9.9356                 8.1581

                     19                     20                     21
                      A                      A                      A
 Frequencies --    959.7129              1069.6612              1092.3599
 Red. masses --      2.1825                 1.2166                 3.7085
 Frc consts  --      1.1844                 0.8202                 2.6072
 IR Inten    --     16.1314                49.4562                61.4877

                     22                     23                     24
                      A                      A                      A
 Frequencies --   1139.7299              1178.4564              1277.4231
 Red. masses --      2.2980                 1.8138                 2.5423
 Frc consts  --      1.7587                 1.4841                 2.4442
 IR Inten    --     27.9436                56.4651               340.6285

                     25                     26                     27
                      A                      A                      A
 Frequencies --   1359.7947              1401.1378              1432.5763
 Red. masses --      1.4024                 1.2568                 1.3666
 Frc consts  --      1.5278                 1.4538                 1.6524
 IR Inten    --    147.9440                22.6322                14.7550

                     28                     29                     30
                      A                      A                      A
 Frequencies --   1489.2099              1504.1872              1534.0633
 Red. masses --      1.0379                 1.0453                 1.0978
 Frc consts  --      1.3562                 1.3935                 1.5221
 IR Inten    --      5.3831                 4.2398                 4.1209

                     31                     32                     33
                      A                      A                      A
 Frequencies --   1812.9762              1870.9352              3074.8787
 Red. masses --      7.1526                12.6111                 1.0355
 Frc consts  --     13.8515                26.0088                 5.7685
 IR Inten    --     36.0073               486.6557                13.1776

                     34                     35                     36
                      A                      A                      A
 Frequencies --   3100.0310              3146.4663              3156.5528
 Red. masses --      1.0620                 1.1038                 1.1007
 Frc consts  --      6.0130                 6.4386                 6.4618
 IR Inten    --     21.5293                 7.0104                10.7600

                     37                     38                     39
                      A                      A                      A
 Frequencies --   3174.2911              3429.3890              3860.5876
 Red. masses --      1.1057                 1.1235                 1.0677
 Frc consts  --      6.5641                 7.7850                 9.3754
 IR Inten    --     12.8224                78.3525                70.6240

 - Thermochemistry -
 -------------------
 Temperature   298.150 Kelvin.  Pressure   1.00000 Atm.
 Atom     1 has atomic number  6 and mass  12.00000

 Molecular mass:   115.03952 amu.
 Principal axes and moments of inertia in atomic units:
                           1         2         3
     Eigenvalues --   661.343611062.082481387.40303
           X            0.99987   0.01576   0.00391
           Y           -0.01574   0.99987  -0.00355
           Z           -0.00396   0.00349   0.99999
 This molecule is an asymmetric top.
 Rotational symmetry number  1.
 Warning -- assumption of classical behavior for rotation
           may cause significant error
 Rotational temperatures (Kelvin)      0.13097     0.08155     0.06243
 Rotational constants (GHZ):           2.72890     1.69925     1.30081
    1 imaginary frequencies ignored.
 Zero-point vibrational energy     292111.0 (Joules/Mol)
                                   69.81620 (Kcal/Mol)
 Warning -- explicit consideration of  12 degrees of freedom as
           vibrations may cause significant error
 Vibrational temperatures:     96.18   128.53   154.15   201.53   298.26
          (Kelvin)            319.72   370.55   375.73   505.73   568.13
                              604.46   817.66   928.44  1019.58  1083.07
                             1099.20  1173.53  1380.81  1539.00  1571.66
                             1639.82  1695.54  1837.93  1956.44  2015.92
                             2061.16  2142.64  2164.19  2207.17  2608.47
                             2691.86  4424.06  4460.25  4527.06  4541.58
                             4567.10  4934.13  5554.52

 Zero-point correction=                           0.111259 (Hartree/Particle)
 Thermal correction to Energy=                    0.120885
 Thermal correction to Enthalpy=                  0.121829
 Thermal correction to Gibbs Free Energy=         0.075918
 Sum of electronic and zero-point Energies=           -420.103452
 Sum of electronic and thermal Energies=              -420.093826
 Sum of electronic and thermal Enthalpies=            -420.092882
 Sum of electronic and thermal Free Energies=         -420.138793

                     E (Thermal)             CV                S
                      KCal/Mol        Cal/Mol-Kelvin    Cal/Mol-Kelvin
 Total                   75.856             32.502             96.628
 Electronic               0.000              0.000              1.377
 Translational            0.889              2.981             40.136
 Rotational               0.889              2.981             28.368
 Vibrational             74.079             26.540             26.747
 Vibration     1          0.598              1.970              4.244
 Vibration     2          0.602              1.957              3.675
 Vibration     3          0.606              1.944              3.320
 Vibration     4          0.615              1.913              2.803
 Vibration     5          0.641              1.829              2.067
 Vibration     6          0.648              1.807              1.941
 Vibration     7          0.667              1.750              1.678
 Vibration     8          0.669              1.744              1.654
 Vibration     9          0.728              1.572              1.159
 Vibration    10          0.762              1.481              0.982
 Vibration    11          0.783              1.427              0.892
 Vibration    12          0.924              1.100              0.508

 Normal termination of Gaussian 16 at Fri Mar 28 05:05:08 2025.
