 Gaussian 16, Revision A.03,
 Gaussian 16:  ES64L-G16RevA.03 25-Dec-2016

 --------------------------
 # freq 6-311++g(d,p) m062x
 --------------------------

 -------------------
 Title Card Required
 -------------------
 Symbolic Z-matrix:
 Charge =  0 Multiplicity = 2

                         Standard orientation:
 ---------------------------------------------------------------------
 Center     Atomic      Atomic             Coordinates (Angstroms)
 Number     Number       Type             X           Y           Z
 ---------------------------------------------------------------------
      1          6           0       -2.103342   -1.059682   -0.846805
      2          1           0       -2.773290   -1.770611   -1.273874
      3          6           0       -1.281938   -0.345822   -0.284466
      4          6           0       -0.607376    0.936866    0.056071
      5          8           0       -1.220235    1.829776    0.558212
      6          8           0        0.685104    1.029972   -0.219503
      7          6           0        1.457459   -0.051504   -0.776930
      8          6           0        2.541550   -0.436733    0.205224
      9          1           0        0.814121   -0.900450   -1.006511
     10          1           0        1.875068    0.338973   -1.706194
     11          1           0        3.157248    0.429390    0.451437
     12          1           0        2.093616   -0.832195    1.116614
     13          1           0        3.179720   -1.204991   -0.236278
     14          8           0       -0.373381   -1.450111    1.024703
     15          1           0       -1.116494   -1.595959    1.628942
 ---------------------------------------------------------------------

 SCF Done:  E(UM062X) =  -420.197569622     A.U. after   22 cycles

 The electronic state is 2-A.
 Alpha  occ. eigenvalues --  -19.67970 -19.65987 -19.62694 -10.70850 -10.61620
 Alpha  occ. eigenvalues --  -10.60654 -10.60143 -10.53233  -1.25175  -1.16538
 Alpha  occ. eigenvalues --   -1.12215  -0.91470  -0.88121  -0.76694  -0.73950
 Alpha  occ. eigenvalues --   -0.65135  -0.62758  -0.59343  -0.56372  -0.54317
 Alpha  occ. eigenvalues --   -0.53366  -0.49583  -0.47649  -0.47182  -0.44805
 Alpha  occ. eigenvalues --   -0.42154  -0.41168  -0.40471  -0.37569  -0.36763
 Alpha  occ. eigenvalues --   -0.34024
 Alpha virt. eigenvalues --   -0.01165  -0.00769   0.00530   0.01027   0.02051
 Alpha virt. eigenvalues --    0.02434   0.03205   0.04666   0.05538   0.05928
 Alpha virt. eigenvalues --    0.07093   0.07384   0.08570   0.09394   0.09980

  Beta  occ. eigenvalues --  -19.67964 -19.64779 -19.62719 -10.70819 -10.61711
  Beta  occ. eigenvalues --  -10.60658 -10.59794 -10.53231  -1.25160  -1.16576
  Beta  occ. eigenvalues --   -1.07702  -0.90037  -0.88047  -0.76282  -0.73621
  Beta  occ. eigenvalues --   -0.64746  -0.62293  -0.58905  -0.56308  -0.52859
  Beta  occ. eigenvalues --   -0.52169  -0.47863  -0.47531  -0.44700  -0.42059
  Beta  occ. eigenvalues --   -0.41435  -0.39949  -0.38636  -0.37486  -0.35877
  Beta virt. eigenvalues --   -0.11107  -0.00686  -0.00191   0.00609   0.01311
  Beta virt. eigenvalues --    0.02304   0.02602   0.03427   0.04577   0.05733
  Beta virt. eigenvalues --    0.06037   0.07088   0.07427   0.08498   0.09453

 Mulliken charges and spin densities:
               1          2
     1  C   -0.331839   0.563243
     2  H    0.237157  -0.024527
     3  C    0.272982  -0.188974
     4  C    0.014755   0.034514
     5  O   -0.245608  -0.010574
     6  O   -0.022646  -0.000167
     7  C   -0.360981   0.008823
     8  C   -0.441416  -0.004784
     9  H    0.189164   0.003790
    10  H    0.210350   0.001135
    11  H    0.177305  -0.000487
    12  H    0.184816   0.000726
    13  H    0.150482  -0.000349
    14  O   -0.284305   0.630292
    15  H    0.249783  -0.012661
 Sum of Mulliken charges =  -0.00000   1.00000

 Dipole moment (field-independent basis, Debye):
    X=             -0.3553    Y=             -3.6706    Z=             -1.9974  Tot=              4.1939
 Quadrupole moment (field-independent basis, Debye-Ang):
   XX=            -40.2492   YY=            -53.1152   ZZ=            -44.0250
   XY=              7.7785   XZ=              0.9045   YZ=             -0.9280

  Exact polarizability:  86.680  -0.883  70.721  10.027   1.264  67.916
 Approx polarizability:  94.050   0.510  84.333  11.320   6.358  80.834

 ******    1 imaginary frequencies (negative Signs) ******

                      1                      2                      3
                      A                      A                      A
 Frequencies --   -642.5675                87.1867               103.8667
 Red. masses --     12.2792                 6.1043                 3.7247
 Frc consts  --      2.9872                 0.0273                 0.0237
 IR Inten    --     39.0213                 0.3405                 3.6312

                      4                      5                      6
                      A                      A                      A
 Frequencies --    108.7882               183.6210               191.3334
 Red. masses --      3.0810                 2.6362                 3.1050
 Frc consts  --      0.0215                 0.0524                 0.0670
 IR Inten    --      2.2770                40.9797                 3.2116

                      7                      8                      9
                      A                      A                      A
 Frequencies --    210.9738               232.7470               273.8735
 Red. masses --      1.3554                 1.5709                 2.6185
 Frc consts  --      0.0355                 0.0501                 0.1157
 IR Inten    --     35.7544                 0.9963                12.6878

                     10                     11                     12
                      A                      A                      A
 Frequencies --    364.6833               403.3006               545.9854
 Red. masses --      2.9434                 3.4036                 5.2076
 Frc consts  --      0.2306                 0.3262                 0.9146
 IR Inten    --      0.5453                 7.4789                23.7887

                     13                     14                     15
                      A                      A                      A
 Frequencies --    609.1319               624.1301               727.8908
 Red. masses --      1.3525                 5.2988                 1.6191
 Frc consts  --      0.2957                 1.2161                 0.5054
 IR Inten    --     31.7219                 3.3530                20.2748

                     16                     17                     18
                      A                      A                      A
 Frequencies --    736.0229               757.0055               816.9257
 Red. masses --      3.2225                 6.5363                 1.1467
 Frc consts  --      1.0286                 2.2069                 0.4509
 IR Inten    --     37.2369                 6.9185                 8.3618

                     19                     20                     21
                      A                      A                      A
 Frequencies --    853.8694               961.2307              1093.2538
 Red. masses --      1.1512                 2.1920                 4.1624
 Frc consts  --      0.4945                 1.1933                 2.9311
 IR Inten    --     75.2955                18.7965                61.2276

                     22                     23                     24
                      A                      A                      A
 Frequencies --   1139.4812              1178.9312              1279.8786
 Red. masses --      2.3247                 1.8103                 2.5524
 Frc consts  --      1.7784                 1.4825                 2.4634
 IR Inten    --     29.7555                49.7470               333.8364

                     25                     26                     27
                      A                      A                      A
 Frequencies --   1362.3006              1402.5928              1434.3924
 Red. masses --      1.4030                 1.2578                 1.3623
 Frc consts  --      1.5341                 1.4579                 1.6515
 IR Inten    --    143.8529                25.0450                16.8870

                     28                     29                     30
                      A                      A                      A
 Frequencies --   1488.5787              1503.3091              1530.8727
 Red. masses --      1.0378                 1.0469                 1.1003
 Frc consts  --      1.3550                 1.3939                 1.5193
 IR Inten    --      5.6026                 5.0753                 5.1485

                     31                     32                     33
                      A                      A                      A
 Frequencies --   1866.6790              2033.7616              3075.1295
 Red. masses --     12.8516                 6.5251                 1.0354
 Frc consts  --     26.3844                15.9014                 5.7688
 IR Inten    --    538.9956                79.1513                12.5650

                     34                     35                     36
                      A                      A                      A
 Frequencies --   3098.7155              3146.4283              3155.5173
 Red. masses --      1.0612                 1.1044                 1.1011
 Frc consts  --      6.0034                 6.4417                 6.4596
 IR Inten    --     20.9905                 5.8859                10.7926

                     37                     38                     39
                      A                      A                      A
 Frequencies --   3172.8210              3461.0082              3827.8188
 Red. masses --      1.1058                 1.1416                 1.0677
 Frc consts  --      6.5589                 8.0566                 9.2177
 IR Inten    --     13.7097                74.5033                61.4529

 - Thermochemistry -
 -------------------
 Temperature   298.150 Kelvin.  Pressure   1.00000 Atm.
 Atom     1 has atomic number  6 and mass  12.00000

 Molecular mass:   115.03952 amu.
 Principal axes and moments of inertia in atomic units:
                           1         2         3
     Eigenvalues --   679.612631074.675371399.45123
           X            0.99983   0.01821   0.00309
           Y           -0.01819   0.99982  -0.00453
           Z           -0.00318   0.00448   0.99998
 This molecule is an asymmetric top.
 Rotational symmetry number  1.
 Warning -- assumption of classical behavior for rotation
           may cause significant error
 Rotational temperatures (Kelvin)      0.12745     0.08060     0.06189
 Rotational constants (GHZ):           2.65554     1.67934     1.28961
    1 imaginary frequencies ignored.
 Zero-point vibrational energy     293348.5 (Joules/Mol)
                                   70.11197 (Kcal/Mol)
 Warning -- explicit consideration of  12 degrees of freedom as
           vibrations may cause significant error
 Vibrational temperatures:    125.44   149.44   156.52   264.19   275.29
          (Kelvin)            303.54   334.87   394.04   524.70   580.26
                              785.55   876.40   897.98  1047.27  1058.97
                             1089.16  1175.37  1228.53  1383.00  1572.95
                             1639.46  1696.22  1841.46  1960.05  2018.02
                             2063.77  2141.73  2162.93  2202.58  2685.73
                             2926.13  4424.43  4458.36  4527.01  4540.09
                             4564.98  4979.62  5507.38

 Zero-point correction=                           0.111731 (Hartree/Particle)
 Thermal correction to Energy=                    0.121173
 Thermal correction to Enthalpy=                  0.122117
 Thermal correction to Gibbs Free Energy=         0.076845
 Sum of electronic and zero-point Energies=           -420.085839
 Sum of electronic and thermal Energies=              -420.076397
 Sum of electronic and thermal Enthalpies=            -420.075453
 Sum of electronic and thermal Free Energies=         -420.120725

                     E (Thermal)             CV                S
                      KCal/Mol        Cal/Mol-Kelvin    Cal/Mol-Kelvin
 Total                   76.037             32.362             95.283
 Electronic               0.000              0.000              1.377
 Translational            0.889              2.981             40.136
 Rotational               0.889              2.981             28.415
 Vibrational             74.260             26.401             25.354
 Vibration     1          0.601              1.958              3.722
 Vibration     2          0.605              1.946              3.380
 Vibration     3          0.606              1.942              3.290
 Vibration     4          0.631              1.862              2.291
 Vibration     5          0.634              1.852              2.215
 Vibration     6          0.643              1.824              2.035
 Vibration     7          0.653              1.791              1.858
 Vibration     8          0.676              1.722              1.572
 Vibration     9          0.738              1.545              1.102
 Vibration    10          0.769              1.463              0.951
 Vibration    11          0.901              1.148              0.553
 Vibration    12          0.968              1.012              0.434

 Normal termination of Gaussian 16 at Fri Mar 28 06:33:29 2025.
