 Gaussian 16, Revision A.03,
 Gaussian 16:  ES64L-G16RevA.03 25-Dec-2016

 --------------------------
 # freq 6-311++g(d,p) m062x
 --------------------------

 -------------------
 Title Card Required
 -------------------
 Symbolic Z-matrix:
 Charge =  0 Multiplicity = 2

                         Standard orientation:
 ---------------------------------------------------------------------
 Center     Atomic      Atomic             Coordinates (Angstroms)
 Number     Number       Type             X           Y           Z
 ---------------------------------------------------------------------
      1          6           0       -2.101264   -1.065425   -0.848943
      2          1           0       -2.766594   -1.782843   -1.271500
      3          6           0       -1.306074   -0.311403   -0.328110
      4          6           0       -0.613042    0.936686    0.063794
      5          8           0       -1.223584    1.821236    0.584430
      6          8           0        0.680411    1.034259   -0.209826
      7          6           0        1.453593   -0.037890   -0.782154
      8          6           0        2.543893   -0.428324    0.191485
      9          1           0        0.811119   -0.886276   -1.017086
     10          1           0        1.866249    0.362425   -1.709488
     11          1           0        3.156759    0.438004    0.443878
     12          1           0        2.102953   -0.833917    1.101918
     13          1           0        3.183629   -1.189624   -0.259626
     14          8           0       -0.346041   -1.485984    1.038723
     15          1           0       -1.103033   -1.625721    1.628858
 ---------------------------------------------------------------------

 SCF Done:  E(UM062X) =  -420.196934955     A.U. after   24 cycles

 The electronic state is 2-A.
 Alpha  occ. eigenvalues --  -19.67887 -19.67038 -19.62549 -10.70772 -10.60643
 Alpha  occ. eigenvalues --  -10.60166 -10.59398 -10.53318  -1.25059  -1.16425
 Alpha  occ. eigenvalues --   -1.13114  -0.90960  -0.88108  -0.76558  -0.73864
 Alpha  occ. eigenvalues --   -0.64870  -0.62542  -0.59338  -0.56287  -0.54837
 Alpha  occ. eigenvalues --   -0.53232  -0.49933  -0.47648  -0.47376  -0.44882
 Alpha  occ. eigenvalues --   -0.42429  -0.41704  -0.40238  -0.37554  -0.36544
 Alpha  occ. eigenvalues --   -0.35174
 Alpha virt. eigenvalues --   -0.01295  -0.00751   0.00552   0.01018   0.02127
 Alpha virt. eigenvalues --    0.02430   0.03323   0.04717   0.05632   0.05937
 Alpha virt. eigenvalues --    0.07122   0.07396   0.08589   0.09418   0.10117

  Beta  occ. eigenvalues --  -19.67884 -19.65629 -19.62572 -10.70751 -10.60646
  Beta  occ. eigenvalues --  -10.60206 -10.59163 -10.53316  -1.25052  -1.16462
  Beta  occ. eigenvalues --   -1.07345  -0.89947  -0.88046  -0.76298  -0.73645
  Beta  occ. eigenvalues --   -0.64627  -0.62144  -0.58857  -0.56240  -0.52969
  Beta  occ. eigenvalues --   -0.52066  -0.47880  -0.47570  -0.44726  -0.42015
  Beta  occ. eigenvalues --   -0.40766  -0.39837  -0.38872  -0.37379  -0.35960
  Beta virt. eigenvalues --   -0.10909  -0.00688  -0.00360   0.00609   0.01297
  Beta virt. eigenvalues --    0.02332   0.02565   0.03487   0.04683   0.05774
  Beta virt. eigenvalues --    0.06082   0.07153   0.07471   0.08553   0.09471

 Mulliken charges and spin densities:
               1          2
     1  C   -0.681308   0.359503
     2  H    0.227297  -0.017793
     3  C    0.578636  -0.119640
     4  C    0.060217   0.032328
     5  O   -0.246248  -0.009762
     6  O   -0.023007  -0.000713
     7  C   -0.364281   0.010029
     8  C   -0.439610  -0.003516
     9  H    0.183147   0.001175
    10  H    0.210217   0.001411
    11  H    0.177874  -0.000453
    12  H    0.179949   0.000557
    13  H    0.152327  -0.000572
    14  O   -0.265590   0.765165
    15  H    0.250381  -0.017719
 Sum of Mulliken charges =  -0.00000   1.00000

 Dipole moment (field-independent basis, Debye):
    X=             -0.1888    Y=             -3.7962    Z=             -1.7927  Tot=              4.2024
 Quadrupole moment (field-independent basis, Debye-Ang):
   XX=            -40.6455   YY=            -52.7604   ZZ=            -43.9015
   XY=              7.8267   XZ=              0.7111   YZ=             -1.4113

  Exact polarizability:  86.835  -0.594  71.296   9.999   1.447  68.184
 Approx polarizability:  93.211   2.435  85.089   9.760   8.200  78.942

 ******    1 imaginary frequencies (negative Signs) ******

                      1                      2                      3
                      A                      A                      A
 Frequencies --   -456.7121                76.6121                88.7569
 Red. masses --     11.8655                 7.1342                 4.9463
 Frc consts  --      1.4582                 0.0247                 0.0230
 IR Inten    --     61.7014                 4.1726                 1.4068

                      4                      5                      6
                      A                      A                      A
 Frequencies --    109.4728               152.2559               178.4945
 Red. masses --      2.5972                 6.5561                 2.2796
 Frc consts  --      0.0183                 0.0895                 0.0428
 IR Inten    --      0.6564                13.1245                13.6121

                      7                      8                      9
                      A                      A                      A
 Frequencies --    209.5040               226.9674               259.9434
 Red. masses --      1.5814                 1.3746                 1.9580
 Frc consts  --      0.0409                 0.0417                 0.0780
 IR Inten    --     35.2866                 0.7562                29.4447

                     10                     11                     12
                      A                      A                      A
 Frequencies --    354.4678               400.6801               546.5170
 Red. masses --      2.9156                 3.3680                 5.8053
 Frc consts  --      0.2158                 0.3186                 1.0216
 IR Inten    --      0.3966                 7.6928                20.1025

                     13                     14                     15
                      A                      A                      A
 Frequencies --    621.2572               685.9943               721.8533
 Red. masses --      4.9134                 1.3316                 1.5712
 Frc consts  --      1.1173                 0.3692                 0.4824
 IR Inten    --     11.5973                28.2222                14.5865

                     16                     17                     18
                      A                      A                      A
 Frequencies --    741.8805               750.2872               760.7365
 Red. masses --      1.9119                 1.5659                 5.7377
 Frc consts  --      0.6200                 0.5193                 1.9564
 IR Inten    --     58.7378                52.8058                23.0357

                     19                     20                     21
                      A                      A                      A
 Frequencies --    816.8807               962.2796              1094.9958
 Red. masses --      1.1552                 2.1900                 4.0810
 Frc consts  --      0.4542                 1.1948                 2.8830
 IR Inten    --      8.0426                17.5811                59.1821

                     22                     23                     24
                      A                      A                      A
 Frequencies --   1139.7619              1178.5646              1281.3674
 Red. masses --      2.3774                 1.8010                 2.5491
 Frc consts  --      1.8197                 1.4739                 2.4659
 IR Inten    --     32.8713                48.0246               341.0895

                     25                     26                     27
                      A                      A                      A
 Frequencies --   1361.5701              1403.1323              1434.7704
 Red. masses --      1.4072                 1.2580                 1.3623
 Frc consts  --      1.5371                 1.4593                 1.6523
 IR Inten    --    146.4690                25.9263                16.0536

                     28                     29                     30
                      A                      A                      A
 Frequencies --   1488.4946              1502.8762              1527.9293
 Red. masses --      1.0378                 1.0480                 1.1009
 Frc consts  --      1.3548                 1.3946                 1.5143
 IR Inten    --      5.6578                 4.9817                 5.4738

                     31                     32                     33
                      A                      A                      A
 Frequencies --   1864.1471              2127.8012              3075.4613
 Red. masses --     12.9214                 6.1671                 1.0354
 Frc consts  --     26.4558                16.4510                 5.7700
 IR Inten    --    536.0586                95.0448                12.0480

                     34                     35                     36
                      A                      A                      A
 Frequencies --   3097.6929              3145.7167              3154.6840
 Red. masses --      1.0607                 1.1049                 1.1011
 Frc consts  --      5.9967                 6.4421                 6.4567
 IR Inten    --     20.5000                 4.7312                11.8044

                     37                     38                     39
                      A                      A                      A
 Frequencies --   3171.8084              3471.6830              3815.2743
 Red. masses --      1.1057                 1.1529                 1.0676
 Frc consts  --      6.5538                 8.1870                 9.1557
 IR Inten    --     14.9336                70.8544                53.0218

 - Thermochemistry -
 -------------------
 Temperature   298.150 Kelvin.  Pressure   1.00000 Atm.
 Atom     1 has atomic number  6 and mass  12.00000

 Molecular mass:   115.03952 amu.
 Principal axes and moments of inertia in atomic units:
                           1         2         3
     Eigenvalues --   688.463861080.706041405.18453
           X            0.99980   0.01968   0.00254
           Y           -0.01966   0.99979  -0.00504
           Z           -0.00264   0.00499   0.99998
 This molecule is an asymmetric top.
 Rotational symmetry number  1.
 Warning -- assumption of classical behavior for rotation
           may cause significant error
 Rotational temperatures (Kelvin)      0.12581     0.08015     0.06164
 Rotational constants (GHZ):           2.62140     1.66996     1.28434
    1 imaginary frequencies ignored.
 Zero-point vibrational energy     293100.5 (Joules/Mol)
                                   70.05269 (Kcal/Mol)
 Warning -- explicit consideration of  11 degrees of freedom as
           vibrations may cause significant error
 Vibrational temperatures:    110.23   127.70   157.51   219.06   256.81
          (Kelvin)            301.43   326.56   374.00   510.00   576.49
                              786.32   893.85   986.99  1038.59  1067.40
                             1079.50  1094.53  1175.31  1384.51  1575.45
                             1639.86  1695.69  1843.60  1959.00  2018.79
                             2064.31  2141.61  2162.30  2198.35  2682.09
                             3061.43  4424.90  4456.89  4525.98  4538.89
                             4563.52  4994.98  5489.33

 Zero-point correction=                           0.111636 (Hartree/Particle)
 Thermal correction to Energy=                    0.121236
 Thermal correction to Enthalpy=                  0.122180
 Thermal correction to Gibbs Free Energy=         0.076326
 Sum of electronic and zero-point Energies=           -420.085299
 Sum of electronic and thermal Energies=              -420.075699
 Sum of electronic and thermal Enthalpies=            -420.074755
 Sum of electronic and thermal Free Energies=         -420.120609

                     E (Thermal)             CV                S
                      KCal/Mol        Cal/Mol-Kelvin    Cal/Mol-Kelvin
 Total                   76.077             32.504             96.510
 Electronic               0.000              0.000              1.377
 Translational            0.889              2.981             40.136
 Rotational               0.889              2.981             28.438
 Vibrational             74.299             26.542             26.559
 Vibration     1          0.599              1.965              3.976
 Vibration     2          0.602              1.957              3.687
 Vibration     3          0.606              1.942              3.278
 Vibration     4          0.619              1.900              2.644
 Vibration     5          0.629              1.869              2.344
 Vibration     6          0.642              1.826              2.048
 Vibration     7          0.651              1.800              1.903
 Vibration     8          0.668              1.746              1.662
 Vibration     9          0.730              1.566              1.146
 Vibration    10          0.767              1.469              0.960
 Vibration    11          0.902              1.147              0.551

 Normal termination of Gaussian 16 at Fri Mar 28 07:11:54 2025.
