 Gaussian 16, Revision A.03,
 Gaussian 16:  ES64L-G16RevA.03 25-Dec-2016

 --------------------------
 # freq 6-311++g(d,p) m062x
 --------------------------

 -------------------
 Title Card Required
 -------------------
 Symbolic Z-matrix:
 Charge =  0 Multiplicity = 2

                         Standard orientation:
 ---------------------------------------------------------------------
 Center     Atomic      Atomic             Coordinates (Angstroms)
 Number     Number       Type             X           Y           Z
 ---------------------------------------------------------------------
      1          6           0       -2.106485   -1.052744   -0.847053
      2          1           0       -2.776627   -1.765874   -1.270926
      3          6           0       -1.257027   -0.380596   -0.239392
      4          6           0       -0.603515    0.937094    0.047238
      5          8           0       -1.216863    1.837692    0.534376
      6          8           0        0.689396    1.025950   -0.228144
      7          6           0        1.460750   -0.063792   -0.772001
      8          6           0        2.539341   -0.444119    0.217790
      9          1           0        0.816965   -0.913290   -0.997367
     10          1           0        1.883018    0.317256   -1.703039
     11          1           0        3.157513    0.421896    0.458206
     12          1           0        2.085514   -0.829988    1.130269
     13          1           0        3.176141   -1.218651   -0.214690
     14          8           0       -0.399097   -1.416059    1.010104
     15          1           0       -1.128383   -1.567072    1.627365
 ---------------------------------------------------------------------

 SCF Done:  E(UM062X) =  -420.202240124     A.U. after   21 cycles

 The electronic state is 2-A.
 Alpha  occ. eigenvalues --  -19.67987 -19.65379 -19.62767 -10.70772 -10.63080
 Alpha  occ. eigenvalues --  -10.60660 -10.60585 -10.53178  -1.25200  -1.16562
 Alpha  occ. eigenvalues --   -1.11875  -0.91674  -0.88112  -0.76742  -0.73972
 Alpha  occ. eigenvalues --   -0.65270  -0.62760  -0.59445  -0.56393  -0.54415
 Alpha  occ. eigenvalues --   -0.53342  -0.49382  -0.47650  -0.47008  -0.44793
 Alpha  occ. eigenvalues --   -0.42127  -0.40823  -0.40497  -0.37573  -0.36795
 Alpha  occ. eigenvalues --   -0.32881
 Alpha virt. eigenvalues --   -0.00915  -0.00780   0.00518   0.00933   0.02126
 Alpha virt. eigenvalues --    0.02456   0.03142   0.04627   0.05465   0.05918
 Alpha virt. eigenvalues --    0.07123   0.07384   0.08597   0.09367   0.09880

  Beta  occ. eigenvalues --  -19.67978 -19.64456 -19.62788 -10.70731 -10.63214
  Beta  occ. eigenvalues --  -10.60663 -10.60107 -10.53177  -1.25172  -1.16589
  Beta  occ. eigenvalues --   -1.08588  -0.89847  -0.88011  -0.76155  -0.73482
  Beta  occ. eigenvalues --   -0.64768  -0.62220  -0.58996  -0.56290  -0.52930
  Beta  occ. eigenvalues --   -0.52735  -0.47859  -0.47446  -0.44715  -0.42798
  Beta  occ. eigenvalues --   -0.41925  -0.39820  -0.38889  -0.37565  -0.35677
  Beta virt. eigenvalues --   -0.10608  -0.00707  -0.00141   0.00636   0.01351
  Beta virt. eigenvalues --    0.02322   0.02668   0.03426   0.04524   0.05711
  Beta virt. eigenvalues --    0.05995   0.07095   0.07367   0.08482   0.09429

 Mulliken charges and spin densities:
               1          2
     1  C   -0.115209   0.768437
     2  H    0.241476  -0.029964
     3  C    0.073680  -0.242239
     4  C   -0.002705   0.043411
     5  O   -0.246166  -0.008305
     6  O   -0.023831   0.000843
     7  C   -0.353007   0.008091
     8  C   -0.446470  -0.005220
     9  H    0.191450   0.005033
    10  H    0.210594   0.000712
    11  H    0.177148  -0.000447
    12  H    0.188070   0.000644
    13  H    0.149018  -0.000100
    14  O   -0.299028   0.464777
    15  H    0.254980  -0.005673
 Sum of Mulliken charges =  -0.00000   1.00000

 Dipole moment (field-independent basis, Debye):
    X=             -0.4323    Y=             -3.6259    Z=             -2.0604  Tot=              4.1928
 Quadrupole moment (field-independent basis, Debye-Ang):
   XX=            -40.2018   YY=            -53.3633   ZZ=            -44.1455
   XY=              7.6841   XZ=              0.8802   YZ=             -0.6807

  Exact polarizability:  85.193  -0.463  69.619   8.430   2.003  65.719
 Approx polarizability:  93.008  -0.770  83.038  10.797   5.288  80.483

 ******    1 imaginary frequencies (negative Signs) ******

                      1                      2                      3
                      A                      A                      A
 Frequencies --   -649.9043                87.0321               105.7953
 Red. masses --     12.2449                 5.6697                 2.6202
 Frc consts  --      3.0472                 0.0253                 0.0173
 IR Inten    --      0.4992                 0.3661                 0.5930

                      4                      5                      6
                      A                      A                      A
 Frequencies --    120.7487               177.5639               209.9207
 Red. masses --      4.1480                 1.1955                 1.4416
 Frc consts  --      0.0356                 0.0222                 0.0374
 IR Inten    --      4.2316                82.6212                 4.6296

                      7                      8                      9
                      A                      A                      A
 Frequencies --    221.9938               243.0107               291.8004
 Red. masses --      9.1208                 2.0641                 2.4320
 Frc consts  --      0.2648                 0.0718                 0.1220
 IR Inten    --      1.9926                 3.2240                 9.1920

                     10                     11                     12
                      A                      A                      A
 Frequencies --    374.5825               407.8319               453.0037
 Red. masses --      2.8391                 3.3970                 1.5742
 Frc consts  --      0.2347                 0.3329                 0.1903
 IR Inten    --      3.1519                 4.8747                34.8470

                     13                     14                     15
                      A                      A                      A
 Frequencies --    553.8254               630.6445               719.1730
 Red. masses --      6.0170                 4.8246                 1.3775
 Frc consts  --      1.0874                 1.1305                 0.4198
 IR Inten    --     21.2529                 4.0858                35.5974

                     16                     17                     18
                      A                      A                      A
 Frequencies --    739.9500               755.8708               816.3797
 Red. masses --      5.0463                 7.9925                 1.1432
 Frc consts  --      1.6279                 2.6905                 0.4489
 IR Inten    --     14.7930                 8.1152                 8.4587

                     19                     20                     21
                      A                      A                      A
 Frequencies --    954.1464               964.4444              1091.8552
 Red. masses --      1.3970                 1.6383                 4.2020
 Frc consts  --      0.7493                 0.8978                 2.9515
 IR Inten    --     41.8013                38.7848                59.9255

                     22                     23                     24
                      A                      A                      A
 Frequencies --   1139.4753              1178.9047              1278.9067
 Red. masses --      2.2964                 1.8151                 2.5436
 Frc consts  --      1.7567                 1.4863                 2.4512
 IR Inten    --     27.7018                52.5055               333.9019

                     25                     26                     27
                      A                      A                      A
 Frequencies --   1362.0838              1401.9187              1433.7159
 Red. masses --      1.4044                 1.2575                 1.3635
 Frc consts  --      1.5351                 1.4562                 1.6513
 IR Inten    --    145.3771                24.0508                16.2231

                     28                     29                     30
                      A                      A                      A
 Frequencies --   1488.7484              1503.7860              1532.8417
 Red. masses --      1.0378                 1.0460                 1.0993
 Frc consts  --      1.3553                 1.3936                 1.5217
 IR Inten    --      5.4540                 4.7711                 4.6657

                     31                     32                     33
                      A                      A                      A
 Frequencies --   1866.4764              1928.1236              3074.9617
 Red. masses --     12.3643                 7.0008                 1.0354
 Frc consts  --     25.3784                15.3345                 5.7684
 IR Inten    --    521.3008                40.5740                13.0709

                     34                     35                     36
                      A                      A                      A
 Frequencies --   3099.3953              3146.5865              3156.3114
 Red. masses --      1.0616                 1.1040                 1.1010
 Frc consts  --      6.0084                 6.4401                 6.4622
 IR Inten    --     21.4410                 6.7396                10.4597

                     37                     38                     39
                      A                      A                      A
 Frequencies --   3173.8061              3450.4397              3844.0336
 Red. masses --      1.1058                 1.1314                 1.0678
 Frc consts  --      6.5628                 7.9362                 9.2965
 IR Inten    --     12.7690                80.9534                65.4792

 - Thermochemistry -
 -------------------
 Temperature   298.150 Kelvin.  Pressure   1.00000 Atm.
 Atom     1 has atomic number  6 and mass  12.00000

 Molecular mass:   115.03952 amu.
 Principal axes and moments of inertia in atomic units:
                           1         2         3
     Eigenvalues --   671.625071069.201101394.28063
           X            0.99985   0.01699   0.00353
           Y           -0.01698   0.99985  -0.00402
           Z           -0.00359   0.00396   0.99999
 This molecule is an asymmetric top.
 Rotational symmetry number  1.
 Warning -- assumption of classical behavior for rotation
           may cause significant error
 Rotational temperatures (Kelvin)      0.12896     0.08101     0.06212
 Rotational constants (GHZ):           2.68713     1.68793     1.29439
    1 imaginary frequencies ignored.
 Zero-point vibrational energy     292966.0 (Joules/Mol)
                                   70.02055 (Kcal/Mol)
 Warning -- explicit consideration of  12 degrees of freedom as
           vibrations may cause significant error
 Vibrational temperatures:    125.22   152.22   173.73   255.47   302.03
          (Kelvin)            319.40   349.64   419.84   538.94   586.78
                              651.77   796.83   907.36  1034.73  1064.62
                             1087.53  1174.59  1372.80  1387.62  1570.94
                             1639.45  1696.18  1840.06  1959.73  2017.05
                             2062.80  2141.98  2163.61  2205.42  2685.44
                             2774.14  4424.18  4459.34  4527.24  4541.23
                             4566.40  4964.41  5530.71

 Zero-point correction=                           0.111585 (Hartree/Particle)
 Thermal correction to Energy=                    0.120993
 Thermal correction to Enthalpy=                  0.121937
 Thermal correction to Gibbs Free Energy=         0.076864
 Sum of electronic and zero-point Energies=           -420.090655
 Sum of electronic and thermal Energies=              -420.081248
 Sum of electronic and thermal Enthalpies=            -420.080303
 Sum of electronic and thermal Free Energies=         -420.125376

                     E (Thermal)             CV                S
                      KCal/Mol        Cal/Mol-Kelvin    Cal/Mol-Kelvin
 Total                   75.924             32.426             94.863
 Electronic               0.000              0.000              1.377
 Translational            0.889              2.981             40.136
 Rotational               0.889              2.981             28.395
 Vibrational             74.147             26.465             24.955
 Vibration     1          0.601              1.958              3.726
 Vibration     2          0.605              1.945              3.345
 Vibration     3          0.609              1.932              3.088
 Vibration     4          0.628              1.870              2.354
 Vibration     5          0.642              1.826              2.044
 Vibration     6          0.648              1.808              1.943
 Vibration     7          0.659              1.774              1.781
 Vibration     8          0.687              1.689              1.463
 Vibration     9          0.746              1.524              1.061
 Vibration    10          0.772              1.453              0.934
 Vibration    11          0.812              1.354              0.787
 Vibration    12          0.909              1.131              0.536

 Normal termination of Gaussian 16 at Fri Mar 28 05:55:21 2025.
