 Gaussian 16, Revision A.03,
 Gaussian 16:  ES64L-G16RevA.03 25-Dec-2016

 --------------------------
 # freq 6-311++g(d,p) m062x
 --------------------------

 -------------------
 Title Card Required
 -------------------
 Symbolic Z-matrix:
 Charge =  0 Multiplicity = 2

                         Standard orientation:
 ---------------------------------------------------------------------
 Center     Atomic      Atomic             Coordinates (Angstroms)
 Number     Number       Type             X           Y           Z
 ---------------------------------------------------------------------
      1          6           0        1.842921   -0.125982    0.852185
      2          1           0        2.559070   -0.400105    1.607736
      3          6           0        0.777601    0.519895    0.640814
      4          6           0       -0.338985    1.171356   -0.028111
      5          8           0       -0.201573    2.236702   -0.564862
      6          8           0       -1.517843    0.548504    0.005918
      7          6           0       -1.624965   -0.789373    0.529296
      8          6           0       -1.158157   -1.815902   -0.483319
      9          1           0       -1.068889   -0.859739    1.467517
     10          1           0       -2.685564   -0.896713    0.750339
     11          1           0       -1.719337   -1.706825   -1.412626
     12          1           0       -0.091432   -1.711888   -0.695463
     13          1           0       -1.330793   -2.820237   -0.090739
     14          8           0        2.330899   -0.932535   -0.624317
     15          1           0        2.454591   -0.185822   -1.225886
 ---------------------------------------------------------------------

 SCF Done:  E(UM062X) =  -420.215581810     A.U. after   19 cycles

 The electronic state is 2-A.
 Alpha  occ. eigenvalues --  -19.68508 -19.65696 -19.63702 -10.71277 -10.63990
 Alpha  occ. eigenvalues --  -10.61612 -10.61385 -10.54139  -1.25757  -1.17346
 Alpha  occ. eigenvalues --   -1.12110  -0.92155  -0.88619  -0.78513  -0.74927
 Alpha  occ. eigenvalues --   -0.64992  -0.62415  -0.59039  -0.58042  -0.55410
 Alpha  occ. eigenvalues --   -0.53508  -0.50598  -0.49084  -0.47491  -0.46021
 Alpha  occ. eigenvalues --   -0.43093  -0.41420  -0.40281  -0.39006  -0.37020
 Alpha  occ. eigenvalues --   -0.33014
 Alpha virt. eigenvalues --   -0.00898  -0.00108   0.00453   0.00621   0.01830
 Alpha virt. eigenvalues --    0.02226   0.03255   0.04190   0.05388   0.05910
 Alpha virt. eigenvalues --    0.07086   0.07865   0.08183   0.08876   0.09669

  Beta  occ. eigenvalues --  -19.68511 -19.65092 -19.63416 -10.71355 -10.64156
  Beta  occ. eigenvalues --  -10.61608 -10.60839 -10.54138  -1.25532  -1.16787
  Beta  occ. eigenvalues --   -1.09950  -0.89873  -0.88598  -0.78141  -0.74563
  Beta  occ. eigenvalues --   -0.64700  -0.62048  -0.58613  -0.56954  -0.54136
  Beta  occ. eigenvalues --   -0.53170  -0.49310  -0.47192  -0.45973  -0.44990
  Beta  occ. eigenvalues --   -0.42689  -0.40179  -0.39080  -0.37947  -0.35968
  Beta virt. eigenvalues --   -0.11843  -0.00803   0.00517   0.00632   0.01417
  Beta virt. eigenvalues --    0.02215   0.02837   0.03705   0.04347   0.05368
  Beta virt. eigenvalues --    0.06246   0.06907   0.08077   0.08285   0.09125

 Mulliken charges and spin densities:
               1          2
     1  C   -0.297031  -0.226892
     2  H    0.241195   0.023817
     3  C    0.524685   0.780064
     4  C   -0.226829  -0.043228
     5  O   -0.247612   0.151558
     6  O   -0.028925   0.005990
     7  C   -0.383254   0.002250
     8  C   -0.395312  -0.003105
     9  H    0.157575   0.003322
    10  H    0.209297  -0.000914
    11  H    0.179219   0.000614
    12  H    0.178751   0.002046
    13  H    0.160331  -0.000440
    14  O   -0.322946   0.309513
    15  H    0.250858  -0.004594
 Sum of Mulliken charges =  -0.00000   1.00000

 Dipole moment (field-independent basis, Debye):
    X=              0.1553    Y=             -2.4719    Z=              2.2824  Tot=              3.3681
 Quadrupole moment (field-independent basis, Debye-Ang):
   XX=            -45.5505   YY=            -56.3725   ZZ=            -43.9016
   XY=              6.9490   XZ=              0.7537   YZ=              0.2633

  Exact polarizability:  81.210  -6.884  76.248  -1.521  -1.239  61.726
 Approx polarizability:  90.145 -12.514  91.024  -1.717  -4.342  75.617

 ******    1 imaginary frequencies (negative Signs) ******

                      1                      2                      3
                      A                      A                      A
 Frequencies --   -554.4134                85.9959               114.3452
 Red. masses --     11.5856                 4.9770                 4.9088
 Frc consts  --      2.0981                 0.0217                 0.0378
 IR Inten    --     14.6650                 0.2844                12.5999

                      4                      5                      6
                      A                      A                      A
 Frequencies --    134.4229               153.6378               186.5582
 Red. masses --      4.4232                 4.2536                 1.1196
 Frc consts  --      0.0471                 0.0592                 0.0230
 IR Inten    --      1.3285                 9.8277                81.0302

                      7                      8                      9
                      A                      A                      A
 Frequencies --    244.1020               284.1602               351.8014
 Red. masses --      1.1766                 2.5907                 2.9168
 Frc consts  --      0.0413                 0.1233                 0.2127
 IR Inten    --     12.8209                 9.6155                 1.2155

                     10                     11                     12
                      A                      A                      A
 Frequencies --    396.9409               429.5230               561.7653
 Red. masses --      5.0259                 4.0722                 5.1347
 Frc consts  --      0.4666                 0.4426                 0.9547
 IR Inten    --      7.4277                 5.6007                23.0419

                     13                     14                     15
                      A                      A                      A
 Frequencies --    634.1704               714.9564               754.8889
 Red. masses --      6.1955                11.9548                 1.4309
 Frc consts  --      1.4680                 3.6004                 0.4804
 IR Inten    --      0.4572                18.5951                26.7725

                     16                     17                     18
                      A                      A                      A
 Frequencies --    761.2605               818.9367               947.7472
 Red. masses --      3.7502                 1.1579                 2.2140
 Frc consts  --      1.2805                 0.4575                 1.1717
 IR Inten    --      6.5944                 3.7667                 7.0461

                     19                     20                     21
                      A                      A                      A
 Frequencies --    997.2860              1080.0448              1108.8073
 Red. masses --      1.1444                 1.2110                 2.9645
 Frc consts  --      0.6706                 0.8323                 2.1474
 IR Inten    --     46.1790                42.8300                37.7030

                     22                     23                     24
                      A                      A                      A
 Frequencies --   1131.8639              1182.0570              1255.8899
 Red. masses --      2.4319                 1.9261                 2.9242
 Frc consts  --      1.8356                 1.5857                 2.7175
 IR Inten    --     39.8395                63.1894               350.9241

                     25                     26                     27
                      A                      A                      A
 Frequencies --   1345.9407              1408.0160              1434.1790
 Red. masses --      1.2400                 1.2750                 1.3412
 Frc consts  --      1.3235                 1.4893                 1.6254
 IR Inten    --    108.1385                19.0997                17.0487

                     28                     29                     30
                      A                      A                      A
 Frequencies --   1497.0364              1508.4849              1527.9840
 Red. masses --      1.0431                 1.0481                 1.0972
 Frc consts  --      1.3773                 1.4051                 1.5092
 IR Inten    --      3.6068                 3.7802                14.7077

                     31                     32                     33
                      A                      A                      A
 Frequencies --   1792.9427              1882.1910              3065.3237
 Red. masses --     12.8089                 7.6353                 1.0358
 Frc consts  --     24.2602                15.9368                 5.7341
 IR Inten    --    406.4079                60.2632                 8.4316

                     34                     35                     36
                      A                      A                      A
 Frequencies --   3086.9475              3139.1544              3148.3248
 Red. masses --      1.0659                 1.1034                 1.1004
 Frc consts  --      5.9845                 6.4061                 6.4263
 IR Inten    --     19.0840                 1.8484                12.8124

                     37                     38                     39
                      A                      A                      A
 Frequencies --   3162.9239              3317.2597              3847.1915
 Red. masses --      1.1039                 1.1160                 1.0679
 Frc consts  --      6.5067                 7.2357                 9.3123
 IR Inten    --     16.7688                20.8090                68.6820

 - Thermochemistry -
 -------------------
 Temperature   298.150 Kelvin.  Pressure   1.00000 Atm.
 Atom     1 has atomic number  6 and mass  12.00000

 Molecular mass:   115.03952 amu.
 Principal axes and moments of inertia in atomic units:
                           1         2         3
     Eigenvalues --   786.016541032.179141528.91961
           X            0.99179   0.12787   0.00103
           Y           -0.12787   0.99174   0.01050
           Z            0.00033  -0.01055   0.99994
 This molecule is an asymmetric top.
 Rotational symmetry number  1.
 Warning -- assumption of classical behavior for rotation
           may cause significant error
 Rotational temperatures (Kelvin)      0.11019     0.08391     0.05665
 Rotational constants (GHZ):           2.29606     1.74848     1.18040
    1 imaginary frequencies ignored.
 Zero-point vibrational energy     296046.2 (Joules/Mol)
                                   70.75674 (Kcal/Mol)
 Warning -- explicit consideration of  11 degrees of freedom as
           vibrations may cause significant error
 Vibrational temperatures:    123.73   164.52   193.40   221.05   268.42
          (Kelvin)            351.21   408.84   506.16   571.11   617.99
                              808.25   912.43  1028.66  1086.12  1095.28
                             1178.27  1363.60  1434.87  1553.94  1595.33
                             1628.50  1700.72  1806.95  1936.51  2025.82
                             2063.46  2153.90  2170.37  2198.43  2579.64
                             2708.05  4410.32  4441.43  4516.54  4529.74
                             4550.74  4772.80  5535.25

 Zero-point correction=                           0.112758 (Hartree/Particle)
 Thermal correction to Energy=                    0.121752
 Thermal correction to Enthalpy=                  0.122696
 Thermal correction to Gibbs Free Energy=         0.078244
 Sum of electronic and zero-point Energies=           -420.102824
 Sum of electronic and thermal Energies=              -420.093830
 Sum of electronic and thermal Enthalpies=            -420.092886
 Sum of electronic and thermal Free Energies=         -420.137338

                     E (Thermal)             CV                S
                      KCal/Mol        Cal/Mol-Kelvin    Cal/Mol-Kelvin
 Total                   76.400             31.019             93.557
 Electronic               0.000              0.000              1.377
 Translational            0.889              2.981             40.136
 Rotational               0.889              2.981             28.608
 Vibrational             74.623             25.058             23.436
 Vibration     1          0.601              1.959              3.749
 Vibration     2          0.607              1.938              3.194
 Vibration     3          0.613              1.919              2.882
 Vibration     4          0.619              1.899              2.627
 Vibration     5          0.632              1.858              2.262
 Vibration     6          0.659              1.773              1.773
 Vibration     7          0.683              1.703              1.508
 Vibration     8          0.728              1.572              1.158
 Vibration     9          0.763              1.477              0.974
 Vibration    10          0.791              1.406              0.860
 Vibration    11          0.917              1.114              0.520

 1\1\GINC-AJ\Freq\UM062X\6-311++G(d,p)\C5H7O3(2)\AAYUSH\29-Mar-2025\0\\
 # freq 6-311++g(d,p) m062x\\Title Card Required\\0,2\C,1.823236,-0.164
 358,0.870445\H,2.537542,-0.417678,1.634949\C,0.751837,0.465351,0.64172
 8\C,-0.367865,1.092603,-0.044893\O,-0.239409,2.150639,-0.59807\O,-1.53
 9539,0.456483,-0.008266\C,-1.634424,-0.873888,0.536183\C,-1.148931,-1.
 911139,-0.456524\H,-1.083773,-0.922418,1.478976\H,-2.695129,-0.990162,
 0.752139\H,-1.705198,-1.823821,-1.39107\H,-0.08212,-1.797973,-0.663489
 \H,-1.31237,-2.910935,-0.048718\O,2.330384,-0.988964,-0.589533\H,2.449

 Normal termination of Gaussian 16 at Sat Mar 29 03:00:55 2025.
