 Gaussian 16, Revision A.03,
 Gaussian 16:  ES64L-G16RevA.03 25-Dec-2016

 --------------------------
 # freq 6-311++g(d,p) m062x
 --------------------------

 -------------------
 Title Card Required
 -------------------
 Symbolic Z-matrix:
 Charge =  0 Multiplicity = 2

                         Standard orientation:
 ---------------------------------------------------------------------
 Center     Atomic      Atomic             Coordinates (Angstroms)
 Number     Number       Type             X           Y           Z
 ---------------------------------------------------------------------
      1          6           0        1.744054    0.091019    1.141281
      2          1           0        2.593346   -0.301960    1.649206
      3          6           0        0.760875    0.557946    0.627786
      4          6           0       -0.371574    1.164988   -0.076319
      5          8           0       -0.255133    2.208151   -0.649848
      6          8           0       -1.530389    0.508245   -0.036011
      7          6           0       -1.611495   -0.812013    0.536361
      8          6           0       -1.105964   -1.862305   -0.432613
      9          1           0       -1.065587   -0.833529    1.481757
     10          1           0       -2.672282   -0.938362    0.746061
     11          1           0       -1.655770   -1.801417   -1.373067
     12          1           0       -0.039846   -1.738963   -0.633099
     13          1           0       -1.259065   -2.855913   -0.006028
     14          8           0        2.423670   -0.989586   -0.735637
     15          1           0        2.498638   -0.182138   -1.271854
 ---------------------------------------------------------------------

 SCF Done:  E(UM062X) =  -420.201440148     A.U. after   23 cycles

 The electronic state is 2-A.
 Alpha  occ. eigenvalues --  -19.68480 -19.68406 -19.63179 -10.71128 -10.61358
 Alpha  occ. eigenvalues --  -10.58998 -10.58398 -10.54037  -1.25509  -1.16964
 Alpha  occ. eigenvalues --   -1.14190  -0.90454  -0.88451  -0.77664  -0.74024
 Alpha  occ. eigenvalues --   -0.64425  -0.62291  -0.58547  -0.57208  -0.56277
 Alpha  occ. eigenvalues --   -0.53179  -0.51347  -0.49382  -0.47185  -0.46044
 Alpha  occ. eigenvalues --   -0.43622  -0.42161  -0.40282  -0.38551  -0.36895
 Alpha  occ. eigenvalues --   -0.36425
 Alpha virt. eigenvalues --   -0.01981  -0.00786   0.00480   0.00958   0.01868
 Alpha virt. eigenvalues --    0.02335   0.03537   0.04463   0.05534   0.05918
 Alpha virt. eigenvalues --    0.07189   0.07960   0.08368   0.09239   0.09707

  Beta  occ. eigenvalues --  -19.68405 -19.66920 -19.63133 -10.71143 -10.61358
  Beta  occ. eigenvalues --  -10.59006 -10.58284 -10.54038  -1.25473  -1.16873
  Beta  occ. eigenvalues --   -1.06744  -0.89962  -0.88446  -0.77604  -0.73929
  Beta  occ. eigenvalues --   -0.64364  -0.62139  -0.58464  -0.57019  -0.53438
  Beta  occ. eigenvalues --   -0.52944  -0.49612  -0.47159  -0.45903  -0.42513
  Beta  occ. eigenvalues --   -0.40803  -0.39635  -0.39186  -0.37800  -0.36683
  Beta virt. eigenvalues --   -0.10150  -0.01298  -0.00603   0.00664   0.01352
  Beta virt. eigenvalues --    0.01999   0.02526   0.03663   0.04604   0.05600
  Beta virt. eigenvalues --    0.06180   0.07241   0.08049   0.08527   0.09507

 Mulliken charges and spin densities:
               1          2
     1  C   -1.151027   0.001728
     2  H    0.229996   0.009529
     3  C    1.192258   0.088604
     4  C   -0.085602  -0.014078
     5  O   -0.255361   0.024257
     6  O   -0.029919   0.001214
     7  C   -0.383505  -0.009509
     8  C   -0.407210   0.006405
     9  H    0.159956   0.002256
    10  H    0.209299  -0.000824
    11  H    0.181019  -0.000476
    12  H    0.182819  -0.001049
    13  H    0.156795   0.000278
    14  O   -0.244965   0.908863
    15  H    0.245446  -0.017200
 Sum of Mulliken charges =  -0.00000   1.00000

 Dipole moment (field-independent basis, Debye):
    X=              0.7348    Y=             -2.8683    Z=              1.7419  Tot=              3.4353
 Quadrupole moment (field-independent basis, Debye-Ang):
   XX=            -43.3172   YY=            -55.7064   ZZ=            -44.1649
   XY=              5.8283   XZ=             -0.7034   YZ=              0.6772

  Exact polarizability:  79.390  -4.465  73.678   2.176  -3.280  61.326
 Approx polarizability:  89.891  -9.464  85.475   7.129 -10.919  73.137

 ******    1 imaginary frequencies (negative Signs) ******

                      1                      2                      3
                      A                      A                      A
 Frequencies --    -38.7927                56.1358                82.6458
 Red. masses --      6.2438                 9.8008                 4.5337
 Frc consts  --      0.0055                 0.0182                 0.0182
 IR Inten    --      5.9539                 2.9948                 0.8128

                      4                      5                      6
                      A                      A                      A
 Frequencies --    125.3262               171.5554               210.7252
 Red. masses --      3.3614                 2.4418                11.3586
 Frc consts  --      0.0311                 0.0423                 0.2972
 IR Inten    --      0.6708                12.0406                 1.2637

                      7                      8                      9
                      A                      A                      A
 Frequencies --    238.3745               250.1410               307.6966
 Red. masses --      1.2578                 1.3539                 2.5593
 Frc consts  --      0.0421                 0.0499                 0.1428
 IR Inten    --     16.9530                52.8227                24.2168

                     10                     11                     12
                      A                      A                      A
 Frequencies --    354.9525               415.5273               551.0212
 Red. masses --      2.6699                 3.7557                 1.4794
 Frc consts  --      0.1982                 0.3821                 0.2646
 IR Inten    --      4.3730                 2.5565                72.2719

                     13                     14                     15
                      A                      A                      A
 Frequencies --    560.5951               634.1895               744.4112
 Red. masses --      2.1291                 5.7256                 1.3095
 Frc consts  --      0.3942                 1.3568                 0.4275
 IR Inten    --     68.5398                 2.6799                35.3455

                     16                     17                     18
                      A                      A                      A
 Frequencies --    757.3463               767.4989               782.7681
 Red. masses --      5.2968                 7.0257                 1.2265
 Frc consts  --      1.7900                 2.4383                 0.4428
 IR Inten    --      1.5368                 9.1478                68.4792

                     19                     20                     21
                      A                      A                      A
 Frequencies --    817.6484               949.6561              1106.9733
 Red. masses --      1.1675                 2.2501                 3.6332
 Frc consts  --      0.4599                 1.1956                 2.6231
 IR Inten    --      4.7438                10.1040                55.2849

                     22                     23                     24
                      A                      A                      A
 Frequencies --   1132.3427              1183.6998              1263.6341
 Red. masses --      2.5067                 1.8691                 2.8576
 Frc consts  --      1.8937                 1.5430                 2.6884
 IR Inten    --     46.7540                52.9086               366.1607

                     25                     26                     27
                      A                      A                      A
 Frequencies --   1347.3755              1408.3591              1433.8133
 Red. masses --      1.2631                 1.2830                 1.3556
 Frc consts  --      1.3510                 1.4993                 1.6419
 IR Inten    --    120.1445                26.4834                18.5880

                     28                     29                     30
                      A                      A                      A
 Frequencies --   1496.0357              1508.5152              1527.7822
 Red. masses --      1.0425                 1.0475                 1.0995
 Frc consts  --      1.3747                 1.4045                 1.5120
 IR Inten    --      3.4454                 3.9443                17.2312

                     31                     32                     33
                      A                      A                      A
 Frequencies --   1854.4800              2218.5169              3068.5500
 Red. masses --     12.9588                 5.8775                 1.0355
 Frc consts  --     26.2579                17.0439                 5.7448
 IR Inten    --    483.3598                53.1676                 9.0124

                     34                     35                     36
                      A                      A                      A
 Frequencies --   3097.3577              3143.9834              3148.2777
 Red. masses --      1.0638                 1.1041                 1.1007
 Frc consts  --      6.0130                 6.4301                 6.4281
 IR Inten    --     16.8594                 2.3197                12.5367

                     37                     38                     39
                      A                      A                      A
 Frequencies --   3166.0997              3489.1243              3788.2007
 Red. masses --      1.1054                 1.1642                 1.0673
 Frc consts  --      6.5289                 8.3502                 9.0243
 IR Inten    --     15.7838                69.5052                35.9360

 - Thermochemistry -
 -------------------
 Temperature   298.150 Kelvin.  Pressure   1.00000 Atm.
 Atom     1 has atomic number  6 and mass  12.00000

 Molecular mass:   115.03952 amu.
 Principal axes and moments of inertia in atomic units:
                           1         2         3
     Eigenvalues --   831.676511075.997461543.48475
           X            0.99148   0.13027  -0.00047
           Y           -0.13026   0.99143   0.01006
           Z            0.00178  -0.00991   0.99995
 This molecule is an asymmetric top.
 Rotational symmetry number  1.
 Warning -- assumption of classical behavior for rotation
           may cause significant error
 Rotational temperatures (Kelvin)      0.10414     0.08050     0.05612
 Rotational constants (GHZ):           2.17000     1.67727     1.16926
    1 imaginary frequencies ignored.
 Zero-point vibrational energy     294050.1 (Joules/Mol)
                                   70.27966 (Kcal/Mol)
 Warning -- explicit consideration of  12 degrees of freedom as
           vibrations may cause significant error
 Vibrational temperatures:     80.77   118.91   180.32   246.83   303.19
          (Kelvin)            342.97   359.90   442.71   510.70   597.85
                              792.80   806.57   912.46  1071.04  1089.65
                             1104.26  1126.23  1176.41  1366.34  1592.69
                             1629.19  1703.08  1818.09  1938.57  2026.31
                             2062.94  2152.46  2170.42  2198.14  2668.18
                             3191.95  4414.96  4456.41  4523.49  4529.67
                             4555.31  5020.07  5450.38

 Zero-point correction=                           0.111998 (Hartree/Particle)
 Thermal correction to Energy=                    0.121416
 Thermal correction to Enthalpy=                  0.122360
 Thermal correction to Gibbs Free Energy=         0.076702
 Sum of electronic and zero-point Energies=           -420.089442
 Sum of electronic and thermal Energies=              -420.080024
 Sum of electronic and thermal Enthalpies=            -420.079080
 Sum of electronic and thermal Free Energies=         -420.124738

                     E (Thermal)             CV                S
                      KCal/Mol        Cal/Mol-Kelvin    Cal/Mol-Kelvin
 Total                   76.190             32.337             96.096
 Electronic               0.000              0.000              1.377
 Translational            0.889              2.981             40.136
 Rotational               0.889              2.981             28.714
 Vibrational             74.412             26.375             25.869
 Vibration     1          0.596              1.975              4.589
 Vibration     2          0.600              1.961              3.827
 Vibration     3          0.610              1.928              3.017
 Vibration     4          0.626              1.877              2.418
 Vibration     5          0.643              1.824              2.037
 Vibration     6          0.656              1.782              1.815
 Vibration     7          0.663              1.763              1.730
 Vibration     8          0.698              1.659              1.375
 Vibration     9          0.731              1.565              1.144
 Vibration    10          0.779              1.437              0.907
 Vibration    11          0.906              1.137              0.542
 Vibration    12          0.916              1.117              0.523

 Normal termination of Gaussian 16 at Sat Mar 29 01:20:10 2025.
