 Gaussian 16, Revision A.03,
 Gaussian 16:  ES64L-G16RevA.03 25-Dec-2016

 --------------------------
 # freq 6-311++g(d,p) m062x
 --------------------------

 -------------------
 Title Card Required
 -------------------
 Symbolic Z-matrix:
 Charge =  0 Multiplicity = 2

                         Standard orientation:
 ---------------------------------------------------------------------
 Center     Atomic      Atomic             Coordinates (Angstroms)
 Number     Number       Type             X           Y           Z
 ---------------------------------------------------------------------
      1          6           0        1.737404    0.106665    1.158191
      2          1           0        2.588070   -0.284188    1.665545
      3          6           0        0.757878    0.563435    0.630063
      4          6           0       -0.374196    1.164128   -0.080517
      5          8           0       -0.259352    2.205117   -0.658215
      6          8           0       -1.531392    0.504511   -0.040162
      7          6           0       -1.610427   -0.813779    0.536925
      8          6           0       -1.101445   -1.866297   -0.427803
      9          1           0       -1.065659   -0.830789    1.483036
     10          1           0       -2.671210   -0.941716    0.745691
     11          1           0       -1.650076   -1.809706   -1.369208
     12          1           0       -0.035331   -1.741392   -0.627380
     13          1           0       -1.252955   -2.858811    0.001874
     14          8           0        2.431758   -0.994219   -0.742757
     15          1           0        2.503771   -0.181574   -1.271633
 ---------------------------------------------------------------------

 SCF Done:  E(UM062X) =  -420.201949861     A.U. after   23 cycles

 The electronic state is 2-A.
 Alpha  occ. eigenvalues --  -19.68601 -19.68398 -19.63167 -10.71120 -10.61350
 Alpha  occ. eigenvalues --  -10.58918 -10.58346 -10.54039  -1.25499  -1.16950
 Alpha  occ. eigenvalues --   -1.14265  -0.90401  -0.88447  -0.77645  -0.73999
 Alpha  occ. eigenvalues --   -0.64400  -0.62257  -0.58535  -0.57192  -0.56348
 Alpha  occ. eigenvalues --   -0.53170  -0.51356  -0.49388  -0.47182  -0.46046
 Alpha  occ. eigenvalues --   -0.43676  -0.42174  -0.40268  -0.38555  -0.36883
 Alpha  occ. eigenvalues --   -0.36561
 Alpha virt. eigenvalues --   -0.02020  -0.00789   0.00475   0.00956   0.01876
 Alpha virt. eigenvalues --    0.02334   0.03540   0.04474   0.05536   0.05927
 Alpha virt. eigenvalues --    0.07188   0.07949   0.08376   0.09261   0.09698

  Beta  occ. eigenvalues --  -19.68398 -19.67033 -19.63125 -10.71133 -10.61350
  Beta  occ. eigenvalues --  -10.58921 -10.58243 -10.54040  -1.25467  -1.16870
  Beta  occ. eigenvalues --   -1.06713  -0.89951  -0.88442  -0.77592  -0.73913
  Beta  occ. eigenvalues --   -0.64345  -0.62115  -0.58460  -0.57017  -0.53465
  Beta  occ. eigenvalues --   -0.52956  -0.49614  -0.47160  -0.45904  -0.42507
  Beta  occ. eigenvalues --   -0.40754  -0.39687  -0.39182  -0.37794  -0.36689
  Beta virt. eigenvalues --   -0.10098  -0.01405  -0.00610   0.00661   0.01334
  Beta virt. eigenvalues --    0.01999   0.02518   0.03660   0.04611   0.05602
  Beta virt. eigenvalues --    0.06187   0.07239   0.08040   0.08536   0.09520

 Mulliken charges and spin densities:
               1          2
     1  C   -1.239586   0.004663
     2  H    0.227274   0.008810
     3  C    1.263640   0.077922
     4  C   -0.067506  -0.012021
     5  O   -0.255404   0.021624
     6  O   -0.029992   0.001088
     7  C   -0.383853  -0.009832
     8  C   -0.406641   0.006911
     9  H    0.160198   0.002245
    10  H    0.209282  -0.000805
    11  H    0.181153  -0.000481
    12  H    0.182454  -0.001375
    13  H    0.156793   0.000282
    14  O   -0.243925   0.918245
    15  H    0.246112  -0.017274
 Sum of Mulliken charges =  -0.00000   1.00000

 Dipole moment (field-independent basis, Debye):
    X=              0.7507    Y=             -2.8620    Z=              1.7450  Tot=              3.4350
 Quadrupole moment (field-independent basis, Debye-Ang):
   XX=            -43.3039   YY=            -55.6932   ZZ=            -44.1607
   XY=              5.8625   XZ=             -0.7396   YZ=              0.7163

  Exact polarizability:  78.864  -3.980  73.297   2.760  -3.661  61.157
 Approx polarizability:  89.466  -8.948  84.927   7.750 -11.300  73.213

 ******    1 imaginary frequencies (negative Signs) ******

                      1                      2                      3
                      A                      A                      A
 Frequencies --    -33.9938                56.1544                82.2125
 Red. masses --      6.3282                 9.7704                 4.4774
 Frc consts  --      0.0043                 0.0182                 0.0178
 IR Inten    --      5.9924                 2.8602                 0.7802

                      4                      5                      6
                      A                      A                      A
 Frequencies --    124.6536               172.0452               220.0340
 Red. masses --      3.3574                 2.4545                10.7935
 Frc consts  --      0.0307                 0.0428                 0.3079
 IR Inten    --      0.6286                11.8847                 0.5750

                      7                      8                      9
                      A                      A                      A
 Frequencies --    238.4376               251.1478               306.5178
 Red. masses --      1.2461                 1.3677                 2.5078
 Frc consts  --      0.0417                 0.0508                 0.1388
 IR Inten    --     14.7042                55.2343                24.8735

                     10                     11                     12
                      A                      A                      A
 Frequencies --    355.0366               415.5439               537.7646
 Red. masses --      2.6743                 3.7542                 1.0910
 Frc consts  --      0.1986                 0.3820                 0.1859
 IR Inten    --      4.2673                 2.4173               118.2128

                     13                     14                     15
                      A                      A                      A
 Frequencies --    557.9930               634.1360               743.7247
 Red. masses --      4.3478                 5.7236                 1.3091
 Frc consts  --      0.7976                 1.3561                 0.4266
 IR Inten    --     26.9669                 2.5392                35.5723

                     16                     17                     18
                      A                      A                      A
 Frequencies --    757.6381               768.0135               779.9780
 Red. masses --      5.2344                 6.7527                 1.2566
 Frc consts  --      1.7703                 2.3467                 0.4504
 IR Inten    --      1.2857                 8.1193                68.0162

                     19                     20                     21
                      A                      A                      A
 Frequencies --    817.5102               949.6979              1106.9696
 Red. masses --      1.1676                 2.2496                 3.6250
 Frc consts  --      0.4598                 1.1955                 2.6171
 IR Inten    --      4.7428                10.0098                54.6726

                     22                     23                     24
                      A                      A                      A
 Frequencies --   1132.3297              1183.6816              1263.8235
 Red. masses --      2.5108                 1.8683                 2.8529
 Frc consts  --      1.8967                 1.5423                 2.6848
 IR Inten    --     46.9279                52.5843               364.4235

                     25                     26                     27
                      A                      A                      A
 Frequencies --   1347.3004              1408.2724              1433.7042
 Red. masses --      1.2643                 1.2833                 1.3559
 Frc consts  --      1.3522                 1.4995                 1.6421
 IR Inten    --    120.5663                26.6153                18.5037

                     28                     29                     30
                      A                      A                      A
 Frequencies --   1495.9768              1508.4011              1527.8332
 Red. masses --      1.0425                 1.0474                 1.0996
 Frc consts  --      1.3746                 1.4041                 1.5123
 IR Inten    --      3.5043                 3.8526                17.0986

                     31                     32                     33
                      A                      A                      A
 Frequencies --   1855.0095              2223.3589              3068.6236
 Red. masses --     12.9586                 5.8551                 1.0355
 Frc consts  --     26.2725                17.0530                 5.7451
 IR Inten    --    483.6191                53.0452                 8.8490

                     34                     35                     36
                      A                      A                      A
 Frequencies --   3097.6345              3143.9494              3148.4071
 Red. masses --      1.0637                 1.1041                 1.1007
 Frc consts  --      6.0136                 6.4301                 6.4286
 IR Inten    --     16.8349                 2.2950                12.5568

                     37                     38                     39
                      A                      A                      A
 Frequencies --   3166.1121              3489.4811              3787.0335
 Red. masses --      1.1055                 1.1650                 1.0673
 Frc consts  --      6.5292                 8.3580                 9.0185
 IR Inten    --     15.7964                69.4001                34.5311

 - Thermochemistry -
 -------------------
 Temperature   298.150 Kelvin.  Pressure   1.00000 Atm.
 Atom     1 has atomic number  6 and mass  12.00000

 Molecular mass:   115.03952 amu.
 Principal axes and moments of inertia in atomic units:
                           1         2         3
     Eigenvalues --   835.477231079.794371544.98359
           X            0.99141   0.13078  -0.00047
           Y           -0.13076   0.99136   0.01007
           Z            0.00178  -0.00992   0.99995
 This molecule is an asymmetric top.
 Rotational symmetry number  1.
 Warning -- assumption of classical behavior for rotation
           may cause significant error
 Rotational temperatures (Kelvin)      0.10367     0.08021     0.05606
 Rotational constants (GHZ):           2.16013     1.67137     1.16813
    1 imaginary frequencies ignored.
 Zero-point vibrational energy     294019.0 (Joules/Mol)
                                   70.27223 (Kcal/Mol)
 Warning -- explicit consideration of  12 degrees of freedom as
           vibrations may cause significant error
 Vibrational temperatures:     80.79   118.29   179.35   247.53   316.58
          (Kelvin)            343.06   361.35   441.01   510.82   597.88
                              773.72   802.83   912.38  1070.05  1090.07
                             1105.00  1122.21  1176.21  1366.40  1592.68
                             1629.17  1703.05  1818.36  1938.46  2026.19
                             2062.78  2152.38  2170.25  2198.21  2668.94
                             3198.92  4415.06  4456.81  4523.44  4529.86
                             4555.33  5020.59  5448.70

 Zero-point correction=                           0.111986 (Hartree/Particle)
 Thermal correction to Energy=                    0.121403
 Thermal correction to Enthalpy=                  0.122347
 Thermal correction to Gibbs Free Energy=         0.076698
 Sum of electronic and zero-point Energies=           -420.089964
 Sum of electronic and thermal Energies=              -420.080547
 Sum of electronic and thermal Enthalpies=            -420.079603
 Sum of electronic and thermal Free Energies=         -420.125252

                     E (Thermal)             CV                S
                      KCal/Mol        Cal/Mol-Kelvin    Cal/Mol-Kelvin
 Total                   76.181             32.363             96.076
 Electronic               0.000              0.000              1.377
 Translational            0.889              2.981             40.136
 Rotational               0.889              2.981             28.723
 Vibrational             74.404             26.401             25.839
 Vibration     1          0.596              1.975              4.588
 Vibration     2          0.600              1.961              3.837
 Vibration     3          0.610              1.928              3.027
 Vibration     4          0.626              1.877              2.413
 Vibration     5          0.647              1.811              1.959
 Vibration     6          0.656              1.782              1.815
 Vibration     7          0.663              1.761              1.723
 Vibration     8          0.697              1.661              1.381
 Vibration     9          0.731              1.565              1.144
 Vibration    10          0.779              1.436              0.907
 Vibration    11          0.893              1.167              0.570
 Vibration    12          0.914              1.122              0.528

 Normal termination of Gaussian 16 at Sat Mar 29 01:07:36 2025.
