 Gaussian 16, Revision A.03,
 Gaussian 16:  ES64L-G16RevA.03 25-Dec-2016

 --------------------------
 # freq 6-311++g(d,p) m062x
 --------------------------

 -------------------
 Title Card Required
 -------------------
 Symbolic Z-matrix:
 Charge =  0 Multiplicity = 2

                         Standard orientation:
 ---------------------------------------------------------------------
 Center     Atomic      Atomic             Coordinates (Angstroms)
 Number     Number       Type             X           Y           Z
 ---------------------------------------------------------------------
      1          6           0        1.763812    0.044340    1.087678
      2          1           0        2.603767   -0.346296    1.613274
      3          6           0        0.768665    0.543725    0.623862
      4          6           0       -0.363836    1.167500   -0.064218
      5          8           0       -0.242000    2.216064   -0.627050
      6          8           0       -1.527214    0.519009   -0.024765
      7          6           0       -1.614921   -0.806420    0.534772
      8          6           0       -1.119343   -1.850655   -0.445807
      9          1           0       -1.066044   -0.840566    1.478193
     10          1           0       -2.675771   -0.927766    0.747062
     11          1           0       -1.672337   -1.777605   -1.383529
     12          1           0       -0.053185   -1.732041   -0.648941
     13          1           0       -1.277316   -2.847151   -0.027805
     14          8           0        2.400252   -0.976820   -0.713783
     15          1           0        2.486321   -0.185545   -1.271196
 ---------------------------------------------------------------------

 SCF Done:  E(UM062X) =  -420.199649565     A.U. after   23 cycles

 The electronic state is 2-A.
 Alpha  occ. eigenvalues --  -19.68446 -19.68018 -19.63246 -10.71177 -10.61395
 Alpha  occ. eigenvalues --  -10.59392 -10.58659 -10.54035  -1.25561  -1.17030
 Alpha  occ. eigenvalues --   -1.13864  -0.90684  -0.88476  -0.77745  -0.74131
 Alpha  occ. eigenvalues --   -0.64529  -0.62407  -0.58605  -0.57293  -0.55985
 Alpha  occ. eigenvalues --   -0.53224  -0.51272  -0.49357  -0.47210  -0.46036
 Alpha  occ. eigenvalues --   -0.43416  -0.42096  -0.40353  -0.38573  -0.36965
 Alpha  occ. eigenvalues --   -0.35907
 Alpha virt. eigenvalues --   -0.01858  -0.00773   0.00502   0.00968   0.01827
 Alpha virt. eigenvalues --    0.02336   0.03520   0.04419   0.05522   0.05892
 Alpha virt. eigenvalues --    0.07189   0.07993   0.08331   0.09139   0.09754

  Beta  occ. eigenvalues --  -19.68446 -19.66497 -19.63178 -10.71199 -10.61395
  Beta  occ. eigenvalues --  -10.59419 -10.58501 -10.54037  -1.25509  -1.16899
  Beta  occ. eigenvalues --   -1.06883  -0.90027  -0.88470  -0.77662  -0.74005
  Beta  occ. eigenvalues --   -0.64445  -0.62225  -0.58493  -0.57038  -0.53359
  Beta  occ. eigenvalues --   -0.52875  -0.49600  -0.47166  -0.45899  -0.42536
  Beta  occ. eigenvalues --   -0.41033  -0.39513  -0.39132  -0.37828  -0.36664
  Beta virt. eigenvalues --   -0.10497  -0.00942  -0.00554   0.00672   0.01426
  Beta virt. eigenvalues --    0.01990   0.02552   0.03663   0.04569   0.05582
  Beta virt. eigenvalues --    0.06163   0.07235   0.08082   0.08487   0.09417

 Mulliken charges and spin densities:
               1          2
     1  C   -0.825303  -0.023297
     2  H    0.242283   0.012350
     3  C    0.918655   0.142000
     4  C   -0.143880  -0.018207
     5  O   -0.254444   0.035417
     6  O   -0.029078   0.001703
     7  C   -0.383119  -0.008243
     8  C   -0.408069   0.004623
     9  H    0.159072   0.002318
    10  H    0.209283  -0.000893
    11  H    0.180481  -0.000465
    12  H    0.183810   0.000105
    13  H    0.156975   0.000266
    14  O   -0.249315   0.869509
    15  H    0.242648  -0.017188
 Sum of Mulliken charges =  -0.00000   1.00000

 Dipole moment (field-independent basis, Debye):
    X=              0.6597    Y=             -2.8552    Z=              1.7783  Tot=              3.4278
 Quadrupole moment (field-independent basis, Debye-Ang):
   XX=            -43.4435   YY=            -55.7511   ZZ=            -44.1470
   XY=              5.7974   XZ=             -0.5146   YZ=              0.5664

  Exact polarizability:  81.499  -6.390  75.252  -0.119  -1.684  62.345
 Approx polarizability:  91.427 -11.327  87.507   4.817  -9.363  73.257

 ******    2 imaginary frequencies (negative Signs) ******

                      1                      2                      3
                      A                      A                      A
 Frequencies --   -102.3854               -41.8582                61.1368
 Red. masses --     12.5843                 6.0667                 9.6024
 Frc consts  --      0.0777                 0.0063                 0.0211
 IR Inten    --     10.1194                 7.9793                 3.5777

                      4                      5                      6
                      A                      A                      A
 Frequencies --     84.1975               127.5747               170.5013
 Red. masses --      4.7519                 3.3641                 2.3495
 Frc consts  --      0.0198                 0.0323                 0.0402
 IR Inten    --      1.0687                 0.6610                13.2695

                      7                      8                      9
                      A                      A                      A
 Frequencies --    236.9867               247.0124               308.3835
 Red. masses --      1.3345                 1.2711                 2.8387
 Frc consts  --      0.0442                 0.0457                 0.1591
 IR Inten    --     33.4478                36.0902                20.3715

                     10                     11                     12
                      A                      A                      A
 Frequencies --    354.7409               415.6200               556.4406
 Red. masses --      2.6672                 3.7557                 4.8448
 Frc consts  --      0.1978                 0.3822                 0.8838
 IR Inten    --      4.5023                 2.9187                15.3883

                     13                     14                     15
                      A                      A                      A
 Frequencies --    614.1429               634.3734               747.5260
 Red. masses --      1.0789                 5.5446                 1.3179
 Frc consts  --      0.2398                 1.3147                 0.4339
 IR Inten    --    110.7406                 5.6666                34.7281

                     16                     17                     18
                      A                      A                      A
 Frequencies --    756.1977               765.2450               795.2775
 Red. masses --      5.7529                 6.8607                 1.1549
 Frc consts  --      1.9383                 2.3671                 0.4304
 IR Inten    --      3.4795                 9.5514                70.8890

                     19                     20                     21
                      A                      A                      A
 Frequencies --    818.0395               949.5405              1106.8766
 Red. masses --      1.1658                 2.2510                 3.6690
 Frc consts  --      0.4597                 1.1958                 2.6485
 IR Inten    --      4.7116                10.6117                58.0198

                     22                     23                     24
                      A                      A                      A
 Frequencies --   1132.3513              1183.7002              1262.7042
 Red. masses --      2.4858                 1.8747                 2.8731
 Frc consts  --      1.8779                 1.5476                 2.6990
 IR Inten    --     45.7948                54.6058               373.0959

                     25                     26                     27
                      A                      A                      A
 Frequencies --   1347.5510              1408.6102              1434.1440
 Red. masses --      1.2592                 1.2816                 1.3540
 Frc consts  --      1.3472                 1.4983                 1.6408
 IR Inten    --    118.9404                25.9108                18.8606

                     28                     29                     30
                      A                      A                      A
 Frequencies --   1496.2619              1508.8149              1527.7065
 Red. masses --      1.0426                 1.0478                 1.0990
 Frc consts  --      1.3753                 1.4054                 1.5112
 IR Inten    --      3.2890                 4.2419                17.7651

                     31                     32                     33
                      A                      A                      A
 Frequencies --   1851.8825              2194.5914              3068.3241
 Red. masses --     12.9598                 5.9761                 1.0355
 Frc consts  --     26.1863                16.9579                 5.7439
 IR Inten    --    481.4923                53.4920                 9.5712

                     34                     35                     36
                      A                      A                      A
 Frequencies --   3096.3669              3143.9813              3148.0003
 Red. masses --      1.0641                 1.1040                 1.1007
 Frc consts  --      6.0107                 6.4297                 6.4268
 IR Inten    --     16.9686                 2.3055                12.4941

                     37                     38                     39
                      A                      A                      A
 Frequencies --   3166.0064              3482.1920              3794.5886
 Red. masses --      1.1053                 1.1605                 1.0674
 Frc consts  --      6.5274                 8.2906                 9.0555
 IR Inten    --     15.8972                69.7765                41.4985

 - Thermochemistry -
 -------------------
 Temperature   298.150 Kelvin.  Pressure   1.00000 Atm.
 Atom     1 has atomic number  6 and mass  12.00000

 Molecular mass:   115.03952 amu.
 Principal axes and moments of inertia in atomic units:
                           1         2         3
     Eigenvalues --   820.756691065.162121539.26893
           X            0.99165   0.12898  -0.00038
           Y           -0.12897   0.99160   0.01008
           Z            0.00168  -0.00994   0.99995
 This molecule is an asymmetric top.
 Rotational symmetry number  1.
 Warning -- assumption of classical behavior for rotation
           may cause significant error
 Rotational temperatures (Kelvin)      0.10553     0.08132     0.05627
 Rotational constants (GHZ):           2.19887     1.69433     1.17247
    2 imaginary frequencies ignored.
 Zero-point vibrational energy     293070.7 (Joules/Mol)
                                   70.04557 (Kcal/Mol)
 Warning -- explicit consideration of  11 degrees of freedom as
           vibrations may cause significant error
 Vibrational temperatures:     87.96   121.14   183.55   245.31   340.97
          (Kelvin)            355.40   443.70   510.39   597.98   800.59
                              883.61   912.72  1075.52  1088.00  1101.02
                             1144.23  1176.98  1366.18  1592.55  1629.20
                             1703.08  1816.75  1938.83  2026.68  2063.41
                             2152.79  2170.85  2198.03  2664.45  3157.53
                             4414.63  4454.98  4523.49  4529.27  4555.18
                             5010.10  5459.57

 Zero-point correction=                           0.111625 (Hartree/Particle)
 Thermal correction to Energy=                    0.120451
 Thermal correction to Enthalpy=                  0.121395
 Thermal correction to Gibbs Free Energy=         0.076868
 Sum of electronic and zero-point Energies=           -420.088025
 Sum of electronic and thermal Energies=              -420.079198
 Sum of electronic and thermal Enthalpies=            -420.078254
 Sum of electronic and thermal Free Energies=         -420.122782

                     E (Thermal)             CV                S
                      KCal/Mol        Cal/Mol-Kelvin    Cal/Mol-Kelvin
 Total                   75.584             30.368             93.716
 Electronic               0.000              0.000              1.377
 Translational            0.889              2.981             40.136
 Rotational               0.889              2.981             28.689
 Vibrational             73.807             24.406             23.515
 Vibration     1          0.597              1.973              4.420
 Vibration     2          0.601              1.960              3.791
 Vibration     3          0.611              1.926              2.982
 Vibration     4          0.626              1.879              2.430
 Vibration     5          0.656              1.784              1.825
 Vibration     6          0.661              1.768              1.752
 Vibration     7          0.698              1.658              1.371
 Vibration     8          0.731              1.566              1.145
 Vibration     9          0.779              1.436              0.907
 Vibration    10          0.912              1.126              0.531
 Vibration    11          0.974              1.002              0.426

 Normal termination of Gaussian 16 at Sat Mar 29 01:58:16 2025.
