 Gaussian 16, Revision A.03,
 Gaussian 16:  ES64L-G16RevA.03 25-Dec-2016

 --------------------------
 # freq 6-311++g(d,p) m062x
 --------------------------

 -------------------
 Title Card Required
 -------------------
 Symbolic Z-matrix:
 Charge =  0 Multiplicity = 2

                         Standard orientation:
 ---------------------------------------------------------------------
 Center     Atomic      Atomic             Coordinates (Angstroms)
 Number     Number       Type             X           Y           Z
 ---------------------------------------------------------------------
      1          6           0        1.831053   -0.099906    0.891980
      2          1           0        2.573843   -0.398010    1.607737
      3          6           0        0.777180    0.522028    0.635609
      4          6           0       -0.343230    1.171412   -0.032850
      5          8           0       -0.207317    2.234004   -0.572955
      6          8           0       -1.519021    0.544572    0.002081
      7          6           0       -1.623522   -0.792002    0.530338
      8          6           0       -1.152912   -1.820721   -0.478228
      9          1           0       -1.068214   -0.857335    1.469213
     10          1           0       -2.684139   -0.900841    0.750394
     11          1           0       -1.713382   -1.716553   -1.408527
     12          1           0       -0.086218   -1.714577   -0.689306
     13          1           0       -1.323537   -2.824011   -0.082100
     14          8           0        2.340277   -0.939572   -0.640720
     15          1           0        2.458716   -0.185584   -1.235751
 ---------------------------------------------------------------------

 SCF Done:  E(UM062X) =  -420.207743251     A.U. after   19 cycles

 The electronic state is 2-A.
 Alpha  occ. eigenvalues --  -19.68618 -19.65680 -19.63775 -10.71427 -10.63474
 Alpha  occ. eigenvalues --  -10.61646 -10.61192 -10.54125  -1.25869  -1.17445
 Alpha  occ. eigenvalues --   -1.11783  -0.92212  -0.88659  -0.78500  -0.74906
 Alpha  occ. eigenvalues --   -0.65041  -0.62613  -0.59061  -0.58003  -0.54976
 Alpha  occ. eigenvalues --   -0.53548  -0.50620  -0.49001  -0.47483  -0.46056
 Alpha  occ. eigenvalues --   -0.43067  -0.41437  -0.40281  -0.39030  -0.37243
 Alpha  occ. eigenvalues --   -0.33244
 Alpha virt. eigenvalues --   -0.00949  -0.00566   0.00526   0.00737   0.01503
 Alpha virt. eigenvalues --    0.02230   0.03256   0.04192   0.05366   0.05915
 Alpha virt. eigenvalues --    0.07079   0.07911   0.08180   0.08861   0.09695

  Beta  occ. eigenvalues --  -19.68621 -19.64879 -19.63520 -10.71499 -10.63640
  Beta  occ. eigenvalues --  -10.61643 -10.60705 -10.54125  -1.25672  -1.16949
  Beta  occ. eigenvalues --   -1.08891  -0.90175  -0.88643  -0.78177  -0.74585
  Beta  occ. eigenvalues --   -0.64786  -0.62298  -0.58686  -0.57073  -0.53507
  Beta  occ. eigenvalues --   -0.53097  -0.49421  -0.47239  -0.45943  -0.43836
  Beta  occ. eigenvalues --   -0.42691  -0.40051  -0.38895  -0.38033  -0.36204
  Beta virt. eigenvalues --   -0.12189  -0.00777   0.00415   0.00631   0.01474
  Beta virt. eigenvalues --    0.02139   0.02641   0.03600   0.04275   0.05325
  Beta virt. eigenvalues --    0.06206   0.06925   0.08084   0.08294   0.09116

 Mulliken charges and spin densities:
               1          2
     1  C   -0.325445  -0.237419
     2  H    0.249538   0.022281
     3  C    0.543787   0.697766
     4  C   -0.226396  -0.037937
     5  O   -0.246787   0.135014
     6  O   -0.027971   0.005005
     7  C   -0.380614   0.001440
     8  C   -0.400695  -0.003032
     9  H    0.156449   0.002882
    10  H    0.209745  -0.001012
    11  H    0.179161   0.000382
    12  H    0.183403   0.002594
    13  H    0.159712  -0.000257
    14  O   -0.318074   0.419621
    15  H    0.244188  -0.007327
 Sum of Mulliken charges =  -0.00000   1.00000

 Dipole moment (field-independent basis, Debye):
    X=              0.1280    Y=             -2.4480    Z=              2.3205  Tot=              3.3755
 Quadrupole moment (field-independent basis, Debye-Ang):
   XX=            -45.4359   YY=            -56.2323   ZZ=            -43.8912
   XY=              6.8856   XZ=              0.8505   YZ=              0.2346

  Exact polarizability:  82.745  -8.139  77.288  -2.741  -0.080  63.019
 Approx polarizability:  92.130 -14.176  92.421  -2.402  -3.517  76.578

 ******    1 imaginary frequencies (negative Signs) ******

                      1                      2                      3
                      A                      A                      A
 Frequencies --   -689.6986                84.9913               111.8482
 Red. masses --     11.1894                 4.9818                 5.1101
 Frc consts  --      3.1360                 0.0212                 0.0377
 IR Inten    --      0.4119                 0.2572                10.9464

                      4                      5                      6
                      A                      A                      A
 Frequencies --    130.6451               150.8305               198.1101
 Red. masses --      4.9869                 4.0435                 1.1305
 Frc consts  --      0.0501                 0.0542                 0.0261
 IR Inten    --      0.9757                 8.1774                72.2761

                      7                      8                      9
                      A                      A                      A
 Frequencies --    242.5827               263.8200               347.0897
 Red. masses --      1.3308                 2.0713                 3.1596
 Frc consts  --      0.0461                 0.0849                 0.2243
 IR Inten    --     24.7505                 6.5993                 0.2809

                     10                     11                     12
                      A                      A                      A
 Frequencies --    378.8727               421.8811               559.9393
 Red. masses --      4.5472                 3.7691                 5.1070
 Frc consts  --      0.3846                 0.3952                 0.9434
 IR Inten    --      8.5273                 3.5676                21.6345

                     13                     14                     15
                      A                      A                      A
 Frequencies --    633.5129               721.9686               742.4445
 Red. masses --      6.1199                11.2141                 1.3443
 Frc consts  --      1.4471                 3.4439                 0.4366
 IR Inten    --      0.4714                16.3499                35.0331

                     16                     17                     18
                      A                      A                      A
 Frequencies --    760.1890               819.0011               936.9760
 Red. masses --      4.5039                 1.1559                 1.1512
 Frc consts  --      1.5335                 0.4568                 0.5955
 IR Inten    --      2.5692                 4.1233                67.6425

                     19                     20                     21
                      A                      A                      A
 Frequencies --    948.2060              1018.0115              1106.1751
 Red. masses --      2.1859                 1.1160                 3.7551
 Frc consts  --      1.1580                 0.6814                 2.7072
 IR Inten    --     17.0746                21.3271                55.5610

                     22                     23                     24
                      A                      A                      A
 Frequencies --   1131.6288              1182.6019              1256.8626
 Red. masses --      2.3976                 1.9239                 2.9223
 Frc consts  --      1.8090                 1.5853                 2.7199
 IR Inten    --     37.5329                63.2096               361.1379

                     25                     26                     27
                      A                      A                      A
 Frequencies --   1346.3412              1408.3905              1434.4420
 Red. masses --      1.2445                 1.2772                 1.3416
 Frc consts  --      1.3291                 1.4927                 1.6264
 IR Inten    --    111.2165                20.5879                17.4650

                     28                     29                     30
                      A                      A                      A
 Frequencies --   1497.0688              1508.8812              1528.1879
 Red. masses --      1.0431                 1.0481                 1.0974
 Frc consts  --      1.3774                 1.4059                 1.5100
 IR Inten    --      3.4334                 4.0478                15.9164

                     31                     32                     33
                      A                      A                      A
 Frequencies --   1805.0372              1919.6163              3065.2623
 Red. masses --     12.8623                 7.1413                 1.0358
 Frc consts  --     24.6911                15.5044                 5.7338
 IR Inten    --    419.4319                56.0823                 9.0358

                     34                     35                     36
                      A                      A                      A
 Frequencies --   3088.5708              3139.4673              3148.3033
 Red. masses --      1.0657                 1.1035                 1.1005
 Frc consts  --      5.9896                 6.4083                 6.4265
 IR Inten    --     18.6598                 1.6819                12.6670

                     37                     38                     39
                      A                      A                      A
 Frequencies --   3163.4138              3353.9902              3838.4933
 Red. masses --      1.1041                 1.1232                 1.0679
 Frc consts  --      6.5097                 7.4447                 9.2707
 IR Inten    --     16.6479                31.7404                69.7158

 - Thermochemistry -
 -------------------
 Temperature   298.150 Kelvin.  Pressure   1.00000 Atm.
 Atom     1 has atomic number  6 and mass  12.00000

 Molecular mass:   115.03952 amu.
 Principal axes and moments of inertia in atomic units:
                           1         2         3
     Eigenvalues --   791.123891036.968981530.25999
           X            0.99180   0.12783   0.00085
           Y           -0.12783   0.99174   0.01040
           Z            0.00049  -0.01042   0.99995
 This molecule is an asymmetric top.
 Rotational symmetry number  1.
 Warning -- assumption of classical behavior for rotation
           may cause significant error
 Rotational temperatures (Kelvin)      0.10948     0.08353     0.05660
 Rotational constants (GHZ):           2.28124     1.74040     1.17937
    1 imaginary frequencies ignored.
 Zero-point vibrational energy     295439.7 (Joules/Mol)
                                   70.61177 (Kcal/Mol)
 Warning -- explicit consideration of  11 degrees of freedom as
           vibrations may cause significant error
 Vibrational temperatures:    122.28   160.92   187.97   217.01   285.04
          (Kelvin)            349.02   379.58   499.38   545.11   606.99
                              805.63   911.48  1038.75  1068.21  1093.74
                             1178.36  1348.10  1364.26  1464.69  1591.54
                             1628.16  1701.50  1808.35  1937.08  2026.36
                             2063.84  2153.95  2170.94  2198.72  2597.05
                             2761.90  4410.23  4443.76  4516.99  4529.71
                             4551.45  4825.64  5522.74

 Zero-point correction=                           0.112527 (Hartree/Particle)
 Thermal correction to Energy=                    0.121600
 Thermal correction to Enthalpy=                  0.122544
 Thermal correction to Gibbs Free Energy=         0.077918
 Sum of electronic and zero-point Energies=           -420.095216
 Sum of electronic and thermal Energies=              -420.086143
 Sum of electronic and thermal Enthalpies=            -420.085199
 Sum of electronic and thermal Free Energies=         -420.129825

                     E (Thermal)             CV                S
                      KCal/Mol        Cal/Mol-Kelvin    Cal/Mol-Kelvin
 Total                   76.305             31.261             93.923
 Electronic               0.000              0.000              1.377
 Translational            0.889              2.981             40.136
 Rotational               0.889              2.981             28.620
 Vibrational             74.528             25.300             23.791
 Vibration     1          0.601              1.960              3.772
 Vibration     2          0.607              1.940              3.237
 Vibration     3          0.612              1.923              2.937
 Vibration     4          0.618              1.902              2.662
 Vibration     5          0.637              1.843              2.151
 Vibration     6          0.659              1.775              1.784
 Vibration     7          0.670              1.739              1.636
 Vibration     8          0.725              1.581              1.179
 Vibration     9          0.749              1.515              1.044
 Vibration    10          0.784              1.423              0.886
 Vibration    11          0.916              1.118              0.524

 1\1\GINC-AJ\Freq\UM062X\6-311++G(d,p)\C5H7O3(2)\AAYUSH\29-Mar-2025\0\\
 # freq 6-311++g(d,p) m062x\\Title Card Required\\0,2\C,1.811931,-0.146
 114,0.906974\H,2.553592,-0.428366,1.630288\C,0.75386,0.462924,0.637278
 \C,-0.368817,1.093582,-0.04516\O,-0.239643,2.150435,-0.598029\O,-1.539
 077,0.456582,-0.008327\C,-1.634308,-0.874085,0.536342\C,-1.149129,-1.9
 11185,-0.456616\H,-1.083394,-0.922468,1.478825\H,-2.695047,-0.989754,0
 .752288\H,-1.7056,-1.823909,-1.391044\H,-0.082336,-1.798041,-0.663519\
 H,-1.312788,-2.910883,-0.048644\O,2.336783,-1.000476,-0.612274\H,2.451

 Normal termination of Gaussian 16 at Sat Mar 29 02:56:12 2025.
