 Gaussian 16, Revision A.03,
 Gaussian 16:  ES64L-G16RevA.03 25-Dec-2016

 --------------------------
 # ccsd(t)/6-311++g(d,p) sp
 --------------------------

 -------------------
 Title Card Required
 -------------------
 Symbolic Z-matrix:
 Charge =  0 Multiplicity = 2

                         Standard orientation:
 ---------------------------------------------------------------------
 Center     Atomic      Atomic             Coordinates (Angstroms)
 Number     Number       Type             X           Y           Z
 ---------------------------------------------------------------------
      1          6           0        1.848282   -0.138689    0.832291
      2          1           0        2.551356   -0.401495    1.605813
      3          6           0        0.778132    0.518654    0.643613
      4          6           0       -0.336734    1.171308   -0.025864
      5          8           0       -0.198652    2.237972   -0.560978
      6          8           0       -1.517247    0.550490    0.007708
      7          6           0       -1.625731   -0.787960    0.528739
      8          6           0       -1.160774   -1.813499   -0.485779
      9          1           0       -1.069323   -0.860801    1.466633
     10          1           0       -2.686344   -0.894589    0.750164
     11          1           0       -1.722203   -1.702040   -1.414654
     12          1           0       -0.094050   -1.710580   -0.698370
     13          1           0       -1.334439   -2.818327   -0.094924
     14          8           0        2.326326   -0.929032   -0.615659
     15          1           0        2.452529   -0.186498   -1.221231
 ---------------------------------------------------------------------

 SCF Done:  E(UHF) =  -417.981130199     A.U. after   27 cycles
 E2 =    -0.1264279064D+01 EUMP2 =    -0.41924540926323D+03
 CCSD(T)= -0.41936698093D+03

 The electronic state is 2-A.
 Alpha  occ. eigenvalues --  -20.61146 -20.60558 -20.57859 -11.41091 -11.31470
 Alpha  occ. eigenvalues --  -11.30826 -11.30247 -11.23032  -1.48431  -1.39827
 Alpha  occ. eigenvalues --   -1.35890  -1.10791  -1.05104  -0.92116  -0.88199
 Alpha  occ. eigenvalues --   -0.76427  -0.73118  -0.70962  -0.68455  -0.66216
 Alpha  occ. eigenvalues --   -0.63975  -0.61649  -0.59320  -0.56807  -0.55092
 Alpha  occ. eigenvalues --   -0.52916  -0.51375  -0.50166  -0.48033  -0.44480
 Alpha  occ. eigenvalues --   -0.43486
 Alpha virt. eigenvalues --    0.03525   0.04617   0.05420   0.06407   0.07102
 Alpha virt. eigenvalues --    0.08142   0.09991   0.10717   0.11383   0.12227
 Alpha virt. eigenvalues --    0.13158   0.13917   0.14581   0.15568   0.15870

  Beta  occ. eigenvalues --  -20.61295 -20.58495 -20.56417 -11.41896 -11.33606
  Beta  occ. eigenvalues --  -11.30800 -11.27125 -11.23034  -1.47834  -1.37702
  Beta  occ. eigenvalues --   -1.29637  -1.06157  -1.05067  -0.92464  -0.87992
  Beta  occ. eigenvalues --   -0.75900  -0.72909  -0.69662  -0.67154  -0.64894
  Beta  occ. eigenvalues --   -0.63303  -0.58014  -0.55004  -0.54715  -0.52195
  Beta  occ. eigenvalues --   -0.51268  -0.49654  -0.47709  -0.44432  -0.43475
  Beta virt. eigenvalues --    0.02505   0.03539   0.04624   0.05778   0.06469
  Beta virt. eigenvalues --    0.07139   0.08431   0.10458   0.10744   0.11912
  Beta virt. eigenvalues --    0.12565   0.13498   0.14272   0.14483   0.15709

 Mulliken charges and spin densities:
               1          2
     1  C   -0.482540  -0.990189
     2  H    0.246279   0.074419
     3  C    0.776177   1.454669
     4  C   -0.165755  -0.296310
     5  O   -0.305682   0.316166
     6  O   -0.137977  -0.003390
     7  C   -0.246841   0.001711
     8  C   -0.419595  -0.001281
     9  H    0.134008  -0.002565
    10  H    0.184120  -0.001346
    11  H    0.163597   0.000032
    12  H    0.177518  -0.000680
    13  H    0.129186   0.000939
    14  O   -0.301645   0.463781
    15  H    0.249150  -0.015955
 Sum of Mulliken charges =  -0.00000   1.00000

 Dipole moment (field-independent basis, Debye):
    X=              0.3621    Y=             -2.6431    Z=              2.2686  Tot=              3.5020
 Quadrupole moment (field-independent basis, Debye-Ang):
   XX=            -45.6876   YY=            -56.9912   ZZ=            -43.7042
   XY=              7.1084   XZ=              0.3069   YZ=              0.3878

 Normal termination of Gaussian 16 at Sat May 10 21:15:10 2025.
