 Gaussian 16, Revision A.03,
 Gaussian 16:  ES64L-G16RevA.03 25-Dec-2016

 --------------------------
 # freq 6-311++g(d,p) m062x
 --------------------------

 -------------------
 Title Card Required
 -------------------
 Symbolic Z-matrix:
 Charge =  0 Multiplicity = 2

                         Standard orientation:
 ---------------------------------------------------------------------
 Center     Atomic      Atomic             Coordinates (Angstroms)
 Number     Number       Type             X           Y           Z
 ---------------------------------------------------------------------
      1          6           0        1.783882   -0.001362    1.030493
      2          1           0        2.604805   -0.375153    1.598669
      3          6           0        0.774288    0.533208    0.624161
      4          6           0       -0.356888    1.169617   -0.053292
      5          8           0       -0.229559    2.222499   -0.607645
      6          8           0       -1.524147    0.528528   -0.015153
      7          6           0       -1.618117   -0.801139    0.533450
      8          6           0       -1.131595   -1.840000   -0.457203
      9          1           0       -1.066717   -0.846310    1.475109
     10          1           0       -2.678967   -0.917606    0.748387
     11          1           0       -1.687484   -1.755959   -1.392293
     12          1           0       -0.065340   -1.725827   -0.663025
     13          1           0       -1.294226   -2.838898   -0.046800
     14          8           0        2.378936   -0.965241   -0.692121
     15          1           0        2.476650   -0.188479   -1.266353
 ---------------------------------------------------------------------

 SCF Done:  E(UM062X) =  -420.198098047     A.U. after   23 cycles

 The electronic state is 2-A.
 Alpha  occ. eigenvalues --  -19.68538 -19.67319 -19.63404 -10.71299 -10.61473
 Alpha  occ. eigenvalues --  -10.60210 -10.59223 -10.54047  -1.25681  -1.17174
 Alpha  occ. eigenvalues --   -1.13258  -0.91094  -0.88537  -0.77912  -0.74333
 Alpha  occ. eigenvalues --   -0.64702  -0.62554  -0.58731  -0.57469  -0.55515
 Alpha  occ. eigenvalues --   -0.53321  -0.51078  -0.49311  -0.47280  -0.46037
 Alpha  occ. eigenvalues --   -0.43157  -0.41915  -0.40487  -0.38678  -0.37119
 Alpha  occ. eigenvalues --   -0.35189
 Alpha virt. eigenvalues --   -0.01766  -0.00755   0.00534   0.00990   0.01720
 Alpha virt. eigenvalues --    0.02320   0.03469   0.04347   0.05480   0.05881
 Alpha virt. eigenvalues --    0.07169   0.08011   0.08276   0.09018   0.09794

  Beta  occ. eigenvalues --  -19.68538 -19.65889 -19.63300 -10.71332 -10.61472
  Beta  occ. eigenvalues --  -10.60271 -10.58994 -10.54048  -1.25602  -1.16972
  Beta  occ. eigenvalues --   -1.07135  -0.90165  -0.88529  -0.77787  -0.74160
  Beta  occ. eigenvalues --   -0.64588  -0.62345  -0.58568  -0.57094  -0.53328
  Beta  occ. eigenvalues --   -0.52706  -0.49588  -0.47203  -0.45907  -0.42583
  Beta  occ. eigenvalues --   -0.41444  -0.39569  -0.38890  -0.37893  -0.36630
  Beta virt. eigenvalues --   -0.11249  -0.00724  -0.00334   0.00672   0.01541
  Beta virt. eigenvalues --    0.01960   0.02568   0.03641   0.04488   0.05522
  Beta virt. eigenvalues --    0.06156   0.07190   0.08109   0.08428   0.09284

 Mulliken charges and spin densities:
               1          2
     1  C   -0.550068  -0.091995
     2  H    0.254555   0.015793
     3  C    0.685358   0.257371
     4  C   -0.189113  -0.018262
     5  O   -0.251970   0.054882
     6  O   -0.027534   0.002394
     7  C   -0.382235  -0.005805
     8  C   -0.408468   0.002059
     9  H    0.158053   0.002381
    10  H    0.209387  -0.000962
    11  H    0.179854  -0.000407
    12  H    0.185661   0.001537
    13  H    0.157508   0.000231
    14  O   -0.259790   0.797709
    15  H    0.238801  -0.016925
 Sum of Mulliken charges =  -0.00000   1.00000

 Dipole moment (field-independent basis, Debye):
    X=              0.5082    Y=             -2.7629    Z=              1.9149  Tot=              3.3998
 Quadrupole moment (field-independent basis, Debye-Ang):
   XX=            -43.8483   YY=            -55.8182   ZZ=            -44.0780
   XY=              5.9644   XZ=             -0.1272   YZ=              0.4453

  Exact polarizability:  84.329  -8.983  77.521  -3.162   0.614  64.216
 Approx polarizability:  93.344 -13.694  90.260   1.726  -6.977  74.263

 ******    1 imaginary frequencies (negative Signs) ******

                      1                      2                      3
                      A                      A                      A
 Frequencies --   -456.9033                32.1511                77.5331
 Red. masses --     12.5988                 6.1198                 6.2965
 Frc consts  --      1.5496                 0.0037                 0.0223
 IR Inten    --     58.0995                 6.5229                 2.2621

                      4                      5                      6
                      A                      A                      A
 Frequencies --     89.4350               130.5128               172.7139
 Red. masses --      6.5058                 3.3031                 2.2081
 Frc consts  --      0.0307                 0.0331                 0.0388
 IR Inten    --      4.1145                 0.3401                15.4618

                      7                      8                      9
                      A                      A                      A
 Frequencies --    234.6542               246.7789               314.9280
 Red. masses --      1.3853                 1.1809                 3.5201
 Frc consts  --      0.0449                 0.0424                 0.2057
 IR Inten    --     52.4817                20.6243                11.5976

                     10                     11                     12
                      A                      A                      A
 Frequencies --    355.1055               416.1340               556.7749
 Red. masses --      2.6813                 3.7532                 4.9877
 Frc consts  --      0.1992                 0.3829                 0.9110
 IR Inten    --      4.4582                 3.1233                16.6271

                     13                     14                     15
                      A                      A                      A
 Frequencies --    633.8499               695.4587               752.0514
 Red. masses --      5.6751                 1.1069                 3.4494
 Frc consts  --      1.3434                 0.3154                 1.1495
 IR Inten    --      1.4172               104.0879                23.8546

                     16                     17                     18
                      A                      A                      A
 Frequencies --    755.9599               763.1297               818.1130
 Red. masses --      1.7880                 4.3422                 1.1300
 Frc consts  --      0.6020                 1.4899                 0.4456
 IR Inten    --     25.4837                12.4913                24.8409

                     19                     20                     21
                      A                      A                      A
 Frequencies --    819.2863               949.4150              1106.5195
 Red. masses --      1.1424                 2.2518                 3.7330
 Frc consts  --      0.4518                 1.1959                 2.6929
 IR Inten    --     38.7482                11.2749                62.0234

                     22                     23                     24
                      A                      A                      A
 Frequencies --   1132.2150              1183.6335              1261.1219
 Red. masses --      2.4472                 1.8855                 2.8885
 Frc consts  --      1.8483                 1.5564                 2.7067
 IR Inten    --     43.6708                57.4593               380.9136

                     25                     26                     27
                      A                      A                      A
 Frequencies --   1347.5156              1408.7988              1434.4443
 Red. masses --      1.2550                 1.2804                 1.3511
 Frc consts  --      1.3426                 1.4973                 1.6380
 IR Inten    --    117.7740                25.0197                19.0029

                     28                     29                     30
                      A                      A                      A
 Frequencies --   1496.5305              1509.0785              1527.8274
 Red. masses --      1.0428                 1.0480                 1.0984
 Frc consts  --      1.3760                 1.4061                 1.5107
 IR Inten    --      3.1662                 4.5345                18.4130

                     31                     32                     33
                      A                      A                      A
 Frequencies --   1845.8320              2141.9246              3067.7244
 Red. masses --     12.9611                 6.1729                 1.0355
 Frc consts  --     26.0182                16.6859                 5.7417
 IR Inten    --    474.4231                57.3289                10.1809

                     34                     35                     36
                      A                      A                      A
 Frequencies --   3094.9144              3143.3174              3147.9260
 Red. masses --      1.0645                 1.1040                 1.1007
 Frc consts  --      6.0073                 6.4266                 6.4261
 IR Inten    --     17.1272                 1.9897                12.5277

                     37                     38                     39
                      A                      A                      A
 Frequencies --   3165.6028              3464.0619              3805.0985
 Red. masses --      1.1050                 1.1529                 1.0675
 Frc consts  --      6.5242                 8.1507                 9.1068
 IR Inten    --     16.3866                68.9550                49.7201

 - Thermochemistry -
 -------------------
 Temperature   298.150 Kelvin.  Pressure   1.00000 Atm.
 Atom     1 has atomic number  6 and mass  12.00000

 Molecular mass:   115.03952 amu.
 Principal axes and moments of inertia in atomic units:
                           1         2         3
     Eigenvalues --   810.786781055.453071535.70654
           X            0.99175   0.12815  -0.00011
           Y           -0.12815   0.99170   0.01016
           Z            0.00141  -0.01006   0.99995
 This molecule is an asymmetric top.
 Rotational symmetry number  1.
 Warning -- assumption of classical behavior for rotation
           may cause significant error
 Rotational temperatures (Kelvin)      0.10683     0.08206     0.05640
 Rotational constants (GHZ):           2.22591     1.70992     1.17519
    1 imaginary frequencies ignored.
 Zero-point vibrational energy     293671.7 (Joules/Mol)
                                   70.18922 (Kcal/Mol)
 Warning -- explicit consideration of  11 degrees of freedom as
           vibrations may cause significant error
 Vibrational temperatures:     46.26   111.55   128.68   187.78   248.50
          (Kelvin)            337.62   355.06   453.11   510.92   598.72
                              801.07   911.97  1000.61  1082.03  1087.66
                             1097.97  1177.08  1178.77  1366.00  1592.03
                             1629.00  1702.98  1814.47  1938.77  2026.95
                             2063.85  2153.17  2171.23  2198.20  2655.74
                             3081.75  4413.77  4452.89  4522.53  4529.16
                             4554.60  4984.01  5474.69

 Zero-point correction=                           0.111854 (Hartree/Particle)
 Thermal correction to Energy=                    0.121450
 Thermal correction to Enthalpy=                  0.122394
 Thermal correction to Gibbs Free Energy=         0.075557
 Sum of electronic and zero-point Energies=           -420.086244
 Sum of electronic and thermal Energies=              -420.076648
 Sum of electronic and thermal Enthalpies=            -420.075704
 Sum of electronic and thermal Free Energies=         -420.122541

                     E (Thermal)             CV                S
                      KCal/Mol        Cal/Mol-Kelvin    Cal/Mol-Kelvin
 Total                   76.211             32.119             98.577
 Electronic               0.000              0.000              1.377
 Translational            0.889              2.981             40.136
 Rotational               0.889              2.981             28.665
 Vibrational             74.434             26.157             28.399
 Vibration     1          0.594              1.983              5.692
 Vibration     2          0.599              1.964              3.952
 Vibration     3          0.602              1.957              3.672
 Vibration     4          0.612              1.923              2.938
 Vibration     5          0.626              1.876              2.406
 Vibration     6          0.654              1.788              1.843
 Vibration     7          0.661              1.768              1.753
 Vibration     8          0.702              1.645              1.336
 Vibration     9          0.731              1.565              1.143
 Vibration    10          0.779              1.435              0.905
 Vibration    11          0.912              1.125              0.530

 1\1\GINC-AJ\Freq\UM062X\6-311++G(d,p)\C5H7O3(2)\AAYUSH\29-Mar-2025\0\\
 # freq 6-311++g(d,p) m062x\\Title Card Required\\0,2\C,1.770062,-0.081
 536,1.032356\H,2.590897,-0.45817,1.598778\C,0.761005,0.455814,0.628363
 \C,-0.369729,1.095882,-0.046376\O,-0.241097,2.149892,-0.598278\O,-1.53
 8082,0.456767,-0.008618\C,-1.633851,-0.874073,0.536822\C,-1.150175,-1.
 911361,-0.456868\H,-1.081577,-0.922527,1.477805\H,-2.694687,-0.989189,
 0.752553\H,-1.706863,-1.824045,-1.391183\H,-0.083929,-1.79857,-0.66349
 6\H,-1.314159,-2.910973,-0.048748\O,2.36166,-1.04224,-0.693219\H,2.460

 Normal termination of Gaussian 16 at Sat Mar 29 02:39:23 2025.
