 Gaussian 16, Revision A.03,
 Gaussian 16:  ES64L-G16RevA.03 25-Dec-2016

 --------------------------
 # freq 6-311++g(d,p) m062x
 --------------------------

 -------------------
 Title Card Required
 -------------------
 Symbolic Z-matrix:
 Charge =  0 Multiplicity = 2

                         Standard orientation:
 ---------------------------------------------------------------------
 Center     Atomic      Atomic             Coordinates (Angstroms)
 Number     Number       Type             X           Y           Z
 ---------------------------------------------------------------------
      1          6           0        1.797432   -0.030729    0.991230
      2          1           0        2.600364   -0.386565    1.597854
      3          6           0        0.776367    0.528399    0.626115
      4          6           0       -0.352888    1.170615   -0.046770
      5          8           0       -0.222399    2.226202   -0.596354
      6          8           0       -1.522407    0.533846   -0.009530
      7          6           0       -1.619888   -0.798226    0.532598
      8          6           0       -1.138574   -1.833802   -0.463923
      9          1           0       -1.067127   -0.849811    1.473294
     10          1           0       -2.680687   -0.911972    0.749185
     11          1           0       -1.696111   -1.743303   -1.397424
     12          1           0       -0.072200   -1.722217   -0.671456
     13          1           0       -1.303859   -2.834099   -0.058028
     14          8           0        2.366595   -0.957699   -0.677765
     15          1           0        2.470609   -0.188372   -1.259739
 ---------------------------------------------------------------------

 SCF Done:  E(UM062X) =  -420.198145331     A.U. after   23 cycles

 The electronic state is 2-A.
 Alpha  occ. eigenvalues --  -19.68619 -19.66724 -19.63566 -10.71412 -10.61549
 Alpha  occ. eigenvalues --  -10.61094 -10.59811 -10.54067  -1.25796  -1.17313
 Alpha  occ. eigenvalues --   -1.12671  -0.91490  -0.88597  -0.78095  -0.74530
 Alpha  occ. eigenvalues --   -0.64852  -0.62665  -0.58857  -0.57646  -0.55135
 Alpha  occ. eigenvalues --   -0.53417  -0.50904  -0.49242  -0.47355  -0.46049
 Alpha  occ. eigenvalues --   -0.43045  -0.41671  -0.40562  -0.38803  -0.37261
 Alpha  occ. eigenvalues --   -0.34579
 Alpha virt. eigenvalues --   -0.01675  -0.00754   0.00551   0.01015   0.01576
 Alpha virt. eigenvalues --    0.02293   0.03406   0.04286   0.05434   0.05888
 Alpha virt. eigenvalues --    0.07139   0.08003   0.08236   0.08946   0.09791

  Beta  occ. eigenvalues --  -19.68621 -19.65414 -19.63424 -10.71455 -10.61547
  Beta  occ. eigenvalues --  -10.61188 -10.59515 -10.54068  -1.25688  -1.17038
  Beta  occ. eigenvalues --   -1.07416  -0.90291  -0.88587  -0.77922  -0.74316
  Beta  occ. eigenvalues --   -0.64707  -0.62433  -0.58642  -0.57144  -0.53358
  Beta  occ. eigenvalues --   -0.52576  -0.49576  -0.47241  -0.45921  -0.42633
  Beta  occ. eigenvalues --   -0.41870  -0.39705  -0.38731  -0.37967  -0.36559
  Beta virt. eigenvalues --   -0.11879  -0.00704  -0.00101   0.00662   0.01614
  Beta virt. eigenvalues --    0.01932   0.02562   0.03608   0.04403   0.05454
  Beta virt. eigenvalues --    0.06160   0.07123   0.08112   0.08383   0.09204

 Mulliken charges and spin densities:
               1          2
     1  C   -0.445439  -0.155443
     2  H    0.258262   0.017937
     3  C    0.606444   0.378739
     4  C   -0.207957  -0.020021
     5  O   -0.249655   0.075097
     6  O   -0.026831   0.002983
     7  C   -0.380693  -0.003386
     8  C   -0.408375  -0.000027
     9  H    0.157197   0.002416
    10  H    0.209626  -0.001006
    11  H    0.179505  -0.000268
    12  H    0.187137   0.002377
    13  H    0.158042   0.000164
    14  O   -0.274217   0.715903
    15  H    0.236955  -0.015464
 Sum of Mulliken charges =  -0.00000   1.00000

 Dipole moment (field-independent basis, Debye):
    X=              0.3615    Y=             -2.6513    Z=              2.0627  Tot=              3.3786
 Quadrupole moment (field-independent basis, Debye-Ang):
   XX=            -44.3292   YY=            -55.8931   ZZ=            -44.0104
   XY=              6.2229   XZ=              0.2470   YZ=              0.3544

  Exact polarizability:  85.474 -10.137  78.654  -4.532   1.669  65.036
 Approx polarizability:  94.362 -15.140  92.146  -0.485  -5.106  75.442

 ******    1 imaginary frequencies (negative Signs) ******

                      1                      2                      3
                      A                      A                      A
 Frequencies --   -656.3862                74.5341                83.2776
 Red. masses --     11.3940                 7.1427                 4.3414
 Frc consts  --      2.8923                 0.0234                 0.0177
 IR Inten    --     87.7881                 6.2543                 0.5480

                      4                      5                      6
                      A                      A                      A
 Frequencies --    105.4085               134.3614               179.0275
 Red. masses --      9.0216                 3.2885                 2.0481
 Frc consts  --      0.0591                 0.0350                 0.0387
 IR Inten    --      7.7082                 0.2714                17.0388

                      7                      8                      9
                      A                      A                      A
 Frequencies --    233.1723               247.9980               322.5797
 Red. masses --      1.4159                 1.1589                 3.9877
 Frc consts  --      0.0454                 0.0420                 0.2445
 IR Inten    --     60.5510                15.4205                 5.7951

                     10                     11                     12
                      A                      A                      A
 Frequencies --    356.0918               416.7973               557.1502
 Red. masses --      2.7178                 3.7458                 5.0222
 Frc consts  --      0.2030                 0.3834                 0.9185
 IR Inten    --      4.6922                 3.1063                17.8253

                     13                     14                     15
                      A                      A                      A
 Frequencies --    633.4123               727.9288               747.5338
 Red. masses --      5.7672                 1.2529                 9.4314
 Frc consts  --      1.3633                 0.3912                 3.1052
 IR Inten    --      1.3062                54.5367                18.2454

                     16                     17                     18
                      A                      A                      A
 Frequencies --    759.5604               795.9550               819.2338
 Red. masses --      4.5199                 1.2009                 1.1645
 Frc consts  --      1.5364                 0.4483                 0.4605
 IR Inten    --      4.3077               113.0797                 7.1957

                     19                     20                     21
                      A                      A                      A
 Frequencies --    847.5366               949.3913              1106.2057
 Red. masses --      1.0941                 2.2517                 3.7783
 Frc consts  --      0.4631                 1.1958                 2.7241
 IR Inten    --     21.5360                11.0259                63.3840

                     22                     23                     24
                      A                      A                      A
 Frequencies --   1132.0505              1183.5447              1259.8862
 Red. masses --      2.4201                 1.8950                 2.8983
 Frc consts  --      1.8273                 1.5639                 2.7106
 IR Inten    --     41.5989                59.3309               381.7077

                     25                     26                     27
                      A                      A                      A
 Frequencies --   1347.3199              1408.8456              1434.5815
 Red. masses --      1.2523                 1.2798                 1.3482
 Frc consts  --      1.3394                 1.4967                 1.6347
 IR Inten    --    116.6827                24.1182                18.7371

                     28                     29                     30
                      A                      A                      A
 Frequencies --   1496.7102              1509.2082              1528.0079
 Red. masses --      1.0429                 1.0480                 1.0981
 Frc consts  --      1.3765                 1.4064                 1.5105
 IR Inten    --      3.1357                 4.6001                18.4078

                     31                     32                     33
                      A                      A                      A
 Frequencies --   1838.0105              2079.2655              3066.9899
 Red. masses --     12.9601                 6.3759                 1.0356
 Frc consts  --     25.7962                16.2410                 5.7392
 IR Inten    --    462.8022                61.8224                10.3397

                     34                     35                     36
                      A                      A                      A
 Frequencies --   3093.4790              3142.2873              3148.0066
 Red. masses --      1.0648                 1.1039                 1.1006
 Frc consts  --      6.0036                 6.4221                 6.4261
 IR Inten    --     17.3557                 1.7119                12.5619

                     37                     38                     39
                      A                      A                      A
 Frequencies --   3165.0713              3442.9579              3812.7724
 Red. masses --      1.1048                 1.1447                 1.0677
 Frc consts  --      6.5207                 7.9950                 9.1447
 IR Inten    --     16.6969                63.9500                57.8838

 - Thermochemistry -
 -------------------
 Temperature   298.150 Kelvin.  Pressure   1.00000 Atm.
 Atom     1 has atomic number  6 and mass  12.00000

 Molecular mass:   115.03952 amu.
 Principal axes and moments of inertia in atomic units:
                           1         2         3
     Eigenvalues --   804.706001049.674151533.83656
           X            0.99179   0.12788   0.00016
           Y           -0.12788   0.99174   0.01022
           Z            0.00115  -0.01015   0.99995
 This molecule is an asymmetric top.
 Rotational symmetry number  1.
 Warning -- assumption of classical behavior for rotation
           may cause significant error
 Rotational temperatures (Kelvin)      0.10763     0.08252     0.05647
 Rotational constants (GHZ):           2.24273     1.71933     1.17662
    1 imaginary frequencies ignored.
 Zero-point vibrational energy     294198.5 (Joules/Mol)
                                   70.31513 (Kcal/Mol)
 Warning -- explicit consideration of  11 degrees of freedom as
           vibrations may cause significant error
 Vibrational temperatures:    107.24   119.82   151.66   193.32   257.58
          (Kelvin)            335.48   356.81   464.12   512.34   599.68
                              801.61   911.34  1047.33  1075.53  1092.84
                             1145.20  1178.69  1219.42  1365.96  1591.58
                             1628.77  1702.86  1812.70  1938.49  2027.01
                             2064.04  2153.43  2171.41  2198.46  2644.49
                             2991.60  4412.71  4450.83  4521.05  4529.28
                             4553.83  4953.65  5485.73

 Zero-point correction=                           0.112054 (Hartree/Particle)
 Thermal correction to Energy=                    0.121463
 Thermal correction to Enthalpy=                  0.122407
 Thermal correction to Gibbs Free Energy=         0.076705
 Sum of electronic and zero-point Energies=           -420.086091
 Sum of electronic and thermal Energies=              -420.076682
 Sum of electronic and thermal Enthalpies=            -420.075738
 Sum of electronic and thermal Free Energies=         -420.121440

                     E (Thermal)             CV                S
                      KCal/Mol        Cal/Mol-Kelvin    Cal/Mol-Kelvin
 Total                   76.219             31.899             96.188
 Electronic               0.000              0.000              1.377
 Translational            0.889              2.981             40.136
 Rotational               0.889              2.981             28.651
 Vibrational             74.442             25.937             26.024
 Vibration     1          0.599              1.966              4.030
 Vibration     2          0.600              1.961              3.812
 Vibration     3          0.605              1.945              3.352
 Vibration     4          0.613              1.919              2.883
 Vibration     5          0.629              1.868              2.339
 Vibration     6          0.654              1.790              1.854
 Vibration     7          0.662              1.766              1.745
 Vibration     8          0.708              1.630              1.297
 Vibration     9          0.732              1.563              1.139
 Vibration    10          0.780              1.434              0.903
 Vibration    11          0.913              1.124              0.530

 1\1\GINC-AJ\Freq\UM062X\6-311++G(d,p)\C5H7O3(2)\AAYUSH\29-Mar-2025\0\\
 # freq 6-311++g(d,p) m062x\\Title Card Required\\0,2\C,1.781564,-0.099
 675,0.996926\H,2.584505,-0.452671,1.605194\C,0.759899,0.456813,0.62946
 3\C,-0.369793,1.095466,-0.046074\O,-0.240579,2.149959,-0.598054\O,-1.5
 38248,0.456768,-0.008468\C,-1.633969,-0.87417,0.53675\C,-1.149879,-1.9
 11294,-0.456812\H,-1.082055,-0.92255,1.478114\H,-2.694785,-0.98923,0.7
 52559\H,-1.706643,-1.823991,-1.391079\H,-0.083493,-1.798363,-0.663556\
 H,-1.313841,-2.910901,-0.048688\O,2.353984,-1.029649,-0.669281\H,2.457

 Normal termination of Gaussian 16 at Sat Mar 29 02:44:16 2025.
