 Gaussian 16, Revision A.03,
 Gaussian 16:  ES64L-G16RevA.03 25-Dec-2016

 --------------------------
 # ccsd(t)/6-311++g(d,p) sp
 --------------------------

 -------------------
 Title Card Required
 -------------------
 Symbolic Z-matrix:
 Charge =  0 Multiplicity = 2

                         Standard orientation:
 ---------------------------------------------------------------------
 Center     Atomic      Atomic             Coordinates (Angstroms)
 Number     Number       Type             X           Y           Z
 ---------------------------------------------------------------------
      1          6           0        1.763812    0.044340    1.087678
      2          1           0        2.603767   -0.346296    1.613274
      3          6           0        0.768665    0.543725    0.623862
      4          6           0       -0.363836    1.167500   -0.064218
      5          8           0       -0.242000    2.216064   -0.627050
      6          8           0       -1.527214    0.519009   -0.024765
      7          6           0       -1.614921   -0.806420    0.534772
      8          6           0       -1.119343   -1.850655   -0.445807
      9          1           0       -1.066044   -0.840566    1.478193
     10          1           0       -2.675771   -0.927766    0.747062
     11          1           0       -1.672337   -1.777605   -1.383529
     12          1           0       -0.053185   -1.732041   -0.648941
     13          1           0       -1.277316   -2.847151   -0.027805
     14          8           0        2.400252   -0.976820   -0.713783
     15          1           0        2.486321   -0.185545   -1.271196
 ---------------------------------------------------------------------

 SCF Done:  E(UHF) =  -417.977667251     A.U. after   40 cycles
 E2 =    -0.1260097154D+01 EUMP2 =    -0.41923776440425D+03
 CCSD(T)= -0.41934833273D+03

 The electronic state is 2-A.
 Alpha  occ. eigenvalues --  -20.63909 -20.61165 -20.56214 -11.41432 -11.30572
 Alpha  occ. eigenvalues --  -11.27599 -11.27185 -11.22958  -1.47934  -1.39568
 Alpha  occ. eigenvalues --   -1.38872  -1.08655  -1.04962  -0.91600  -0.87419
 Alpha  occ. eigenvalues --   -0.75933  -0.73437  -0.69993  -0.68563  -0.67585
 Alpha  occ. eigenvalues --   -0.66122  -0.63489  -0.58745  -0.56875  -0.56067
 Alpha  occ. eigenvalues --   -0.54266  -0.51049  -0.48900  -0.47101  -0.43457
 Alpha  occ. eigenvalues --   -0.42886
 Alpha virt. eigenvalues --    0.03500   0.04548   0.05271   0.06368   0.07139
 Alpha virt. eigenvalues --    0.08168   0.09693   0.10663   0.10790   0.11700
 Alpha virt. eigenvalues --    0.13280   0.13803   0.14410   0.15283   0.15922

  Beta  occ. eigenvalues --  -20.61232 -20.59906 -20.55561 -11.41821 -11.30561
  Beta  occ. eigenvalues --  -11.28614 -11.25946 -11.22962  -1.47728  -1.37909
  Beta  occ. eigenvalues --   -1.24753  -1.07359  -1.04954  -0.91934  -0.87537
  Beta  occ. eigenvalues --   -0.75855  -0.73385  -0.69396  -0.66840  -0.64606
  Beta  occ. eigenvalues --   -0.63114  -0.58175  -0.55176  -0.54834  -0.51811
  Beta  occ. eigenvalues --   -0.50594  -0.47848  -0.46297  -0.43549  -0.43364
  Beta virt. eigenvalues --    0.03392   0.04421   0.04627   0.06377   0.06709
  Beta virt. eigenvalues --    0.07163   0.08385   0.09881   0.10759   0.11801
  Beta virt. eigenvalues --    0.12339   0.13840   0.14146   0.14503   0.15061

 Mulliken charges and spin densities:
               1          2
     1  C   -1.168882  -0.591726
     2  H    0.264327   0.053497
     3  C    1.230916   0.639493
     4  C    0.002720  -0.154794
     5  O   -0.343740   0.140649
     6  O   -0.137751  -0.002209
     7  C   -0.248211  -0.003990
     8  C   -0.436268   0.002581
     9  H    0.135917   0.000102
    10  H    0.184244  -0.000934
    11  H    0.164915  -0.000553
    12  H    0.178475  -0.001458
    13  H    0.126155   0.000638
    14  O   -0.193837   0.951142
    15  H    0.241017  -0.032439
 Sum of Mulliken charges =  -0.00000   1.00000

 Dipole moment (field-independent basis, Debye):
    X=              1.1484    Y=             -3.4021    Z=              1.6360  Tot=              3.9458
 Quadrupole moment (field-independent basis, Debye-Ang):
   XX=            -42.6409   YY=            -56.7937   ZZ=            -43.9912
   XY=              5.5076   XZ=             -1.3374   YZ=              0.9525

 Normal termination of Gaussian 16 at Sat May 10 01:50:50 2025.
