 Gaussian 16, Revision A.03,
 Gaussian 16:  ES64L-G16RevA.03 25-Dec-2016

 --------------------------
 # ccsd(t)/6-311++g(d,p) sp
 --------------------------

 -------------------
 Title Card Required
 -------------------
 Symbolic Z-matrix:
 Charge =  0 Multiplicity = 2

                         Standard orientation:
 ---------------------------------------------------------------------
 Center     Atomic      Atomic             Coordinates (Angstroms)
 Number     Number       Type             X           Y           Z
 ---------------------------------------------------------------------
      1          6           0        1.853209   -0.151155    0.812411
      2          1           0        2.543620   -0.403403    1.602418
      3          6           0        0.778925    0.517251    0.646507
      4          6           0       -0.334396    1.171262   -0.023679
      5          8           0       -0.195690    2.239189   -0.557176
      6          8           0       -1.516637    0.552503    0.009423
      7          6           0       -1.626530   -0.786480    0.528158
      8          6           0       -1.163396   -1.811088   -0.488195
      9          1           0       -1.069824   -0.861775    1.465723
     10          1           0       -2.687175   -0.892413    0.749890
     11          1           0       -1.725007   -1.697287   -1.416678
     12          1           0       -0.096679   -1.709286   -0.701176
     13          1           0       -1.338111   -2.816391   -0.099038
     14          8           0        2.321817   -0.925512   -0.606682
     15          1           0        2.450393   -0.187624   -1.216854
 ---------------------------------------------------------------------

 SCF Done:  E(UHF) =  -417.985740583     A.U. after   28 cycles
 E2 =    -0.1266122078D+01 EUMP2 =    -0.41925186266141D+03
 CCSD(T)= -0.41937132691D+03

 The electronic state is 2-A.
 Alpha  occ. eigenvalues --  -20.61124 -20.60271 -20.57927 -11.41041 -11.31949
 Alpha  occ. eigenvalues --  -11.30824 -11.30372 -11.23039  -1.48423  -1.39837
 Alpha  occ. eigenvalues --   -1.35667  -1.10867  -1.05098  -0.92172  -0.88257
 Alpha  occ. eigenvalues --   -0.76473  -0.73095  -0.70993  -0.68543  -0.66198
 Alpha  occ. eigenvalues --   -0.63983  -0.61403  -0.59310  -0.56820  -0.55036
 Alpha  occ. eigenvalues --   -0.52779  -0.51357  -0.50161  -0.48054  -0.44450
 Alpha  occ. eigenvalues --   -0.43370
 Alpha virt. eigenvalues --    0.03522   0.04625   0.05422   0.06408   0.07093
 Alpha virt. eigenvalues --    0.08144   0.09993   0.10717   0.11355   0.12276
 Alpha virt. eigenvalues --    0.13132   0.13946   0.14602   0.15565   0.16039

  Beta  occ. eigenvalues --  -20.61275 -20.58544 -20.56452 -11.41857 -11.33981
  Beta  occ. eigenvalues --  -11.30797 -11.27181 -11.23041  -1.47801  -1.37663
  Beta  occ. eigenvalues --   -1.30570  -1.05947  -1.05059  -0.92448  -0.87987
  Beta  occ. eigenvalues --   -0.75892  -0.72834  -0.69664  -0.67149  -0.65145
  Beta  occ. eigenvalues --   -0.63310  -0.57990  -0.55023  -0.54705  -0.52939
  Beta  occ. eigenvalues --   -0.51477  -0.49961  -0.47725  -0.44436  -0.43286
  Beta virt. eigenvalues --    0.02463   0.03551   0.04639   0.05758   0.06468
  Beta virt. eigenvalues --    0.07134   0.08434   0.10459   0.10750   0.11920
  Beta virt. eigenvalues --    0.12560   0.13460   0.14255   0.14509   0.15691

 Mulliken charges and spin densities:
               1          2
     1  C   -0.465415  -0.948472
     2  H    0.240811   0.074178
     3  C    0.773573   1.481955
     4  C   -0.167629  -0.297730
     5  O   -0.303781   0.323802
     6  O   -0.138260  -0.003305
     7  C   -0.249097   0.002135
     8  C   -0.415879  -0.001362
     9  H    0.134599  -0.002624
    10  H    0.183957  -0.001336
    11  H    0.163605   0.000139
    12  H    0.175684  -0.000953
    13  H    0.129472   0.000876
    14  O   -0.313788   0.386338
    15  H    0.252148  -0.013641
 Sum of Mulliken charges =  -0.00000   1.00000

 Dipole moment (field-independent basis, Debye):
    X=              0.3366    Y=             -2.6090    Z=              2.2880  Tot=              3.4864
 Quadrupole moment (field-independent basis, Debye-Ang):
   XX=            -45.8440   YY=            -57.0311   ZZ=            -43.7221
   XY=              7.2072   XZ=              0.3627   YZ=              0.3582

 9\PMP3-0=-419.2991706\MP4SDQ=-419.3094092\CCSD=-419.3162848\CCSD(T)=-4
 Normal termination of Gaussian 16 at Sat May 10 13:21:13 2025.
