 Gaussian 16, Revision A.03,
 Gaussian 16:  ES64L-G16RevA.03 25-Dec-2016

 --------------------------
 # ccsd(t)/6-311++g(d,p) sp
 --------------------------

 -------------------
 Title Card Required
 -------------------
 Symbolic Z-matrix:
 Charge =  0 Multiplicity = 2

                         Standard orientation:
 ---------------------------------------------------------------------
 Center     Atomic      Atomic             Coordinates (Angstroms)
 Number     Number       Type             X           Y           Z
 ---------------------------------------------------------------------
      1          6           0        1.824640   -0.086544    0.911858
      2          1           0        2.580573   -0.396802    1.606332
      3          6           0        0.777185    0.523013    0.633266
      4          6           0       -0.345231    1.171395   -0.035380
      5          8           0       -0.210166    2.232573   -0.577217
      6          8           0       -1.519621    0.542598    0.000010
      7          6           0       -1.622833   -0.793231    0.530825
      8          6           0       -1.150257   -1.823163   -0.475573
      9          1           0       -1.067966   -0.855985    1.470033
     10          1           0       -2.683480   -0.902877    0.750278
     11          1           0       -1.710265   -1.721543   -1.406433
     12          1           0       -0.083599   -1.715977   -0.686029
     13          1           0       -1.319887   -2.825899   -0.077606
     14          8           0        2.345128   -0.943147   -0.648508
     15          1           0        2.460873   -0.185921   -1.240820
 ---------------------------------------------------------------------

 SCF Done:  E(UHF) =  -417.970775567     A.U. after   31 cycles
 E2 =    -0.1256273197D+01 EUMP2 =    -0.41922704876405D+03
 CCSD(T)= -0.41935301942D+03

 The electronic state is 2-A.
 Alpha  occ. eigenvalues --  -20.62088 -20.61124 -20.57253 -11.41155 -11.30736
 Alpha  occ. eigenvalues --  -11.29351 -11.29038 -11.22995  -1.48252  -1.39535
 Alpha  occ. eigenvalues --   -1.37611  -1.10004  -1.05052  -0.91775  -0.87815
 Alpha  occ. eigenvalues --   -0.76195  -0.73201  -0.70617  -0.68100  -0.66906
 Alpha  occ. eigenvalues --   -0.63818  -0.63562  -0.59189  -0.56622  -0.55549
 Alpha  occ. eigenvalues --   -0.53778  -0.51285  -0.49871  -0.47756  -0.44129
 Alpha  occ. eigenvalues --   -0.43520
 Alpha virt. eigenvalues --    0.03565   0.04602   0.05349   0.06391   0.07130
 Alpha virt. eigenvalues --    0.08150   0.09987   0.10730   0.11513   0.11917
 Alpha virt. eigenvalues --    0.13322   0.13807   0.14522   0.15341   0.15776

  Beta  occ. eigenvalues --  -20.61250 -20.58933 -20.56023 -11.41865 -11.31398
  Beta  occ. eigenvalues --  -11.30713 -11.26509 -11.22998  -1.47791  -1.37717
  Beta  occ. eigenvalues --   -1.27061  -1.06729  -1.05027  -0.92273  -0.87824
  Beta  occ. eigenvalues --   -0.75856  -0.73112  -0.69516  -0.67024  -0.64594
  Beta  occ. eigenvalues --   -0.63192  -0.58039  -0.54983  -0.54760  -0.51678
  Beta  occ. eigenvalues --   -0.50507  -0.48228  -0.47153  -0.44195  -0.43750
  Beta virt. eigenvalues --    0.03076   0.03579   0.04598   0.05885   0.06450
  Beta virt. eigenvalues --    0.07158   0.08430   0.10384   0.10743   0.11914
  Beta virt. eigenvalues --    0.12593   0.13730   0.14375   0.14401   0.15808

 Mulliken charges and spin densities:
               1          2
     1  C   -0.564709  -1.044759
     2  H    0.267346   0.075322
     3  C    0.769975   1.274560
     4  C   -0.138606  -0.270164
     5  O   -0.318718   0.267370
     6  O   -0.136706  -0.003132
     7  C   -0.242819  -0.000575
     8  C   -0.430480  -0.000618
     9  H    0.134009  -0.001716
    10  H    0.184069  -0.001338
    11  H    0.163762  -0.000360
    12  H    0.180494   0.000255
    13  H    0.127999   0.001034
    14  O   -0.237641   0.728539
    15  H    0.242025  -0.024417
 Sum of Mulliken charges =  -0.00000   1.00000

 Dipole moment (field-independent basis, Debye):
    X=              0.6473    Y=             -2.9670    Z=              1.9884  Tot=              3.6298
 Quadrupole moment (field-independent basis, Debye-Ang):
   XX=            -44.5043   YY=            -56.8614   ZZ=            -43.7246
   XY=              6.3674   XZ=             -0.3808   YZ=              0.6222

 Normal termination of Gaussian 16 at Sat May 10 07:11:27 2025.
