 Gaussian 16, Revision A.03,
 Gaussian 16:  ES64L-G16RevA.03 25-Dec-2016

 --------------------------
 # freq 6-311++g(d,p) m062x
 --------------------------

 -------------------
 Title Card Required
 -------------------
 Symbolic Z-matrix:
 Charge =  0 Multiplicity = 2

                         Standard orientation:
 ---------------------------------------------------------------------
 Center     Atomic      Atomic             Coordinates (Angstroms)
 Number     Number       Type             X           Y           Z
 ---------------------------------------------------------------------
      1          6           0        1.848282   -0.138689    0.832291
      2          1           0        2.551356   -0.401495    1.605813
      3          6           0        0.778132    0.518654    0.643613
      4          6           0       -0.336734    1.171308   -0.025864
      5          8           0       -0.198652    2.237972   -0.560978
      6          8           0       -1.517247    0.550490    0.007708
      7          6           0       -1.625731   -0.787960    0.528739
      8          6           0       -1.160774   -1.813499   -0.485779
      9          1           0       -1.069323   -0.860801    1.466633
     10          1           0       -2.686344   -0.894589    0.750164
     11          1           0       -1.722203   -1.702040   -1.414654
     12          1           0       -0.094050   -1.710580   -0.698370
     13          1           0       -1.334439   -2.818327   -0.094924
     14          8           0        2.326326   -0.929032   -0.615659
     15          1           0        2.452529   -0.186498   -1.221231
 ---------------------------------------------------------------------

 SCF Done:  E(UM062X) =  -420.220067447     A.U. after   19 cycles

 The electronic state is 2-A.
 Alpha  occ. eigenvalues --  -19.68440 -19.65783 -19.63643 -10.71182 -10.64135
 Alpha  occ. eigenvalues --  -10.61582 -10.61399 -10.54144  -1.25680  -1.17274
 Alpha  occ. eigenvalues --   -1.12438  -0.92057  -0.88588  -0.78486  -0.74914
 Alpha  occ. eigenvalues --   -0.64955  -0.62307  -0.59015  -0.58053  -0.55699
 Alpha  occ. eigenvalues --   -0.53471  -0.50614  -0.49176  -0.47488  -0.45997
 Alpha  occ. eigenvalues --   -0.43112  -0.41426  -0.40294  -0.38973  -0.36877
 Alpha  occ. eigenvalues --   -0.32959
 Alpha virt. eigenvalues --   -0.00891   0.00072   0.00410   0.00612   0.02055
 Alpha virt. eigenvalues --    0.02250   0.03277   0.04197   0.05410   0.05902
 Alpha virt. eigenvalues --    0.07098   0.07845   0.08186   0.08893   0.09667

  Beta  occ. eigenvalues --  -19.68442 -19.65263 -19.63345 -10.71260 -10.64299
  Beta  occ. eigenvalues --  -10.61578 -10.60827 -10.54143  -1.25445  -1.16691
  Beta  occ. eigenvalues --   -1.10579  -0.89688  -0.88565  -0.78094  -0.74529
  Beta  occ. eigenvalues --   -0.64649  -0.61913  -0.58565  -0.56888  -0.54577
  Beta  occ. eigenvalues --   -0.53131  -0.49251  -0.47173  -0.46103  -0.45497
  Beta  occ. eigenvalues --   -0.42688  -0.40305  -0.39113  -0.37889  -0.35811
  Beta virt. eigenvalues --   -0.11641  -0.00811   0.00544   0.00630   0.01414
  Beta virt. eigenvalues --    0.02234   0.02932   0.03768   0.04422   0.05424
  Beta virt. eigenvalues --    0.06275   0.06929   0.08076   0.08288   0.09134

 Mulliken charges and spin densities:
               1          2
     1  C   -0.285296  -0.217300
     2  H    0.236674   0.024637
     3  C    0.514076   0.810532
     4  C   -0.226292  -0.044995
     5  O   -0.248255   0.157665
     6  O   -0.029377   0.006468
     7  C   -0.385007   0.002563
     8  C   -0.392455  -0.003051
     9  H    0.158426   0.003562
    10  H    0.208990  -0.000843
    11  H    0.179278   0.000707
    12  H    0.176082   0.001714
    13  H    0.160606  -0.000519
    14  O   -0.322044   0.262428
    15  H    0.254595  -0.003568
 Sum of Mulliken charges =  -0.00000   1.00000

 Dipole moment (field-independent basis, Debye):
    X=              0.1893    Y=             -2.5040    Z=              2.2349  Tot=              3.3616
 Quadrupole moment (field-independent basis, Debye-Ang):
   XX=            -45.5376   YY=            -56.4339   ZZ=            -43.9198
   XY=              6.9331   XZ=              0.6412   YZ=              0.2896

  Exact polarizability:  80.543  -6.338  75.790  -0.997  -1.743  61.125
 Approx polarizability:  89.217 -11.694  90.283  -1.296  -4.862  74.963

 ******    1 imaginary frequencies (negative Signs) ******

                      1                      2                      3
                      A                      A                      A
 Frequencies --   -456.8931                86.5558               115.7497
 Red. masses --     11.3009                 4.9615                 4.8518
 Frc consts  --      1.3899                 0.0219                 0.0383
 IR Inten    --     28.1648                 0.3193                13.1273

                      4                      5                      6
                      A                      A                      A
 Frequencies --    135.9624               154.7087               181.2105
 Red. masses --      4.2162                 4.3016                 1.1284
 Frc consts  --      0.0459                 0.0607                 0.0218
 IR Inten    --      1.8903                11.3770                82.1061

                      7                      8                      9
                      A                      A                      A
 Frequencies --    243.9127               292.9095               353.9561
 Red. masses --      1.1596                 2.6294                 2.8780
 Frc consts  --      0.0406                 0.1329                 0.2124
 IR Inten    --     10.7886                 9.8679                 1.7084

                     10                     11                     12
                      A                      A                      A
 Frequencies --    403.6900               437.0929               562.8281
 Red. masses --      4.7291                 4.4730                 5.1442
 Frc consts  --      0.4541                 0.5035                 0.9601
 IR Inten    --      5.8080                 7.1045                23.7323

                     13                     14                     15
                      A                      A                      A
 Frequencies --    634.6710               713.2519               760.1121
 Red. masses --      6.1958                12.0363                 3.0735
 Frc consts  --      1.4704                 3.6077                 1.0463
 IR Inten    --      0.4651                19.4420                 5.2825

                     16                     17                     18
                      A                      A                      A
 Frequencies --    764.3612               818.8140               947.6752
 Red. masses --      1.5690                 1.1588                 2.2227
 Frc consts  --      0.5401                 0.4577                 1.1761
 IR Inten    --     26.5445                 3.6721                 6.8061

                     19                     20                     21
                      A                      A                      A
 Frequencies --   1026.5737              1098.3902              1118.1509
 Red. masses --      1.1434                 2.0436                 1.5274
 Frc consts  --      0.7100                 1.4526                 1.1251
 IR Inten    --     35.3210                68.9220                10.4597

                     22                     23                     24
                      A                      A                      A
 Frequencies --   1133.0696              1181.9529              1255.5565
 Red. masses --      2.3737                 1.9116                 2.9162
 Frc consts  --      1.7955                 1.5734                 2.7086
 IR Inten    --     47.3535                60.9972               345.7030

                     25                     26                     27
                      A                      A                      A
 Frequencies --   1345.7620              1407.8045              1434.0158
 Red. masses --      1.2375                 1.2736                 1.3416
 Frc consts  --      1.3204                 1.4872                 1.6254
 IR Inten    --    106.5191                18.4224                16.8715

                     28                     29                     30
                      A                      A                      A
 Frequencies --   1496.9695              1508.2505              1527.8254
 Red. masses --      1.0430                 1.0480                 1.0971
 Frc consts  --      1.3771                 1.4047                 1.5088
 IR Inten    --      3.6825                 3.6648                14.1873

                     31                     32                     33
                      A                      A                      A
 Frequencies --   1787.9898              1868.2046              3065.5255
 Red. masses --     12.7980                 7.9169                 1.0358
 Frc consts  --     24.1059                16.2800                 5.7348
 IR Inten    --    401.5440                63.4515                 8.1845

                     34                     35                     36
                      A                      A                      A
 Frequencies --   3086.3280              3139.1774              3148.3159
 Red. masses --      1.0660                 1.1033                 1.1004
 Frc consts  --      5.9825                 6.4057                 6.4261
 IR Inten    --     19.2161                 1.9262                12.9126

                     37                     38                     39
                      A                      A                      A
 Frequencies --   3162.7390              3301.9259              3850.4611
 Red. masses --      1.1039                 1.1126                 1.0678
 Frc consts  --      6.5058                 7.1472                 9.3278
 IR Inten    --     16.8953                16.5114                68.8191

 - Thermochemistry -
 -------------------
 Temperature   298.150 Kelvin.  Pressure   1.00000 Atm.
 Atom     1 has atomic number  6 and mass  12.00000

 Molecular mass:   115.03952 amu.
 Principal axes and moments of inertia in atomic units:
                           1         2         3
     Eigenvalues --   783.486291029.781931528.20830
           X            0.99179   0.12787   0.00109
           Y           -0.12787   0.99173   0.01056
           Z            0.00027  -0.01061   0.99994
 This molecule is an asymmetric top.
 Rotational symmetry number  1.
 Warning -- assumption of classical behavior for rotation
           may cause significant error
 Rotational temperatures (Kelvin)      0.11055     0.08411     0.05668
 Rotational constants (GHZ):           2.30348     1.75255     1.18095
    1 imaginary frequencies ignored.
 Zero-point vibrational energy     296389.5 (Joules/Mol)
                                   70.83878 (Kcal/Mol)
 Warning -- explicit consideration of  11 degrees of freedom as
           vibrations may cause significant error
 Vibrational temperatures:    124.53   166.54   195.62   222.59   260.72
          (Kelvin)            350.94   421.43   509.26   580.82   628.88
                              809.78   913.15  1026.21  1093.63  1099.75
                             1178.09  1363.49  1477.01  1580.34  1608.77
                             1630.23  1700.57  1806.47  1936.25  2025.52
                             2063.23  2153.81  2170.04  2198.20  2572.52
                             2687.93  4410.61  4440.54  4516.58  4529.72
                             4550.48  4750.73  5539.95

 Zero-point correction=                           0.112889 (Hartree/Particle)
 Thermal correction to Energy=                    0.121846
 Thermal correction to Enthalpy=                  0.122791
 Thermal correction to Gibbs Free Energy=         0.078414
 Sum of electronic and zero-point Energies=           -420.107179
 Sum of electronic and thermal Energies=              -420.098221
 Sum of electronic and thermal Enthalpies=            -420.097277
 Sum of electronic and thermal Free Energies=         -420.141653

                     E (Thermal)             CV                S
                      KCal/Mol        Cal/Mol-Kelvin    Cal/Mol-Kelvin
 Total                   76.460             30.902             93.398
 Electronic               0.000              0.000              1.377
 Translational            0.889              2.981             40.136
 Rotational               0.889              2.981             28.602
 Vibrational             74.682             24.941             23.284
 Vibration     1          0.601              1.959              3.736
 Vibration     2          0.608              1.936              3.170
 Vibration     3          0.614              1.917              2.860
 Vibration     4          0.620              1.897              2.613
 Vibration     5          0.630              1.865              2.316
 Vibration     6          0.659              1.773              1.774
 Vibration     7          0.688              1.687              1.457
 Vibration     8          0.730              1.567              1.149
 Vibration     9          0.769              1.462              0.949
 Vibration    10          0.797              1.389              0.836
 Vibration    11          0.919              1.112              0.518

 1\1\GINC-AJ\Freq\UM062X\6-311++G(d,p)\C5H7O3(2)\AAYUSH\29-Mar-2025\0\\
 # freq 6-311++g(d,p) m062x\\Title Card Required\\0,2\C,1.82846,-0.1732
 87,0.852072\H,2.529325,-0.412845,1.63509\C,0.751184,0.466361,0.644112\
 C,-0.367279,1.092097,-0.044784\O,-0.239321,2.150711,-0.59809\O,-1.5397
 77,0.456434,-0.008234\C,-1.634481,-0.873761,0.536104\C,-1.148848,-1.91
 1118,-0.456475\H,-1.083936,-0.922388,1.479012\H,-2.695175,-0.990405,0.
 752026\H,-1.704984,-1.823787,-1.391098\H,-0.082059,-1.797944,-0.663455
 \H,-1.312156,-2.910973,-0.048765\O,2.327222,-0.983116,-0.578011\H,2.44

 Normal termination of Gaussian 16 at Sat Mar 29 03:03:16 2025.
