 Gaussian 16, Revision A.03,
 Gaussian 16:  ES64L-G16RevA.03 25-Dec-2016

 --------------------------
 # ccsd(t)/6-311++g(d,p) sp
 --------------------------

 -------------------
 Title Card Required
 -------------------
 Symbolic Z-matrix:
 Charge =  0 Multiplicity = 2

                         Standard orientation:
 ---------------------------------------------------------------------
 Center     Atomic      Atomic             Coordinates (Angstroms)
 Number     Number       Type             X           Y           Z
 ---------------------------------------------------------------------
      1          6           0        1.837163   -0.113049    0.872087
      2          1           0        2.566625   -0.399033    1.608282
      3          6           0        0.777297    0.521007    0.638138
      4          6           0       -0.341151    1.171395   -0.030433
      5          8           0       -0.204460    2.235379   -0.568846
      6          8           0       -1.518432    0.546534    0.004046
      7          6           0       -1.624229   -0.790720    0.529828
      8          6           0       -1.155539   -1.818306   -0.480805
      9          1           0       -1.068520   -0.858586    1.468376
     10          1           0       -2.684830   -0.898795    0.750414
     11          1           0       -1.716399   -1.711657   -1.410587
     12          1           0       -0.088822   -1.713218   -0.692446
     13          1           0       -1.327161   -2.822130   -0.086470
     14          8           0        2.335545   -0.936039   -0.632664
     15          1           0        2.456637   -0.185532   -1.230747
 ---------------------------------------------------------------------

 SCF Done:  E(UHF) =  -417.974291424     A.U. after   28 cycles
 E2 =    -0.1259586080D+01 EUMP2 =    -0.41923387750450D+03
 CCSD(T)= -0.41935909131D+03

 The electronic state is 2-A.
 Alpha  occ. eigenvalues --  -20.61316 -20.61147 -20.57597 -11.41135 -11.30793
 Alpha  occ. eigenvalues --  -11.30297 -11.29782 -11.23014  -1.48367  -1.39714
 Alpha  occ. eigenvalues --   -1.36708  -1.10446  -1.05087  -0.91944  -0.88018
 Alpha  occ. eigenvalues --   -0.76309  -0.73151  -0.70818  -0.68271  -0.66488
 Alpha  occ. eigenvalues --   -0.63910  -0.62509  -0.59293  -0.56736  -0.55260
 Alpha  occ. eigenvalues --   -0.53360  -0.51361  -0.50077  -0.47921  -0.44363
 Alpha  occ. eigenvalues --   -0.43605
 Alpha virt. eigenvalues --    0.03546   0.04608   0.05392   0.06400   0.07117
 Alpha virt. eigenvalues --    0.08143   0.09993   0.10723   0.11453   0.12091
 Alpha virt. eigenvalues --    0.13239   0.13859   0.14548   0.15480   0.15743

  Beta  occ. eigenvalues --  -20.61286 -20.58632 -20.56247 -11.41902 -11.32542
  Beta  occ. eigenvalues --  -11.30768 -11.26853 -11.23017  -1.47834  -1.37723
  Beta  occ. eigenvalues --   -1.28132  -1.06483  -1.05056  -0.92402  -0.87933
  Beta  occ. eigenvalues --   -0.75884  -0.73024  -0.69603  -0.67107  -0.64643
  Beta  occ. eigenvalues --   -0.63254  -0.58034  -0.54989  -0.54738  -0.51727
  Beta  occ. eigenvalues --   -0.50700  -0.48862  -0.47529  -0.44350  -0.43692
  Beta virt. eigenvalues --    0.02751   0.03538   0.04607   0.05820   0.06462
  Beta virt. eigenvalues --    0.07149   0.08431   0.10440   0.10733   0.11915
  Beta virt. eigenvalues --    0.12581   0.13607   0.14324   0.14436   0.15757

 Mulliken charges and spin densities:
               1          2
     1  C   -0.521772  -1.046525
     2  H    0.257073   0.075400
     3  C    0.774184   1.379067
     4  C   -0.156421  -0.287400
     5  O   -0.311523   0.294699
     6  O   -0.137357  -0.003325
     7  C   -0.243912   0.000627
     8  C   -0.425849  -0.001009
     9  H    0.133682  -0.002253
    10  H    0.184165  -0.001351
    11  H    0.163653  -0.000181
    12  H    0.179725  -0.000141
    13  H    0.128579   0.001023
    14  O   -0.268927   0.611973
    15  H    0.244701  -0.020604
 Sum of Mulliken charges =  -0.00000   1.00000

 Dipole moment (field-independent basis, Debye):
    X=              0.4826    Y=             -2.7853    Z=              2.1480  Tot=              3.5504
 Quadrupole moment (field-independent basis, Debye-Ang):
   XX=            -45.1608   YY=            -56.9169   ZZ=            -43.6978
   XY=              6.7701   XZ=              0.0062   YZ=              0.4961

 Normal termination of Gaussian 16 at Sat May 10 02:38:28 2025.
