 Gaussian 16, Revision A.03,
 Gaussian 16:  ES64L-G16RevA.03 25-Dec-2016

 --------------------------
 # ccsd(t)/6-311++g(d,p) sp
 --------------------------

 -------------------
 Title Card Required
 -------------------
 Symbolic Z-matrix:
 Charge =  0 Multiplicity = 2

                         Standard orientation:
 ---------------------------------------------------------------------
 Center     Atomic      Atomic             Coordinates (Angstroms)
 Number     Number       Type             X           Y           Z
 ---------------------------------------------------------------------
      1          6           0        2.626534    0.209763    0.000000
      2          1           0        3.692973    0.151598    0.000001
      3          6           0        1.504423    0.689055   -0.000003
      4          6           0        0.083331    1.000079   -0.000005
      5          8           0       -0.371742    2.107601   -0.000010
      6          8           0       -0.633894   -0.128197    0.000000
      7          6           0       -2.067254    0.045874   -0.000001
      8          6           0       -2.684766   -1.332339    0.000005
      9          1           0       -2.342525    0.624466    0.883834
     10          1           0       -2.342524    0.624459   -0.883842
     11          1           0       -2.382780   -1.891063   -0.886778
     12          1           0       -2.382780   -1.891055    0.886792
     13          1           0       -3.772441   -1.244975    0.000004
     14          8           0        2.418823   -1.756139    0.000010
     15          1           0        1.450972   -1.834149    0.000010
 ---------------------------------------------------------------------

 SCF Done:  E(UHF) =  -417.983138183     A.U. after   35 cycles
 E2 =    -0.1252242591D+01 EUMP2 =    -0.41923538077376D+03
 CCSD(T)= -0.41935482597D+03

 The electronic state is 2-A.
 Alpha  occ. eigenvalues --  -20.62448 -20.61603 -20.57263 -11.41935 -11.30637
 Alpha  occ. eigenvalues --  -11.27407 -11.26955 -11.23844  -1.49289  -1.39494
 Alpha  occ. eigenvalues --   -1.37278  -1.09898  -1.05070  -0.92216  -0.84333
 Alpha  occ. eigenvalues --   -0.78326  -0.73720  -0.70517  -0.70270  -0.65566
 Alpha  occ. eigenvalues --   -0.64172  -0.61422  -0.60213  -0.56827  -0.54679
 Alpha  occ. eigenvalues --   -0.53637  -0.53213  -0.49445  -0.48519  -0.43341
 Alpha  occ. eigenvalues --   -0.42317
 Alpha virt. eigenvalues --    0.03634   0.04757   0.05677   0.06082   0.06892
 Alpha virt. eigenvalues --    0.08931   0.09399   0.09530   0.11147   0.12248
 Alpha virt. eigenvalues --    0.12524   0.13030   0.15639   0.15701   0.16006

  Beta  occ. eigenvalues --  -20.62405 -20.57917 -20.56763 -11.42338 -11.30621
  Beta  occ. eigenvalues --  -11.29326 -11.24713 -11.23843  -1.48975  -1.38639
  Beta  occ. eigenvalues --   -1.24168  -1.07772  -1.04889  -0.92937  -0.84078
  Beta  occ. eigenvalues --   -0.77929  -0.73288  -0.70387  -0.69623  -0.62320
  Beta  occ. eigenvalues --   -0.60704  -0.59716  -0.56669  -0.53142  -0.52958
  Beta  occ. eigenvalues --   -0.50980  -0.48397  -0.47393  -0.44740  -0.42547
  Beta virt. eigenvalues --    0.03595   0.04663   0.05299   0.06073   0.06823
  Beta virt. eigenvalues --    0.07316   0.08666   0.09331   0.10438   0.12026
  Beta virt. eigenvalues --    0.12072   0.12443   0.13541   0.15200   0.15714

 Mulliken charges and spin densities:
               1          2
     1  C   -2.163773  -0.944571
     2  H    0.209955   0.078098
     3  C    2.331109   0.950137
     4  C   -0.110736  -0.025593
     5  O   -0.288254   0.099635
     6  O   -0.171129  -0.006001
     7  C    0.012231   0.006616
     8  C   -0.641007  -0.001707
     9  H    0.181889  -0.000082
    10  H    0.181889  -0.000082
    11  H    0.154748   0.000016
    12  H    0.154748   0.000016
    13  H    0.142288   0.000169
    14  O   -0.247550   0.871803
    15  H    0.253592  -0.028453
 Sum of Mulliken charges =  -0.00000   1.00000

 Dipole moment (field-independent basis, Debye):
    X=             -1.7801    Y=             -1.7247    Z=              0.0000  Tot=              2.4786
 Quadrupole moment (field-independent basis, Debye-Ang):
   XX=            -39.6291   YY=            -56.3175   ZZ=            -47.5948
   XY=              5.7299   XZ=             -0.0000   YZ=              0.0000

 2822255\MP4SDQ=-419.2934935\CCSD=-419.3008519\CCSD(T)=-419.354826\S2=1
 Normal termination of Gaussian 16 at Wed Apr 23 00:02:36 2025.
