 Gaussian 16, Revision A.03,
 Gaussian 16:  ES64L-G16RevA.03 25-Dec-2016

 --------------------------
 # ccsd(t)/6-311++g(d,p) sp
 --------------------------

 -------------------
 Title Card Required
 -------------------
 Symbolic Z-matrix:
 Charge =  0 Multiplicity = 2

                         Standard orientation:
 ---------------------------------------------------------------------
 Center     Atomic      Atomic             Coordinates (Angstroms)
 Number     Number       Type             X           Y           Z
 ---------------------------------------------------------------------
      1          6           0       -2.381547   -1.123995   -0.000005
      2          1           0       -3.151184   -1.868287   -0.000008
      3          6           0       -1.213146   -0.729666   -0.000005
      4          6           0       -0.092089    0.198245   -0.000005
      5          8           0       -0.247534    1.390732   -0.000009
      6          8           0        1.078303   -0.425152    0.000001
      7          6           0        2.241840    0.429580    0.000002
      8          6           0        3.454375   -0.470955    0.000005
      9          1           0        2.199036    1.068750   -0.883992
     10          1           0        2.199033    1.068753    0.883994
     11          1           0        3.461601   -1.106486    0.886243
     12          1           0        3.461604   -1.106489   -0.886230
     13          1           0        4.360959    0.136360    0.000006
     14          8           0       -3.541839    0.392845    0.000012
     15          1           0       -2.899076    1.120739    0.000004
 ---------------------------------------------------------------------

 SCF Done:  E(UHF) =  -417.984157707     A.U. after   32 cycles
 E2 =    -0.1248995263D+01 EUMP2 =    -0.41923315297002D+03
 CCSD(T)= -0.41935752081D+03

 The electronic state is 2-A.
 Alpha  occ. eigenvalues --  -20.62331 -20.60789 -20.57353 -11.41969 -11.30513
 Alpha  occ. eigenvalues --  -11.27905 -11.27315 -11.23539  -1.49440  -1.39588
 Alpha  occ. eigenvalues --   -1.36329  -1.09915  -1.05158  -0.92070  -0.84158
 Alpha  occ. eigenvalues --   -0.78513  -0.72941  -0.70673  -0.70470  -0.64573
 Alpha  occ. eigenvalues --   -0.63375  -0.61438  -0.59836  -0.56558  -0.54117
 Alpha  occ. eigenvalues --   -0.53269  -0.52955  -0.50615  -0.48459  -0.43413
 Alpha  occ. eigenvalues --   -0.42229
 Alpha virt. eigenvalues --    0.03764   0.04756   0.05900   0.06177   0.07117
 Alpha virt. eigenvalues --    0.08109   0.09020   0.09440   0.11423   0.12293
 Alpha virt. eigenvalues --    0.12598   0.12844   0.14316   0.15597   0.16373

  Beta  occ. eigenvalues --  -20.62312 -20.57357 -20.56761 -11.42384 -11.30508
  Beta  occ. eigenvalues --  -11.30121 -11.24682 -11.23538  -1.49125  -1.38581
  Beta  occ. eigenvalues --   -1.24409  -1.07415  -1.04954  -0.92796  -0.83967
  Beta  occ. eigenvalues --   -0.78232  -0.72642  -0.70305  -0.69772  -0.61690
  Beta  occ. eigenvalues --   -0.60584  -0.59370  -0.56419  -0.52861  -0.52841
  Beta  occ. eigenvalues --   -0.50843  -0.48722  -0.47207  -0.45306  -0.42332
  Beta virt. eigenvalues --    0.03764   0.04707   0.05402   0.06160   0.06592
  Beta virt. eigenvalues --    0.07138   0.08561   0.09395   0.09419   0.12104
  Beta virt. eigenvalues --    0.12409   0.12750   0.13287   0.14642   0.15120

 Mulliken charges and spin densities:
               1          2
     1  C   -1.766737  -1.038600
     2  H    0.211393   0.085124
     3  C    2.070128   1.212523
     4  C   -0.298827  -0.157858
     5  O   -0.341785   0.108884
     6  O   -0.091272   0.001736
     7  C   -0.007185  -0.002527
     8  C   -0.618373   0.003274
     9  H    0.181696   0.000126
    10  H    0.181696   0.000126
    11  H    0.154242   0.000037
    12  H    0.154242   0.000037
    13  H    0.142827  -0.000043
    14  O   -0.244846   0.818761
    15  H    0.272802  -0.031600
 Sum of Mulliken charges =  -0.00000   1.00000

 Dipole moment (field-independent basis, Debye):
    X=              2.7829    Y=             -1.1393    Z=             -0.0000  Tot=              3.0070
 Quadrupole moment (field-independent basis, Debye-Ang):
   XX=            -45.8276   YY=            -47.9751   ZZ=            -47.5765
   XY=              5.0061   XZ=              0.0001   YZ=              0.0000

 -0=-419.2855313\MP4SDQ=-419.2931771\CCSD=-419.3029357\CCSD(T)=-419.357
 Normal termination of Gaussian 16 at Wed Apr 23 02:53:33 2025.
