 Gaussian 16, Revision A.03,
 Gaussian 16:  ES64L-G16RevA.03 25-Dec-2016

 --------------------------
 # ccsd(t)/6-311++g(d,p) sp
 --------------------------

 -------------------
 Title Card Required
 -------------------
 Symbolic Z-matrix:
 Charge =  0 Multiplicity = 2

                         Standard orientation:
 ---------------------------------------------------------------------
 Center     Atomic      Atomic             Coordinates (Angstroms)
 Number     Number       Type             X           Y           Z
 ---------------------------------------------------------------------
      1          6           0       -2.296344   -1.256999   -0.000005
      2          1           0       -3.169338   -1.867827   -0.000005
      3          6           0       -1.213867   -0.726830   -0.000005
      4          6           0       -0.092874    0.197817   -0.000005
      5          8           0       -0.252499    1.390380   -0.000009
      6          8           0        1.080752   -0.419829    0.000001
      7          6           0        2.239567    0.440364    0.000002
      8          6           0        3.456887   -0.453950    0.000005
      9          1           0        2.194005    1.079579   -0.883873
     10          1           0        2.194002    1.079580    0.883876
     11          1           0        3.467176   -1.089568    0.886158
     12          1           0        3.467179   -1.089569   -0.886148
     13          1           0        4.360490    0.157857    0.000006
     14          8           0       -3.597628    0.451732    0.000012
     15          1           0       -2.918734    1.149266    0.000009
 ---------------------------------------------------------------------

 SCF Done:  E(UHF) =  -417.990706650     A.U. after   35 cycles
 E2 =    -0.1254758395D+01 EUMP2 =    -0.41924546504512D+03
 CCSD(T)= -0.41935625500D+03

 The electronic state is 2-A.
 Alpha  occ. eigenvalues --  -20.62298 -20.61650 -20.57185 -11.42130 -11.30446
 Alpha  occ. eigenvalues --  -11.26758 -11.26238 -11.23473  -1.49322  -1.39330
 Alpha  occ. eigenvalues --   -1.37280  -1.09131  -1.04998  -0.92153  -0.84032
 Alpha  occ. eigenvalues --   -0.78281  -0.73232  -0.70361  -0.70346  -0.66064
 Alpha  occ. eigenvalues --   -0.64419  -0.61157  -0.59752  -0.56498  -0.54626
 Alpha  occ. eigenvalues --   -0.53253  -0.52857  -0.49981  -0.48186  -0.43007
 Alpha  occ. eigenvalues --   -0.41890
 Alpha virt. eigenvalues --    0.03791   0.04686   0.05933   0.06235   0.07145
 Alpha virt. eigenvalues --    0.08173   0.08826   0.09498   0.11575   0.12268
 Alpha virt. eigenvalues --    0.12592   0.12942   0.14262   0.15558   0.16231

  Beta  occ. eigenvalues --  -20.62283 -20.57666 -20.56819 -11.42402 -11.30442
  Beta  occ. eigenvalues --  -11.28093 -11.24669 -11.23473  -1.49128  -1.38704
  Beta  occ. eigenvalues --   -1.22527  -1.07750  -1.04956  -0.92672  -0.83962
  Beta  occ. eigenvalues --   -0.78150  -0.73013  -0.70261  -0.69844  -0.61986
  Beta  occ. eigenvalues --   -0.60623  -0.59466  -0.56406  -0.52804  -0.52799
  Beta  occ. eigenvalues --   -0.50080  -0.48902  -0.47402  -0.43550  -0.42616
  Beta virt. eigenvalues --    0.03794   0.04637   0.05721   0.06228   0.06928
  Beta virt. eigenvalues --    0.07267   0.08631   0.09481   0.10098   0.12266
  Beta virt. eigenvalues --    0.12409   0.12742   0.13266   0.14879   0.15258

 Mulliken charges and spin densities:
               1          2
     1  C   -2.375709  -0.637937
     2  H    0.195064   0.059108
     3  C    2.618019   0.717740
     4  C   -0.235485  -0.129089
     5  O   -0.344306   0.067720
     6  O   -0.078698   0.001115
     7  C    0.007797   0.000375
     8  C   -0.635113   0.001144
     9  H    0.181579   0.000063
    10  H    0.181580   0.000063
    11  H    0.154465   0.000022
    12  H    0.154465   0.000022
    13  H    0.143295   0.000020
    14  O   -0.240395   0.954583
    15  H    0.273442  -0.034950
 Sum of Mulliken charges =  -0.00000   1.00000

 Dipole moment (field-independent basis, Debye):
    X=              2.4468    Y=             -0.8630    Z=              0.0000  Tot=              2.5946
 Quadrupole moment (field-independent basis, Debye-Ang):
   XX=            -43.8267   YY=            -48.1214   ZZ=            -47.6646
   XY=              4.6008   XZ=              0.0000   YZ=              0.0000

 P3-0=-419.2833303\MP4SDQ=-419.3001605\CCSD=-419.3034823\CCSD(T)=-419.3
 Normal termination of Gaussian 16 at Wed Apr 23 13:22:35 2025.
