 Gaussian 16, Revision A.03,
 Gaussian 16:  ES64L-G16RevA.03 25-Dec-2016

 --------------------------
 # ccsd(t)/6-311++g(d,p) sp
 --------------------------

 -------------------
 Title Card Required
 -------------------
 Symbolic Z-matrix:
 Charge =  0 Multiplicity = 2

                         Standard orientation:
 ---------------------------------------------------------------------
 Center     Atomic      Atomic             Coordinates (Angstroms)
 Number     Number       Type             X           Y           Z
 ---------------------------------------------------------------------
      1          6           0        2.612744    0.130219    0.000001
      2          1           0        3.684164    0.193453    0.000001
      3          6           0        1.505532    0.700779   -0.000003
      4          6           0        0.082052    0.998770   -0.000005
      5          8           0       -0.374165    2.106573   -0.000010
      6          8           0       -0.633342   -0.129630   -0.000000
      7          6           0       -2.067503    0.042626   -0.000001
      8          6           0       -2.683114   -1.336267    0.000005
      9          1           0       -2.343029    0.620958    0.883891
     10          1           0       -2.343029    0.620950   -0.883898
     11          1           0       -2.380423   -1.894601   -0.886740
     12          1           0       -2.380423   -1.894593    0.886755
     13          1           0       -3.770885   -1.250003    0.000005
     14          8           0        2.428825   -1.703096    0.000010
     15          1           0        1.464808   -1.803702    0.000010
 ---------------------------------------------------------------------

 SCF Done:  E(UHF) =  -417.983551101     A.U. after   31 cycles
 E2 =    -0.1252400350D+01 EUMP2 =    -0.41923595145122D+03
 CCSD(T)= -0.41936073873D+03

 The electronic state is 2-A.
 Alpha  occ. eigenvalues --  -20.62535 -20.60678 -20.57487 -11.41970 -11.30705
 Alpha  occ. eigenvalues --  -11.28958 -11.27961 -11.23861  -1.49450  -1.39707
 Alpha  occ. eigenvalues --   -1.36138  -1.10521  -1.05215  -0.92280  -0.84603
 Alpha  occ. eigenvalues --   -0.78593  -0.73784  -0.70633  -0.70360  -0.64414
 Alpha  occ. eigenvalues --   -0.63072  -0.61645  -0.60146  -0.56857  -0.54154
 Alpha  occ. eigenvalues --   -0.53489  -0.53274  -0.49611  -0.48729  -0.43680
 Alpha  occ. eigenvalues --   -0.42737
 Alpha virt. eigenvalues --    0.03650   0.04823   0.05685   0.06069   0.06881
 Alpha virt. eigenvalues --    0.08889   0.09401   0.09573   0.11079   0.12250
 Alpha virt. eigenvalues --    0.12449   0.12847   0.15685   0.15714   0.16116

  Beta  occ. eigenvalues --  -20.62474 -20.57574 -20.56875 -11.42458 -11.31300
  Beta  occ. eigenvalues --  -11.30684 -11.25084 -11.23859  -1.49045  -1.38651
  Beta  occ. eigenvalues --   -1.25735  -1.07599  -1.04763  -0.93059  -0.84172
  Beta  occ. eigenvalues --   -0.78032  -0.73235  -0.70461  -0.69614  -0.62020
  Beta  occ. eigenvalues --   -0.60730  -0.59658  -0.56683  -0.53191  -0.53048
  Beta  occ. eigenvalues --   -0.51494  -0.48413  -0.47329  -0.46559  -0.42242
  Beta virt. eigenvalues --    0.03622   0.04767   0.05090   0.06053   0.06704
  Beta virt. eigenvalues --    0.06998   0.08421   0.09322   0.10262   0.11869
  Beta virt. eigenvalues --    0.11935   0.12495   0.13539   0.15146   0.15778

 Mulliken charges and spin densities:
               1          2
     1  C   -1.771234  -1.109595
     2  H    0.208272   0.087061
     3  C    1.968561   1.199604
     4  C   -0.128664  -0.009650
     5  O   -0.287961   0.123283
     6  O   -0.174784  -0.005494
     7  C    0.016819   0.008684
     8  C   -0.627304  -0.001516
     9  H    0.182205  -0.000124
    10  H    0.182205  -0.000124
    11  H    0.154967   0.000031
    12  H    0.154967   0.000031
    13  H    0.141876   0.000279
    14  O   -0.273787   0.730776
    15  H    0.253861  -0.023248
 Sum of Mulliken charges =  -0.00000   1.00000

 Dipole moment (field-independent basis, Debye):
    X=             -1.8721    Y=             -1.2820    Z=              0.0000  Tot=              2.2690
 Quadrupole moment (field-independent basis, Debye-Ang):
   XX=            -40.2148   YY=            -56.9016   ZZ=            -47.5358
   XY=              6.9694   XZ=             -0.0000   YZ=              0.0000

 19.2891154\MP4SDQ=-419.2959203\CCSD=-419.3058764\CCSD(T)=-419.3607387\
 Normal termination of Gaussian 16 at Tue Apr 22 11:27:44 2025.
