 Gaussian 16, Revision A.03,
 Gaussian 16:  ES64L-G16RevA.03 25-Dec-2016

 --------------------------
 # ccsd(t)/6-311++g(d,p) sp
 --------------------------

 -------------------
 Title Card Required
 -------------------
 Symbolic Z-matrix:
 Charge =  0 Multiplicity = 2

                         Standard orientation:
 ---------------------------------------------------------------------
 Center     Atomic      Atomic             Coordinates (Angstroms)
 Number     Number       Type             X           Y           Z
 ---------------------------------------------------------------------
      1          6           0       -2.406921   -1.086092   -0.000005
      2          1           0       -3.135836   -1.874021   -0.000008
      3          6           0       -1.210174   -0.733578   -0.000005
      4          6           0       -0.092634    0.198648   -0.000005
      5          8           0       -0.246381    1.391363   -0.000009
      6          8           0        1.077631   -0.426152    0.000001
      7          6           0        2.242229    0.427042    0.000002
      8          6           0        3.453617   -0.475030    0.000005
      9          1           0        2.200264    1.066276   -0.883998
     10          1           0        2.200260    1.066279    0.884000
     11          1           0        3.460055   -1.110557    0.886256
     12          1           0        3.460058   -1.110560   -0.886242
     13          1           0        4.360977    0.131122    0.000006
     14          8           0       -3.527565    0.376773    0.000012
     15          1           0       -2.891960    1.109652    0.000004
 ---------------------------------------------------------------------

 SCF Done:  E(UHF) =  -417.985807666     A.U. after   31 cycles
 E2 =    -0.1250079858D+01 EUMP2 =    -0.41923588752421D+03
 CCSD(T)= -0.41936202373D+03

 The electronic state is 2-A.
 Alpha  occ. eigenvalues --  -20.62365 -20.60344 -20.57461 -11.41959 -11.30550
 Alpha  occ. eigenvalues --  -11.28811 -11.27867 -11.23576  -1.49497  -1.39685
 Alpha  occ. eigenvalues --   -1.35737  -1.10242  -1.05228  -0.92145  -0.84281
 Alpha  occ. eigenvalues --   -0.78627  -0.72807  -0.70819  -0.70527  -0.64043
 Alpha  occ. eigenvalues --   -0.62749  -0.61550  -0.59872  -0.56580  -0.54004
 Alpha  occ. eigenvalues --   -0.53056  -0.53002  -0.50816  -0.48557  -0.43573
 Alpha  occ. eigenvalues --   -0.42447
 Alpha virt. eigenvalues --    0.03739   0.04767   0.05881   0.06145   0.07106
 Alpha virt. eigenvalues --    0.08118   0.08987   0.09406   0.11358   0.12299
 Alpha virt. eigenvalues --    0.12558   0.12811   0.14314   0.15571   0.16367

  Beta  occ. eigenvalues --  -20.62346 -20.57256 -20.56808 -11.42401 -11.31181
  Beta  occ. eigenvalues --  -11.30547 -11.24941 -11.23575  -1.49146  -1.38578
  Beta  occ. eigenvalues --   -1.25363  -1.07335  -1.04883  -0.92873  -0.84016
  Beta  occ. eigenvalues --   -0.78287  -0.72482  -0.70339  -0.69793  -0.61572
  Beta  occ. eigenvalues --   -0.60602  -0.59367  -0.56440  -0.52935  -0.52896
  Beta  occ. eigenvalues --   -0.51177  -0.48824  -0.47182  -0.46229  -0.42128
  Beta virt. eigenvalues --    0.03736   0.04738   0.05241   0.06124   0.06475
  Beta virt. eigenvalues --    0.07119   0.08409   0.09230   0.09389   0.12037
  Beta virt. eigenvalues --    0.12403   0.12726   0.13206   0.14589   0.15060

 Mulliken charges and spin densities:
               1          2
     1  C   -1.593085  -1.101131
     2  H    0.215089   0.087534
     3  C    1.886170   1.341206
     4  C   -0.275792  -0.157583
     5  O   -0.340099   0.120137
     6  O   -0.094014   0.001751
     7  C   -0.011099  -0.003752
     8  C   -0.612903   0.003866
     9  H    0.181830   0.000164
    10  H    0.181830   0.000164
    11  H    0.154135   0.000041
    12  H    0.154135   0.000041
    13  H    0.142729  -0.000073
    14  O   -0.260044   0.736609
    15  H    0.271118  -0.028973
 Sum of Mulliken charges =  -0.00000   1.00000

 Dipole moment (field-independent basis, Debye):
    X=              2.9648    Y=             -1.2819    Z=             -0.0000  Tot=              3.2300
 Quadrupole moment (field-independent basis, Debye-Ang):
   XX=            -46.9757   YY=            -47.9064   ZZ=            -47.5507
   XY=              5.3053   XZ=              0.0001   YZ=              0.0000

 PMP3-0=-419.2903052\MP4SDQ=-419.2964267\CCSD=-419.3070631\CCSD(T)=-419
 Normal termination of Gaussian 16 at Wed Apr 23 12:24:25 2025.
