 Gaussian 16, Revision A.03,
 Gaussian 16:  ES64L-G16RevA.03 25-Dec-2016

 --------------------------
 # ccsd(t)/6-311++g(d,p) sp
 --------------------------

 -------------------
 Title Card Required
 -------------------
 Symbolic Z-matrix:
 Charge =  0 Multiplicity = 2

                         Standard orientation:
 ---------------------------------------------------------------------
 Center     Atomic      Atomic             Coordinates (Angstroms)
 Number     Number       Type             X           Y           Z
 ---------------------------------------------------------------------
      1          6           0       -2.651434   -0.320881   -0.000000
      2          1           0       -3.698667   -0.127428    0.000001
      3          6           0       -1.504079   -0.684703   -0.000003
      4          6           0       -0.085772   -1.000894   -0.000005
      5          8           0        0.368404   -2.108474   -0.000010
      6          8           0        0.635300    0.126657   -0.000000
      7          6           0        2.067052   -0.051379   -0.000001
      8          6           0        2.688449    1.325188    0.000005
      9          1           0        2.341428   -0.630726    0.883680
     10          1           0        2.341428   -0.630718   -0.883687
     11          1           0        2.387977    1.884705   -0.886869
     12          1           0        2.387977    1.884698    0.886884
     13          1           0        3.775926    1.235517    0.000005
     14          8           0       -2.402589    1.846076    0.000011
     15          1           0       -1.430286    1.865901    0.000010
 ---------------------------------------------------------------------

 SCF Done:  E(UHF) =  -417.990844059     A.U. after   32 cycles
 E2 =    -0.1256909707D+01 EUMP2 =    -0.41924775376570D+03
 CCSD(T)= -0.41935626303D+03

 The electronic state is 2-A.
 Alpha  occ. eigenvalues --  -20.62453 -20.62300 -20.57108 -11.42012 -11.30616
 Alpha  occ. eigenvalues --  -11.26799 -11.26293 -11.23851  -1.49192  -1.39309
 Alpha  occ. eigenvalues --   -1.37933  -1.09309  -1.04990  -0.92368  -0.84229
 Alpha  occ. eigenvalues --   -0.78154  -0.73527  -0.70465  -0.70189  -0.66740
 Alpha  occ. eigenvalues --   -0.64908  -0.61227  -0.60186  -0.56802  -0.55178
 Alpha  occ. eigenvalues --   -0.53513  -0.53189  -0.49312  -0.48310  -0.43043
 Alpha  occ. eigenvalues --   -0.42153
 Alpha virt. eigenvalues --    0.03627   0.04713   0.05674   0.06082   0.06909
 Alpha virt. eigenvalues --    0.08767   0.09352   0.09557   0.11226   0.12289
 Alpha virt. eigenvalues --    0.12514   0.13270   0.15502   0.15696   0.16209

  Beta  occ. eigenvalues --  -20.62431 -20.58280 -20.56776 -11.42275 -11.30608
  Beta  occ. eigenvalues --  -11.27975 -11.24901 -11.23851  -1.48998  -1.38746
  Beta  occ. eigenvalues --   -1.22984  -1.08044  -1.04925  -0.92868  -0.84107
  Beta  occ. eigenvalues --   -0.77934  -0.73271  -0.70387  -0.69730  -0.62631
  Beta  occ. eigenvalues --   -0.60763  -0.59850  -0.56701  -0.53141  -0.53016
  Beta  occ. eigenvalues --   -0.50542  -0.48596  -0.47581  -0.43560  -0.42690
  Beta virt. eigenvalues --    0.03588   0.04648   0.05416   0.06077   0.06855
  Beta virt. eigenvalues --    0.07845   0.08635   0.09329   0.10809   0.12160
  Beta virt. eigenvalues --    0.12213   0.12317   0.13648   0.15222   0.15773

 Mulliken charges and spin densities:
               1          2
     1  C   -0.712108  -0.638908
     2  H    0.225561   0.052358
     3  C    1.278796   0.689568
     4  C   -0.545252  -0.094706
     5  O   -0.288713   0.066295
     6  O   -0.158491  -0.003766
     7  C   -0.013049   0.001494
     8  C   -0.607539  -0.000348
     9  H    0.181279  -0.000014
    10  H    0.181279  -0.000014
    11  H    0.154284   0.000009
    12  H    0.154284   0.000009
    13  H    0.142371   0.000057
    14  O   -0.244012   0.960427
    15  H    0.251310  -0.032461
 Sum of Mulliken charges =  -0.00000   1.00000

 Dipole moment (field-independent basis, Debye):
    X=              1.7404    Y=              1.9958    Z=              0.0000  Tot=              2.6481
 Quadrupole moment (field-independent basis, Debye-Ang):
   XX=            -39.2082   YY=            -56.1813   ZZ=            -47.6723
   XY=              4.9871   XZ=              0.0000   YZ=             -0.0000

 283489\MP4SDQ=-419.3014533\CCSD=-419.3036854\CCSD(T)=-419.356263\S2=0.
 Normal termination of Gaussian 16 at Tue Apr 22 05:03:14 2025.
