 Gaussian 16, Revision A.03,
 Gaussian 16:  ES64L-G16RevA.03 25-Dec-2016

 --------------------------
 # ccsd(t)/6-311++g(d,p) sp
 --------------------------

 -------------------
 Title Card Required
 -------------------
 Symbolic Z-matrix:
 Charge =  0 Multiplicity = 2

                         Standard orientation:
 ---------------------------------------------------------------------
 Center     Atomic      Atomic             Coordinates (Angstroms)
 Number     Number       Type             X           Y           Z
 ---------------------------------------------------------------------
      1          6           0       -2.307902   -1.238216   -0.000004
      2          1           0       -3.171441   -1.862838   -0.000005
      3          6           0       -1.214728   -0.726162   -0.000005
      4          6           0       -0.092675    0.197696   -0.000005
      5          8           0       -0.251658    1.390273   -0.000009
      6          8           0        1.080430   -0.420793    0.000001
      7          6           0        2.239938    0.438622    0.000002
      8          6           0        3.456571   -0.456601    0.000005
      9          1           0        2.194787    1.077837   -0.883887
     10          1           0        2.194784    1.077839    0.883890
     11          1           0        3.466406   -1.092211    0.886168
     12          1           0        3.466409   -1.092212   -0.886158
     13          1           0        4.360615    0.154546    0.000006
     14          8           0       -3.589010    0.442824    0.000012
     15          1           0       -2.916884    1.146568    0.000010
 ---------------------------------------------------------------------

 SCF Done:  E(UHF) =  -417.989316289     A.U. after   34 cycles
 E2 =    -0.1253879305D+01 EUMP2 =    -0.41924319559386D+03
 CCSD(T)= -0.41935572124D+03

 The electronic state is 2-A.
 Alpha  occ. eigenvalues --  -20.62291 -20.61582 -20.57187 -11.42096 -11.30445
 Alpha  occ. eigenvalues --  -11.26795 -11.26297 -11.23474  -1.49323  -1.39349
 Alpha  occ. eigenvalues --   -1.37234  -1.09202  -1.05010  -0.92120  -0.84028
 Alpha  occ. eigenvalues --   -0.78298  -0.73229  -0.70369  -0.70362  -0.65930
 Alpha  occ. eigenvalues --   -0.64347  -0.61179  -0.59752  -0.56499  -0.54596
 Alpha  occ. eigenvalues --   -0.53265  -0.52859  -0.50042  -0.48210  -0.43038
 Alpha  occ. eigenvalues --   -0.41880
 Alpha virt. eigenvalues --    0.03793   0.04693   0.05933   0.06233   0.07143
 Alpha virt. eigenvalues --    0.08158   0.08873   0.09496   0.11563   0.12274
 Alpha virt. eigenvalues --    0.12602   0.12934   0.14278   0.15570   0.16264

  Beta  occ. eigenvalues --  -20.62275 -20.57637 -20.56792 -11.42389 -11.30441
  Beta  occ. eigenvalues --  -11.28245 -11.24598 -11.23474  -1.49114  -1.38673
  Beta  occ. eigenvalues --   -1.22706  -1.07700  -1.04963  -0.92673  -0.83949
  Beta  occ. eigenvalues --   -0.78151  -0.72991  -0.70255  -0.69820  -0.61963
  Beta  occ. eigenvalues --   -0.60605  -0.59442  -0.56400  -0.52801  -0.52787
  Beta  occ. eigenvalues --   -0.50166  -0.48857  -0.47366  -0.43680  -0.42594
  Beta virt. eigenvalues --    0.03795   0.04639   0.05699   0.06225   0.06900
  Beta virt. eigenvalues --    0.07242   0.08656   0.09478   0.10003   0.12251
  Beta virt. eigenvalues --    0.12414   0.12762   0.13289   0.14849   0.15246

 Mulliken charges and spin densities:
               1          2
     1  C   -2.299780  -0.693581
     2  H    0.197221   0.063487
     3  C    2.555167   0.779596
     4  C   -0.249756  -0.134654
     5  O   -0.344645   0.073008
     6  O   -0.081017   0.001215
     7  C    0.005717   0.000114
     8  C   -0.633216   0.001395
     9  H    0.181555   0.000067
    10  H    0.181555   0.000067
    11  H    0.154438   0.000024
    12  H    0.154438   0.000024
    13  H    0.143218   0.000015
    14  O   -0.238987   0.943985
    15  H    0.274094  -0.034762
 Sum of Mulliken charges =  -0.00000   1.00000

 Dipole moment (field-independent basis, Debye):
    X=              2.4591    Y=             -0.8798    Z=              0.0000  Tot=              2.6117
 Quadrupole moment (field-independent basis, Debye-Ang):
   XX=            -43.8996   YY=            -48.1218   ZZ=            -47.6527
   XY=              4.5992   XZ=              0.0000   YZ=              0.0001

 MP3-0=-419.2827333\MP4SDQ=-419.2986176\CCSD=-419.3027479\CCSD(T)=-419.
 Normal termination of Gaussian 16 at Thu Apr 24 02:26:40 2025.
