 Gaussian 16, Revision A.03,
 Gaussian 16:  ES64L-G16RevA.03 25-Dec-2016

 --------------------------
 # ccsd(t)/6-311++g(d,p) sp
 --------------------------

 -------------------
 Title Card Required
 -------------------
 Symbolic Z-matrix:
 Charge =  0 Multiplicity = 2

                         Standard orientation:
 ---------------------------------------------------------------------
 Center     Atomic      Atomic             Coordinates (Angstroms)
 Number     Number       Type             X           Y           Z
 ---------------------------------------------------------------------
      1          6           0       -2.664523   -0.370058   -0.000001
      2          1           0       -3.705874   -0.147921    0.000001
      3          6           0       -1.505882   -0.687891   -0.000003
      4          6           0       -0.086897   -1.001210   -0.000005
      5          8           0        0.367122   -2.108831   -0.000010
      6          8           0        0.635376    0.125848   -0.000000
      7          6           0        2.066923   -0.054631   -0.000001
      8          6           0        2.691101    1.320659    0.000005
      9          1           0        2.340259   -0.634531    0.883631
     10          1           0        2.340259   -0.634524   -0.883638
     11          1           0        2.391846    1.880810   -0.886895
     12          1           0        2.391846    1.880803    0.886910
     13          1           0        3.778398    1.228836    0.000005
     14          8           0       -2.392646    1.896259    0.000011
     15          1           0       -1.419882    1.879107    0.000010
 ---------------------------------------------------------------------

 SCF Done:  E(UHF) =  -417.994566842     A.U. after   32 cycles
 E2 =    -0.1258235898D+01 EUMP2 =    -0.41925280273940D+03
 CCSD(T)= -0.41935801416D+03

 The electronic state is 2-A.
 Alpha  occ. eigenvalues --  -20.62500 -20.62456 -20.57095 -11.42092 -11.30643
 Alpha  occ. eigenvalues --  -11.26812 -11.26243 -11.23871  -1.49202  -1.39278
 Alpha  occ. eigenvalues --   -1.37979  -1.09143  -1.05000  -0.92456  -0.84238
 Alpha  occ. eigenvalues --   -0.78129  -0.73357  -0.70481  -0.70179  -0.66999
 Alpha  occ. eigenvalues --   -0.65051  -0.61194  -0.60194  -0.56811  -0.55222
 Alpha  occ. eigenvalues --   -0.53482  -0.53209  -0.49301  -0.48270  -0.42997
 Alpha  occ. eigenvalues --   -0.42249
 Alpha virt. eigenvalues --    0.03622   0.04712   0.05671   0.06075   0.06908
 Alpha virt. eigenvalues --    0.08655   0.09333   0.09568   0.11182   0.12294
 Alpha virt. eigenvalues --    0.12488   0.13158   0.15435   0.15638   0.16201

  Beta  occ. eigenvalues --  -20.62485 -20.58382 -20.56827 -11.42301 -11.30637
  Beta  occ. eigenvalues --  -11.27726 -11.25149 -11.23871  -1.49050  -1.38827
  Beta  occ. eigenvalues --   -1.22645  -1.08156  -1.04949  -0.92858  -0.84153
  Beta  occ. eigenvalues --   -0.77971  -0.73198  -0.70421  -0.69804  -0.62703
  Beta  occ. eigenvalues --   -0.60823  -0.59920  -0.56732  -0.53170  -0.53075
  Beta  occ. eigenvalues --   -0.50383  -0.48720  -0.47690  -0.43342  -0.42738
  Beta virt. eigenvalues --    0.03588   0.04674   0.05424   0.06072   0.06843
  Beta virt. eigenvalues --    0.07983   0.08553   0.09321   0.10927   0.12099
  Beta virt. eigenvalues --    0.12249   0.12274   0.13477   0.15214   0.15703

 Mulliken charges and spin densities:
               1          2
     1  C   -0.664586  -0.509237
     2  H    0.230237   0.041381
     3  C    1.250335   0.546938
     4  C   -0.568807  -0.077725
     5  O   -0.289528   0.053321
     6  O   -0.153074  -0.002748
     7  C   -0.014058   0.001072
     8  C   -0.608794  -0.000200
     9  H    0.181509  -0.000009
    10  H    0.181509  -0.000009
    11  H    0.154381   0.000012
    12  H    0.154381   0.000012
    13  H    0.142520   0.000028
    14  O   -0.244209   0.980670
    15  H    0.248185  -0.033508
 Sum of Mulliken charges =  -0.00000   1.00000

 Dipole moment (field-independent basis, Debye):
    X=              1.7598    Y=              1.9856    Z=              0.0000  Tot=              2.6532
 Quadrupole moment (field-independent basis, Debye-Ang):
   XX=            -39.1221   YY=            -56.3195   ZZ=            -47.7019
   XY=              5.0512   XZ=              0.0000   YZ=             -0.0000

 -419.2856424\MP4SDQ=-419.305137\CCSD=-419.3058302\CCSD(T)=-419.3580142
 Normal termination of Gaussian 16 at Mon Apr 21 17:40:35 2025.
