 Gaussian 16, Revision A.03,
 Gaussian 16:  ES64L-G16RevA.03 25-Dec-2016

 --------------------------
 # ccsd(t)/6-311++g(d,p) sp
 --------------------------

 -------------------
 Title Card Required
 -------------------
 Symbolic Z-matrix:
 Charge =  0 Multiplicity = 2

                         Standard orientation:
 ---------------------------------------------------------------------
 Center     Atomic      Atomic             Coordinates (Angstroms)
 Number     Number       Type             X           Y           Z
 ---------------------------------------------------------------------
      1          6           0       -2.443363   -1.029275   -0.000004
      2          1           0       -3.111858   -1.874158   -0.000008
      3          6           0       -1.206379   -0.741273   -0.000005
      4          6           0       -0.094269    0.198946   -0.000005
      5          8           0       -0.244871    1.392518   -0.000009
      6          8           0        1.076723   -0.427357    0.000001
      7          6           0        2.242576    0.423566    0.000002
      8          6           0        3.452568   -0.480522    0.000005
      9          1           0        2.202026    1.063006   -0.883967
     10          1           0        2.202023    1.063008    0.883969
     11          1           0        3.457907   -1.116091    0.886248
     12          1           0        3.457910   -1.116095   -0.886235
     13          1           0        4.361012    0.124026    0.000006
     14          8           0       -3.505944    0.351567    0.000012
     15          1           0       -2.883073    1.093831    0.000004
 ---------------------------------------------------------------------

 SCF Done:  E(UHF) =  -417.993848309     A.U. after   30 cycles
 E2 =    -0.1256725204D+01 EUMP2 =    -0.41925057351245D+03
 CCSD(T)= -0.41937338014D+03

 The electronic state is 2-A.
 Alpha  occ. eigenvalues --  -20.62399 -20.59565 -20.57601 -11.41951 -11.30635
 Alpha  occ. eigenvalues --  -11.30590 -11.28649 -11.23619  -1.49535  -1.39768
 Alpha  occ. eigenvalues --   -1.34706  -1.10700  -1.05326  -0.92326  -0.84508
 Alpha  occ. eigenvalues --   -0.78817  -0.72716  -0.71006  -0.70583  -0.63446
 Alpha  occ. eigenvalues --   -0.61741  -0.61670  -0.59811  -0.56572  -0.54005
 Alpha  occ. eigenvalues --   -0.53045  -0.52533  -0.50955  -0.48654  -0.43665
 Alpha  occ. eigenvalues --   -0.42615
 Alpha virt. eigenvalues --    0.03702   0.04763   0.05857   0.06103   0.07094
 Alpha virt. eigenvalues --    0.08136   0.08888   0.09357   0.11270   0.12318
 Alpha virt. eigenvalues --    0.12459   0.12783   0.14319   0.15494   0.16335

  Beta  occ. eigenvalues --  -20.62381 -20.57253 -20.56885 -11.42407 -11.32949
  Beta  occ. eigenvalues --  -11.30587 -11.25387 -11.23618  -1.49143  -1.38557
  Beta  occ. eigenvalues --   -1.27423  -1.07216  -1.04660  -0.92937  -0.84077
  Beta  occ. eigenvalues --   -0.78372  -0.72289  -0.70366  -0.69816  -0.61482
  Beta  occ. eigenvalues --   -0.60621  -0.59333  -0.56462  -0.53259  -0.52926
  Beta  occ. eigenvalues --   -0.51782  -0.49717  -0.47594  -0.47165  -0.41637
  Beta virt. eigenvalues --    0.03688   0.04714   0.05059   0.06073   0.06345
  Beta virt. eigenvalues --    0.07102   0.08172   0.09050   0.09348   0.11934
  Beta virt. eigenvalues --    0.12396   0.12714   0.13063   0.14531   0.14975

 Mulliken charges and spin densities:
               1          2
     1  C   -1.353264  -1.074832
     2  H    0.220156   0.086310
     3  C    1.632623   1.475611
     4  C   -0.226751  -0.148195
     5  O   -0.338860   0.131731
     6  O   -0.097889   0.001708
     7  C   -0.015968  -0.005731
     8  C   -0.605685   0.004564
     9  H    0.182007   0.000233
    10  H    0.182007   0.000233
    11  H    0.153921   0.000049
    12  H    0.153921   0.000049
    13  H    0.142572  -0.000125
    14  O   -0.298052   0.550975
    15  H    0.269262  -0.022580
 Sum of Mulliken charges =  -0.00000   1.00000

 Dipole moment (field-independent basis, Debye):
    X=              3.2119    Y=             -1.4964    Z=             -0.0000  Tot=              3.5434
 Quadrupole moment (field-independent basis, Debye-Ang):
   XX=            -48.6865   YY=            -47.8488   ZZ=            -47.5111
   XY=              5.7773   XZ=              0.0001   YZ=              0.0000

 P3-0=-419.3007908\MP4SDQ=-419.309472\CCSD=-419.3184118\CCSD(T)=-419.37
 Normal termination of Gaussian 16 at Thu Apr 24 04:11:27 2025.
