 Gaussian 16, Revision A.03,
 Gaussian 16:  ES64L-G16RevA.03 25-Dec-2016

 --------------------------
 # ccsd(t)/6-311++g(d,p) sp
 --------------------------

 -------------------
 Title Card Required
 -------------------
 Symbolic Z-matrix:
 Charge =  0 Multiplicity = 2

                         Standard orientation:
 ---------------------------------------------------------------------
 Center     Atomic      Atomic             Coordinates (Angstroms)
 Number     Number       Type             X           Y           Z
 ---------------------------------------------------------------------
      1          6           0        2.630336    0.229114    0.000000
      2          1           0        3.693815    0.143380    0.000001
      3          6           0        1.504194    0.687365   -0.000003
      4          6           0        0.083787    1.000289   -0.000005
      5          8           0       -0.371162    2.107784   -0.000010
      6          8           0       -0.634134   -0.127913    0.000000
      7          6           0       -2.067180    0.046721   -0.000001
      8          6           0       -2.685258   -1.331273    0.000005
      9          1           0       -2.342388    0.625408    0.883806
     10          1           0       -2.342387    0.625401   -0.883814
     11          1           0       -2.383477   -1.890109   -0.886794
     12          1           0       -2.383477   -1.890101    0.886808
     13          1           0       -3.772908   -1.243629    0.000004
     14          8           0        2.416291   -1.770237    0.000010
     15          1           0        1.447594   -1.840710    0.000010
 ---------------------------------------------------------------------

 SCF Done:  E(UHF) =  -417.984124593     A.U. after   35 cycles
 E2 =    -0.1252995042D+01 EUMP2 =    -0.41923711963550D+03
 CCSD(T)= -0.41935456046D+03

 The electronic state is 2-A.
 Alpha  occ. eigenvalues --  -20.62436 -20.61771 -20.57221 -11.41935 -11.30625
 Alpha  occ. eigenvalues --  -11.27203 -11.26769 -11.23841  -1.49257  -1.39448
 Alpha  occ. eigenvalues --   -1.37467  -1.09769  -1.05044  -0.92228  -0.84296
 Alpha  occ. eigenvalues --   -0.78281  -0.73707  -0.70496  -0.70249  -0.65834
 Alpha  occ. eigenvalues --   -0.64359  -0.61375  -0.60206  -0.56818  -0.54813
 Alpha  occ. eigenvalues --   -0.53614  -0.53201  -0.49409  -0.48471  -0.43268
 Alpha  occ. eigenvalues --   -0.42243
 Alpha virt. eigenvalues --    0.03629   0.04738   0.05677   0.06084   0.06894
 Alpha virt. eigenvalues --    0.08918   0.09393   0.09525   0.11150   0.12249
 Alpha virt. eigenvalues --    0.12530   0.13077   0.15620   0.15654   0.15983

  Beta  occ. eigenvalues --  -20.62397 -20.57997 -20.56750 -11.42314 -11.30611
  Beta  occ. eigenvalues --  -11.28984 -11.24690 -11.23840  -1.48965  -1.38644
  Beta  occ. eigenvalues --   -1.23903  -1.07818  -1.04900  -0.92916  -0.84071
  Beta  occ. eigenvalues --   -0.77919  -0.73304  -0.70376  -0.69631  -0.62391
  Beta  occ. eigenvalues --   -0.60704  -0.59735  -0.56669  -0.53133  -0.52955
  Beta  occ. eigenvalues --   -0.50891  -0.48417  -0.47416  -0.44439  -0.42585
  Beta virt. eigenvalues --    0.03589   0.04646   0.05331   0.06076   0.06831
  Beta virt. eigenvalues --    0.07414   0.08687   0.09333   0.10495   0.12057
  Beta virt. eigenvalues --    0.12102   0.12419   0.13543   0.15209   0.15686

 Mulliken charges and spin densities:
               1          2
     1  C   -2.256566  -0.890724
     2  H    0.208821   0.074439
     3  C    2.431025   0.887172
     4  C   -0.115438  -0.027654
     5  O   -0.288274   0.093617
     6  O   -0.169605  -0.005822
     7  C    0.010436   0.006134
     8  C   -0.644201  -0.001682
     9  H    0.181839  -0.000072
    10  H    0.181839  -0.000072
    11  H    0.154706   0.000013
    12  H    0.154706   0.000013
    13  H    0.142413   0.000147
    14  O   -0.245170   0.893849
    15  H    0.253469  -0.029357
 Sum of Mulliken charges =  -0.00000   1.00000

 Dipole moment (field-independent basis, Debye):
    X=             -1.7630    Y=             -1.8039    Z=              0.0000  Tot=              2.5223
 Quadrupole moment (field-independent basis, Debye-Ang):
   XX=            -39.5194   YY=            -56.2382   ZZ=            -47.6086
   XY=              5.5090   XZ=             -0.0000   YZ=              0.0000

 Normal termination of Gaussian 16 at Tue Apr 22 08:33:52 2025.
