 Gaussian 16, Revision A.03,
 Gaussian 16:  ES64L-G16RevA.03 25-Dec-2016

 -----------------------
 # ccsd(t)/6-311++g** sp
 -----------------------

 -------------------
 Title Card Required
 -------------------
 Symbolic Z-matrix:
 Charge =  0 Multiplicity = 1

                         Standard orientation:
 ---------------------------------------------------------------------
 Center     Atomic      Atomic             Coordinates (Angstroms)
 Number     Number       Type             X           Y           Z
 ---------------------------------------------------------------------
      1          6           0        3.028682   -0.450012    0.287411
      2          1           0        4.039031   -0.738035    0.460584
      3          6           0        1.891843   -0.126548    0.092012
      4          6           0        0.525268    0.322655   -0.138344
      5          8           0        0.196638    1.476469   -0.149836
      6          8           0       -0.291307   -0.712440   -0.336635
      7          6           0       -1.678905   -0.391432   -0.562669
      8          6           0       -2.390695   -0.099634    0.743804
      9          1           0       -2.078941   -1.278809   -1.049863
     10          1           0       -1.734595    0.456458   -1.246325
     11          1           0       -3.452616    0.066113    0.552249
     12          1           0       -2.290475   -0.943337    1.428203
     13          1           0       -1.982209    0.795191    1.213628
 ---------------------------------------------------------------------

 SCF Done:  E(RHF) =  -342.587442317     A.U. after   17 cycles
 E2 =    -0.1090376726D+01 EUMP2 =    -0.34367781904337D+03
 CCSD(T)= -0.34376046014D+03

 The electronic state is 1-A.
 Alpha  occ. eigenvalues --  -20.61592 -20.56305 -11.41777 -11.29899 -11.26662
 Alpha  occ. eigenvalues --  -11.25973 -11.22738  -1.48464  -1.38326  -1.07895
 Alpha  occ. eigenvalues --   -1.04067  -0.92628  -0.83940  -0.76595  -0.72962
 Alpha  occ. eigenvalues --   -0.69794  -0.66649  -0.63521  -0.58623  -0.55202
 Alpha  occ. eigenvalues --   -0.54317  -0.50801  -0.48476  -0.46861  -0.42649
 Alpha  occ. eigenvalues --   -0.42536
 Alpha virt. eigenvalues --    0.03833   0.04439   0.05881   0.06711   0.07948
 Alpha virt. eigenvalues --    0.08468   0.09287   0.10720   0.11672   0.12521
 Alpha virt. eigenvalues --    0.13513   0.13714   0.14741   0.15934   0.17596

 Mulliken charges:
               1
     1  C   -0.610821
     2  H    0.206048
     3  C    1.220337
     4  C   -0.703229
     5  O   -0.292642
     6  O   -0.083540
     7  C   -0.168705
     8  C   -0.362902
     9  H    0.165480
    10  H    0.179194
    11  H    0.133255
    12  H    0.144255
    13  H    0.173269
 Sum of Mulliken charges =  -0.00000

 Dipole moment (field-independent basis, Debye):
    X=             -0.3004    Y=             -1.9470    Z=              0.0626  Tot=              1.9710
 Quadrupole moment (field-independent basis, Debye-Ang):
   XX=            -27.7161   YY=            -47.5436   ZZ=            -40.9542
   XY=             -1.9607   XZ=              2.2317   YZ=             -0.1210

 1\1\GINC-AJ\SP\RCCSD(T)-FC\6-311++G(d,p)\C5H6O2\AAYUSH\23-May-2025\0\\
 # ccsd(t)/6-311++g** sp\\Title Card Required\\0,1\C,0,3.028682,-0.4500
 12,0.287411\H,0,4.039031,-0.738036,0.460584\C,0,1.891843,-0.126548,0.0
 92012\C,0,0.525268,0.322655,-0.138344\O,0,0.196638,1.476469,-0.149836\
 O,0,-0.291307,-0.71244,-0.336635\C,0,-1.678905,-0.391432,-0.562669\C,0
 ,-2.390695,-0.099634,0.743804\H,0,-2.078941,-1.278809,-1.049863\H,0,-1
 .734595,0.456458,-1.246325\H,0,-3.452616,0.066113,0.552249\H,0,-2.2904
 75,-0.943337,1.428203\H,0,-1.982209,0.795191,1.213628\\Version=ES64L-G

 173\CCSD(T)=-343.7604601\RMSD=5.372e-09\PG=C01 [X(C5H6O2)]\\@
 Normal termination of Gaussian 16 at Fri May 23 14:16:51 2025.
