 Gaussian 16, Revision A.03,
 Gaussian 16:  ES64L-G16RevA.03 25-Dec-2016

 -----------------------
 # ccsd(t)/6-311++g** sp
 -----------------------

 -------------------
 Title Card Required
 -------------------
 Symbolic Z-matrix:
 Charge =  0 Multiplicity = 1

                         Standard orientation:
 ---------------------------------------------------------------------
 Center     Atomic      Atomic             Coordinates (Angstroms)
 Number     Number       Type             X           Y           Z
 ---------------------------------------------------------------------
      1          6           0        2.070212    1.626077    0.000001
      2          1           0        2.619102    2.538916    0.000002
      3          6           0        1.461888    0.592783   -0.000000
      4          6           0        0.784044   -0.705529   -0.000001
      5          8           0        1.389625   -1.734917   -0.000002
      6          8           0       -0.553137   -0.679936   -0.000000
      7          6           0       -1.258217    0.573706    0.000001
      8          6           0       -2.733552    0.245081    0.000001
      9          1           0       -0.975300    1.144991   -0.887250
     10          1           0       -0.975300    1.144988    0.887254
     11          1           0       -3.317399    1.167021    0.000002
     12          1           0       -2.994633   -0.334898   -0.885597
     13          1           0       -2.994633   -0.334901    0.885597
 ---------------------------------------------------------------------

 SCF Done:  E(RHF) =  -342.578472845     A.U. after   17 cycles
 E2 =    -0.1091566535D+01 EUMP2 =    -0.34367003937996D+03
 CCSD(T)= -0.34375253407D+03

 The electronic state is 1-A.
 Alpha  occ. eigenvalues --  -20.61358 -20.55778 -11.41696 -11.30833 -11.27640
 Alpha  occ. eigenvalues --  -11.26895 -11.23486  -1.47829  -1.38403  -1.07767
 Alpha  occ. eigenvalues --   -1.05493  -0.90383  -0.88072  -0.76821  -0.73548
 Alpha  occ. eigenvalues --   -0.69888  -0.67984  -0.60656  -0.58990  -0.56638
 Alpha  occ. eigenvalues --   -0.53110  -0.52605  -0.48139  -0.47071  -0.43243
 Alpha  occ. eigenvalues --   -0.43118
 Alpha virt. eigenvalues --    0.03074   0.04239   0.06024   0.06341   0.07393
 Alpha virt. eigenvalues --    0.07750   0.09515   0.09673   0.11639   0.12500
 Alpha virt. eigenvalues --    0.12569   0.13558   0.15426   0.15583   0.16301

 Mulliken charges:
               1
     1  C   -2.056720
     2  H    0.207409
     3  C    2.135616
     4  C    0.160337
     5  O   -0.339213
     6  O   -0.175019
     7  C   -0.091410
     8  C   -0.602129
     9  H    0.150676
    10  H    0.150676
    11  H    0.141145
    12  H    0.159316
    13  H    0.159316
 Sum of Mulliken charges =  -0.00000

 Dipole moment (field-independent basis, Debye):
    X=             -1.6563    Y=              5.0696    Z=              0.0000  Tot=              5.3333
 Quadrupole moment (field-independent basis, Debye-Ang):
   XX=            -39.0580   YY=            -43.0430   ZZ=            -41.0449
   XY=              6.9505   XZ=              0.0000   YZ=             -0.0000

 1\1\GINC-AJ\SP\RCCSD(T)-FC\6-311++G(d,p)\C5H6O2\AAYUSH\23-May-2025\0\\
 # ccsd(t)/6-311++g** sp\\Title Card Required\\0,1\C,0,2.070212,1.62607
 7,0.000001\H,0,2.619101,2.538916,0.000002\C,0,1.461888,0.592783,0.\C,0
 ,0.784044,-0.705529,-0.000001\O,0,1.389625,-1.734917,-0.000002\O,0,-0.
 553137,-0.679936,0.\C,0,-1.258217,0.573706,0.000001\C,0,-2.733552,0.24
 5081,0.000001\H,0,-0.9753,1.144991,-0.88725\H,0,-0.9753,1.144988,0.887
 254\H,0,-3.317399,1.167021,0.000002\H,0,-2.994633,-0.334898,-0.885597\
 H,0,-2.994633,-0.334901,0.885597\\Version=ES64L-G16RevA.03\State=1-A\H

 DQ=-343.6917065\MP4SDQ=-343.7078483\CCSD=-343.7048307\CCSD(T)=-343.752
 Normal termination of Gaussian 16 at Fri May 23 17:15:50 2025.
