 Gaussian 16, Revision A.03,
 Gaussian 16:  ES64L-G16RevA.03 25-Dec-2016

 --------------------------
 # ccsd(t)/6-311++g(d,p) sp
 --------------------------

 -------------------
 Title Card Required
 -------------------
 Symbolic Z-matrix:
 Charge =  0 Multiplicity = 2

                         Standard orientation:
 ---------------------------------------------------------------------
 Center     Atomic      Atomic             Coordinates (Angstroms)
 Number     Number       Type             X           Y           Z
 ---------------------------------------------------------------------
      1          6           0        1.346885    2.236626   -0.067821
      2          1           0        1.271661    3.299143   -0.082901
      3          6           0        1.438455    1.041238   -0.050619
      4          6           0        1.630955   -0.410056   -0.000164
      5          8           0        2.680910   -0.896481    0.291389
      6          8           0        0.572822   -1.172899   -0.308959
      7          6           0       -0.712869   -0.583600   -0.571134
      8          6           0       -1.430337   -0.274890    0.721418
      9          1           0       -0.600529    0.307742   -1.190069
     10          1           0       -1.246654   -1.340290   -1.142517
     11          1           0       -1.594602   -1.159931    1.334999
     12          1           0       -0.983454    0.537963    1.293931
     13          1           0       -2.514106    0.142279    0.389713
     14          8           0       -3.722144    0.376131   -0.126605
     15          1           0       -4.223561   -0.296821    0.360164
 ---------------------------------------------------------------------

 SCF Done:  E(UHF) =  -417.953316710     A.U. after   33 cycles
 E2 =    -0.1282554010D+01 EUMP2 =    -0.41923587072021D+03
 CCSD(T)= -0.41933787579D+03

 The electronic state is 2-A.
 Alpha  occ. eigenvalues --  -20.64196 -20.61331 -20.55799 -11.41732 -11.30812
 Alpha  occ. eigenvalues --  -11.27624 -11.26890 -11.25220  -1.47815  -1.40707
 Alpha  occ. eigenvalues --   -1.38440  -1.07734  -1.06099  -0.92307  -0.87944
 Alpha  occ. eigenvalues --   -0.75998  -0.74207  -0.73079  -0.69746  -0.68281
 Alpha  occ. eigenvalues --   -0.66062  -0.63859  -0.58314  -0.57104  -0.56374
 Alpha  occ. eigenvalues --   -0.52193  -0.49447  -0.47609  -0.45840  -0.43291
 Alpha  occ. eigenvalues --   -0.43063
 Alpha virt. eigenvalues --    0.03233   0.03802   0.05576   0.06674   0.07122
 Alpha virt. eigenvalues --    0.07868   0.08983   0.09511   0.11496   0.12166
 Alpha virt. eigenvalues --    0.12791   0.13419   0.14675   0.15310   0.16260

  Beta  occ. eigenvalues --  -20.61228 -20.60515 -20.55805 -11.41731 -11.30893
  Beta  occ. eigenvalues --  -11.27618 -11.26895 -11.24118  -1.47669  -1.38336
  Beta  occ. eigenvalues --   -1.27547  -1.07731  -1.04409  -0.91242  -0.86944
  Beta  occ. eigenvalues --   -0.75803  -0.73324  -0.69648  -0.67371  -0.65943
  Beta  occ. eigenvalues --   -0.63729  -0.58023  -0.56237  -0.52738  -0.52640
  Beta  occ. eigenvalues --   -0.51148  -0.48123  -0.46553  -0.43325  -0.43118
  Beta virt. eigenvalues --    0.02971   0.03624   0.04460   0.05599   0.07064
  Beta virt. eigenvalues --    0.07809   0.08409   0.09003   0.09602   0.11579
  Beta virt. eigenvalues --    0.12224   0.12836   0.13451   0.14678   0.15336

 Mulliken charges and spin densities:
               1          2
     1  C   -1.753854   0.007761
     2  H    0.225119  -0.000285
     3  C    1.948494  -0.004903
     4  C   -0.062795  -0.001831
     5  O   -0.332196  -0.001452
     6  O   -0.146958   0.008747
     7  C   -0.161884  -0.030234
     8  C   -0.520565   0.441041
     9  H    0.152890   0.001913
    10  H    0.183158  -0.000190
    11  H    0.183581  -0.025139
    12  H    0.143051  -0.021397
    13  H    0.168388  -0.173491
    14  O   -0.283835   0.828128
    15  H    0.257407  -0.028668
 Sum of Mulliken charges =  -0.00000   1.00000

 Dipole moment (field-independent basis, Debye):
    X=             -4.5146    Y=              2.1100    Z=              0.2070  Tot=              4.9876
 Quadrupole moment (field-independent basis, Debye-Ang):
   XX=            -53.2256   YY=            -43.4770   ZZ=            -47.2443
   XY=             12.6778   XZ=             -5.2193   YZ=             -0.1199

 6\PMP3-0=-419.261073\MP4SDQ=-419.2839108\CCSD=-419.2831762\CCSD(T)=-41
 Normal termination of Gaussian 16 at Sun May  4 11:26:20 2025.
