 Gaussian 16, Revision A.03,
 Gaussian 16:  ES64L-G16RevA.03 25-Dec-2016

 --------------------------
 # freq 6-311++g(d,p) m062x
 --------------------------

 -------------------
 Title Card Required
 -------------------
 Symbolic Z-matrix:
 Charge =  0 Multiplicity = 2

                         Standard orientation:
 ---------------------------------------------------------------------
 Center     Atomic      Atomic             Coordinates (Angstroms)
 Number     Number       Type             X           Y           Z
 ---------------------------------------------------------------------
      1          6           0        1.347811    2.236302   -0.067985
      2          1           0        1.272668    3.298875   -0.083527
      3          6           0        1.439305    1.040913   -0.050392
      4          6           0        1.632025   -0.410060    0.000648
      5          8           0        2.681513   -0.896819    0.292324
      6          8           0        0.573229   -1.173306   -0.307879
      7          6           0       -0.712946   -0.583594   -0.571365
      8          6           0       -1.428287   -0.275667    0.721440
      9          1           0       -0.599825    0.307477   -1.190140
     10          1           0       -1.246210   -1.340817   -1.142178
     11          1           0       -1.605186   -1.157923    1.334789
     12          1           0       -0.998064    0.547247    1.291319
     13          1           0       -2.586738    0.155542    0.355045
     14          8           0       -3.714947    0.374686   -0.124186
     15          1           0       -4.222453   -0.294252    0.358547
 ---------------------------------------------------------------------

 SCF Done:  E(UM062X) =  -420.190105248     A.U. after   19 cycles

 The electronic state is 2-A.
 Alpha  occ. eigenvalues --  -19.69214 -19.65661 -19.63562 -10.71453 -10.62586
 Alpha  occ. eigenvalues --  -10.58483 -10.58447 -10.58037  -1.26050  -1.17505
 Alpha  occ. eigenvalues --   -1.13210  -0.90388  -0.89967  -0.78666  -0.74630
 Alpha  occ. eigenvalues --   -0.65367  -0.62424  -0.60361  -0.59183  -0.57151
 Alpha  occ. eigenvalues --   -0.54635  -0.51841  -0.49944  -0.49322  -0.44287
 Alpha  occ. eigenvalues --   -0.41636  -0.40961  -0.39907  -0.38372  -0.37104
 Alpha  occ. eigenvalues --   -0.35070
 Alpha virt. eigenvalues --   -0.02795  -0.01199  -0.00036   0.01130   0.01949
 Alpha virt. eigenvalues --    0.02332   0.03723   0.04136   0.05079   0.06618
 Alpha virt. eigenvalues --    0.06843   0.07223   0.07974   0.08969   0.10283

  Beta  occ. eigenvalues --  -19.69124 -19.64626 -19.63553 -10.71455 -10.62605
  Beta  occ. eigenvalues --  -10.58482 -10.58037 -10.57971  -1.25873  -1.17368
  Beta  occ. eigenvalues --   -1.09306  -0.90070  -0.89161  -0.77764  -0.74153
  Beta  occ. eigenvalues --   -0.65050  -0.62287  -0.59191  -0.57669  -0.55212
  Beta  occ. eigenvalues --   -0.54233  -0.49822  -0.48717  -0.46149  -0.43798
  Beta  occ. eigenvalues --   -0.40527  -0.39701  -0.39160  -0.38128  -0.37002
  Beta virt. eigenvalues --   -0.12116  -0.02756  -0.00959   0.00065   0.01192
  Beta virt. eigenvalues --    0.02082   0.02644   0.03781   0.04200   0.05177
  Beta virt. eigenvalues --    0.06729   0.06904   0.07198   0.08100   0.09013

 Mulliken charges and spin densities:
               1          2
     1  C   -1.338189  -0.013349
     2  H    0.201875  -0.000328
     3  C    1.553067   0.003066
     4  C   -0.210723   0.010548
     5  O   -0.241348   0.004013
     6  O   -0.031530   0.019012
     7  C   -0.294371  -0.005733
     8  C   -0.515326   0.563792
     9  H    0.185738   0.000692
    10  H    0.204351  -0.001161
    11  H    0.219822  -0.019040
    12  H    0.170393  -0.010230
    13  H    0.256358  -0.068172
    14  O   -0.406691   0.523682
    15  H    0.246575  -0.006792
 Sum of Mulliken charges =  -0.00000   1.00000

 Dipole moment (field-independent basis, Debye):
    X=             -2.6840    Y=              1.5479    Z=              0.5876  Tot=              3.1536
 Quadrupole moment (field-independent basis, Debye-Ang):
   XX=            -59.0301   YY=            -43.2685   ZZ=            -46.8890
   XY=             12.8219   XZ=             -5.8654   YZ=             -0.0836

  Exact polarizability: 100.657  -5.671  78.738   7.320  -1.966  51.360
 Approx polarizability:  98.330 -11.171 100.383   9.998  -3.682  60.954

 ******    1 imaginary frequencies (negative Signs) ******

                      1                      2                      3
                      A                      A                      A
 Frequencies --  -1700.1096                59.6340                74.4455
 Red. masses --      1.0712                 5.8039                 6.4739
 Frc consts  --      1.8243                 0.0122                 0.0211
 IR Inten    --    894.9542                 4.6615                 3.0272

                      4                      5                      6
                      A                      A                      A
 Frequencies --    111.3716               142.3006               172.6814
 Red. masses --      2.7805                 4.2315                 1.2915
 Frc consts  --      0.0203                 0.0505                 0.0227
 IR Inten    --      1.6525                 1.3540                93.0596

                      7                      8                      9
                      A                      A                      A
 Frequencies --    180.0105               258.5420               317.3226
 Red. masses --      2.6632                 5.0297                 3.4281
 Frc consts  --      0.0508                 0.1981                 0.2034
 IR Inten    --     26.5293                 0.6823                 6.7249

                     10                     11                     12
                      A                      A                      A
 Frequencies --    368.7888               452.3037               555.1457
 Red. masses --      4.7956                 1.2295                 6.5260
 Frc consts  --      0.3843                 0.1482                 1.1850
 IR Inten    --      1.8838                 5.7325                32.5200

                     13                     14                     15
                      A                      A                      A
 Frequencies --    614.6273               632.6540               737.4179
 Red. masses --      2.5607                 4.3554                 1.3184
 Frc consts  --      0.5700                 1.0271                 0.4224
 IR Inten    --     12.9331                 3.8574                38.2578

                     16                     17                     18
                      A                      A                      A
 Frequencies --    761.7118               769.4575               778.6047
 Red. masses --      4.9231                 8.2106                 1.2879
 Frc consts  --      1.6829                 2.8641                 0.4600
 IR Inten    --     14.6255                18.5626                43.0245

                     19                     20                     21
                      A                      A                      A
 Frequencies --    795.9272               856.5126              1012.4640
 Red. masses --      1.2464                 1.2992                 1.6781
 Frc consts  --      0.4652                 0.5616                 1.0135
 IR Inten    --     45.7460                53.7471                20.4329

                     22                     23                     24
                      A                      A                      A
 Frequencies --   1088.5705              1105.9714              1174.0670
 Red. masses --      2.4477                 3.5586                 1.8719
 Frc consts  --      1.7089                 2.5646                 1.5202
 IR Inten    --     34.9824                54.9887               112.3345

                     25                     26                     27
                      A                      A                      A
 Frequencies --   1213.3926              1257.6925              1340.5331
 Red. masses --      1.2810                 2.6086                 1.2088
 Frc consts  --      1.1112                 2.4311                 1.2799
 IR Inten    --     81.8986               337.6046               104.9641

                     28                     29                     30
                      A                      A                      A
 Frequencies --   1403.2041              1413.9113              1470.6476
 Red. masses --      1.0849                 1.2525                 1.1644
 Frc consts  --      1.2586                 1.4752                 1.4838
 IR Inten    --     37.1341                30.6435                 8.6557

                     31                     32                     33
                      A                      A                      A
 Frequencies --   1515.9956              1869.4463              2252.1095
 Red. masses --      1.0919                13.0250                 5.7240
 Frc consts  --      1.4785                26.8196                17.1052
 IR Inten    --     20.9592               532.6652                56.7700

                     34                     35                     36
                      A                      A                      A
 Frequencies --   3108.7300              3116.9719              3167.9056
 Red. masses --      1.0591                 1.0563                 1.1067
 Frc consts  --      6.0303                 6.0462                 6.5438
 IR Inten    --      2.1842                 8.5205                 2.8343

                     37                     38                     39
                      A                      A                      A
 Frequencies --   3199.2302              3487.0219              3826.9992
 Red. masses --      1.1110                 1.1702                 1.0669
 Frc consts  --      6.6999                 8.3834                 9.2064
 IR Inten    --      4.9148                60.9975                74.6327

 - Thermochemistry -
 -------------------
 Temperature   298.150 Kelvin.  Pressure   1.00000 Atm.
 Atom     1 has atomic number  6 and mass  12.00000

 Molecular mass:   115.03952 amu.
 Principal axes and moments of inertia in atomic units:
                           1         2         3
     Eigenvalues --   540.785911789.995222189.21696
           X            0.99973   0.02180  -0.00841
           Y           -0.02180   0.99976  -0.00046
           Z            0.00840   0.00064   0.99996
 This molecule is an asymmetric top.
 Rotational symmetry number  1.
 Warning -- assumption of classical behavior for rotation
           may cause significant error
 Rotational temperatures (Kelvin)      0.16016     0.04839     0.03956
 Rotational constants (GHZ):           3.33726     1.00824     0.82438
    1 imaginary frequencies ignored.
 Zero-point vibrational energy     279114.6 (Joules/Mol)
                                   66.71000 (Kcal/Mol)
 Warning -- explicit consideration of  12 degrees of freedom as
           vibrations may cause significant error
 Vibrational temperatures:     85.80   107.11   160.24   204.74   248.45
          (Kelvin)            258.99   371.98   456.56   530.60   650.76
                              798.73   884.31   910.25  1060.98  1095.93
                             1107.08  1120.24  1145.16  1232.33  1456.71
                             1566.21  1591.25  1689.22  1745.80  1809.54
                             1928.73  2018.90  2034.30  2115.93  2181.18
                             2689.72  3240.28  4472.77  4484.63  4557.91
                             4602.98  5017.05  5506.20

 Zero-point correction=                           0.106309 (Hartree/Particle)
 Thermal correction to Energy=                    0.115939
 Thermal correction to Enthalpy=                  0.116883
 Thermal correction to Gibbs Free Energy=         0.070373
 Sum of electronic and zero-point Energies=           -419.3386174
 Sum of electronic and thermal Energies=              -420.074166
 Sum of electronic and thermal Enthalpies=            -420.073222
 Sum of electronic and thermal Free Energies=         -420.119732

                     E (Thermal)             CV                S
                      KCal/Mol        Cal/Mol-Kelvin    Cal/Mol-Kelvin
 Total                   72.753             32.983             97.890
 Electronic               0.000              0.000              1.377
 Translational            0.889              2.981             40.136
 Rotational               0.889              2.981             29.140
 Vibrational             70.976             27.022             27.237
 Vibration     1          0.597              1.974              4.469
 Vibration     2          0.599              1.966              4.032
 Vibration     3          0.607              1.940              3.245
 Vibration     4          0.616              1.911              2.773
 Vibration     5          0.626              1.876              2.406
 Vibration     6          0.629              1.867              2.328
 Vibration     7          0.667              1.748              1.672
 Vibration     8          0.704              1.641              1.324
 Vibration     9          0.741              1.536              1.085
 Vibration    10          0.811              1.356              0.789
 Vibration    11          0.911              1.128              0.534
 Vibration    12          0.974              1.001              0.425

 1\1\GINC-AJ\Freq\UM062X\6-311++G(d,p)\C5H7O3(2)\AAYUSH\02-Apr-2025\0\\
 # freq 6-311++g(d,p) m062x\\Title Card Required\\0,2\C,1.261279,2.2495
 38,-0.059294\H,1.185959,3.312106,-0.074315\C,1.352973,1.054156,-0.0422
 89\C,1.545943,-0.396809,0.008017\O,2.595586,-0.883535,0.299189\O,0.487
 191,-1.160082,-0.300594\C,-0.799149,-0.570456,-0.563466\C,-1.514203,-0
 .263256,0.729671\H,-0.686335,0.320925,-1.18185\H,-1.332439,-1.327497,-
 1.134497\H,-1.690798,-1.14583,1.34265\H,-1.083965,0.55946,1.299826\H,-
 2.67282,0.167937,0.363782\O,-3.80119,0.387123,-0.115051\H,-4.30846,-0.

 Normal termination of Gaussian 16 at Wed Apr  2 04:53:21 2025.
