 Gaussian 16, Revision A.03,
 Gaussian 16:  ES64L-G16RevA.03 25-Dec-2016

 --------------------------
 # ccsd(t)/6-311++g(d,p) sp
 --------------------------

 -------------------
 Title Card Required
 -------------------
 Symbolic Z-matrix:
 Charge =  0 Multiplicity = 2

                         Standard orientation:
 ---------------------------------------------------------------------
 Center     Atomic      Atomic             Coordinates (Angstroms)
 Number     Number       Type             X           Y           Z
 ---------------------------------------------------------------------
      1          6           0        1.348692    2.236195   -0.068161
      2          1           0        1.273233    3.298803   -0.084152
      3          6           0        1.440540    1.040834   -0.050171
      4          6           0        1.634101   -0.409649    0.001487
      5          8           0        2.683250   -0.896471    0.293026
      6          8           0        0.574800   -1.173895   -0.306584
      7          6           0       -0.712795   -0.583853   -0.571285
      8          6           0       -1.418691   -0.279364    0.723851
      9          1           0       -0.598619    0.306832   -1.190041
     10          1           0       -1.244754   -1.342239   -1.141600
     11          1           0       -1.621624   -1.156366    1.334605
     12          1           0       -1.017687    0.559977    1.288357
     13          1           0       -2.737176    0.192549    0.290793
     14          8           0       -3.705488    0.371026   -0.119704
     15          1           0       -4.224943   -0.289824    0.353806
 ---------------------------------------------------------------------

 SCF Done:  E(UHF) =  -417.960497046     A.U. after   30 cycles
 E2 =    -0.1295623818D+01 EUMP2 =    -0.41925612086380D+03
 CCSD(T)= -0.41935059253D+03

 The electronic state is 2-A.
 Alpha  occ. eigenvalues --  -20.62835 -20.57217 -20.56811 -11.42727 -11.32409
 Alpha  occ. eigenvalues --  -11.28704 -11.28512 -11.27684  -1.49105  -1.39640
 Alpha  occ. eigenvalues --   -1.35336  -1.08665  -1.08451  -0.93758  -0.89184
 Alpha  occ. eigenvalues --   -0.77368  -0.74539  -0.72596  -0.70968  -0.67875
 Alpha  occ. eigenvalues --   -0.65844  -0.60947  -0.60125  -0.58582  -0.53945
 Alpha  occ. eigenvalues --   -0.51034  -0.49899  -0.48695  -0.44509  -0.44102
 Alpha  occ. eigenvalues --   -0.43119
 Alpha virt. eigenvalues --    0.03184   0.03900   0.05357   0.06652   0.07117
 Alpha virt. eigenvalues --    0.07505   0.08474   0.09215   0.11179   0.12122
 Alpha virt. eigenvalues --    0.12372   0.13024   0.14158   0.14906   0.15860

  Beta  occ. eigenvalues --  -20.62537 -20.56820 -20.55798 -11.42727 -11.32593
  Beta  occ. eigenvalues --  -11.28499 -11.27698 -11.26400  -1.48662  -1.39324
  Beta  occ. eigenvalues --   -1.30845  -1.08602  -1.04785  -0.91643  -0.86911
  Beta  occ. eigenvalues --   -0.76800  -0.74154  -0.70766  -0.67847  -0.66355
  Beta  occ. eigenvalues --   -0.65143  -0.59219  -0.57901  -0.55417  -0.53375
  Beta  occ. eigenvalues --   -0.49564  -0.49208  -0.47973  -0.44223  -0.43996
  Beta virt. eigenvalues --    0.03162   0.03479   0.04172   0.05393   0.06676
  Beta virt. eigenvalues --    0.07499   0.08375   0.08529   0.09582   0.11212
  Beta virt. eigenvalues --    0.12285   0.12501   0.13123   0.14226   0.14944

 Mulliken charges and spin densities:
               1          2
     1  C   -1.750868   0.014199
     2  H    0.228869  -0.000598
     3  C    1.935433  -0.011653
     4  C   -0.053580   0.000921
     5  O   -0.323254  -0.003268
     6  O   -0.141114   0.029761
     7  C   -0.153187  -0.080692
     8  C   -0.541535   1.011688
     9  H    0.168097   0.004750
    10  H    0.197083   0.002899
    11  H    0.208430  -0.058417
    12  H    0.172179  -0.055208
    13  H    0.338193  -0.118025
    14  O   -0.531854   0.271243
    15  H    0.247108  -0.007600
 Sum of Mulliken charges =  -0.00000   1.00000

 Dipole moment (field-independent basis, Debye):
    X=             -2.3455    Y=              1.7233    Z=              0.7595  Tot=              3.0079
 Quadrupole moment (field-independent basis, Debye-Ang):
   XX=            -63.8406   YY=            -42.9842   ZZ=            -46.6850
   XY=             14.3029   XZ=             -6.8198   YZ=             -0.0085

 \PMP3-0=-419.2742294\MP4SDQ=-419.2985909\CCSD=-419.2957599\CCSD(T)=-41
 Normal termination of Gaussian 16 at Sun May  4 15:27:02 2025.
