 Gaussian 16, Revision A.03,
 Gaussian 16:  ES64L-G16RevA.03 25-Dec-2016

 --------------------------
 # freq 6-311++g(d,p) m062x
 --------------------------

 -------------------
 Title Card Required
 -------------------
 Symbolic Z-matrix:
 Charge =  0 Multiplicity = 2

                         Standard orientation:
 ---------------------------------------------------------------------
 Center     Atomic      Atomic             Coordinates (Angstroms)
 Number     Number       Type             X           Y           Z
 ---------------------------------------------------------------------
      1          6           0        1.348692    2.236195   -0.068161
      2          1           0        1.273233    3.298803   -0.084152
      3          6           0        1.440540    1.040834   -0.050171
      4          6           0        1.634101   -0.409649    0.001487
      5          8           0        2.683250   -0.896471    0.293026
      6          8           0        0.574800   -1.173895   -0.306584
      7          6           0       -0.712795   -0.583853   -0.571285
      8          6           0       -1.418691   -0.279364    0.723851
      9          1           0       -0.598619    0.306832   -1.190041
     10          1           0       -1.244754   -1.342239   -1.141600
     11          1           0       -1.621624   -1.156366    1.334605
     12          1           0       -1.017687    0.559977    1.288357
     13          1           0       -2.737176    0.192549    0.290793
     14          8           0       -3.705488    0.371026   -0.119704
     15          1           0       -4.224943   -0.289824    0.353806
 ---------------------------------------------------------------------

 SCF Done:  E(UM062X) =  -420.201323457     A.U. after   18 cycles

 The electronic state is 2-A.
 Alpha  occ. eigenvalues --  -19.69515 -19.63791 -19.63410 -10.71662 -10.62924
 Alpha  occ. eigenvalues --  -10.59166 -10.58668 -10.58212  -1.26310  -1.17763
 Alpha  occ. eigenvalues --   -1.13296  -0.90649  -0.90162  -0.78754  -0.74800
 Alpha  occ. eigenvalues --   -0.65701  -0.62624  -0.61054  -0.59670  -0.57676
 Alpha  occ. eigenvalues --   -0.55023  -0.50796  -0.49933  -0.49595  -0.44672
 Alpha  occ. eigenvalues --   -0.41262  -0.40414  -0.40129  -0.38517  -0.37294
 Alpha  occ. eigenvalues --   -0.33360
 Alpha virt. eigenvalues --   -0.02987  -0.01134  -0.00075   0.01064   0.01906
 Alpha virt. eigenvalues --    0.02396   0.03620   0.04064   0.05001   0.06645
 Alpha virt. eigenvalues --    0.06776   0.07222   0.07877   0.08922   0.10269

  Beta  occ. eigenvalues --  -19.69383 -19.63778 -19.62854 -10.71664 -10.62953
  Beta  occ. eigenvalues --  -10.58667 -10.58513 -10.58212  -1.26049  -1.17560
  Beta  occ. eigenvalues --   -1.11151  -0.90248  -0.88975  -0.77523  -0.73991
  Beta  occ. eigenvalues --   -0.65218  -0.62442  -0.59424  -0.58368  -0.56829
  Beta  occ. eigenvalues --   -0.54495  -0.50085  -0.49057  -0.46769  -0.44258
  Beta  occ. eigenvalues --   -0.40818  -0.39887  -0.39245  -0.38367  -0.37196
  Beta virt. eigenvalues --   -0.10146  -0.02937  -0.00988   0.00019   0.01119
  Beta virt. eigenvalues --    0.02006   0.02774   0.03694   0.04140   0.05076
  Beta virt. eigenvalues --    0.06676   0.06736   0.07103   0.07968   0.08945

 Mulliken charges and spin densities:
               1          2
     1  C   -1.349266  -0.021871
     2  H    0.202369  -0.000497
     3  C    1.555022   0.008600
     4  C   -0.201178   0.014541
     5  O   -0.239007   0.005313
     6  O   -0.028873   0.027461
     7  C   -0.299250  -0.015312
     8  C   -0.508261   0.834194
     9  H    0.189711   0.002444
    10  H    0.206157  -0.000227
    11  H    0.223924  -0.028260
    12  H    0.177483  -0.020892
    13  H    0.304687  -0.050933
    14  O   -0.481776   0.244448
    15  H    0.248260   0.000991
 Sum of Mulliken charges =  -0.00000   1.00000

 Dipole moment (field-independent basis, Debye):
    X=             -2.2265    Y=              1.4668    Z=              0.7135  Tot=              2.7601
 Quadrupole moment (field-independent basis, Debye-Ang):
   XX=            -61.3872   YY=            -43.1751   ZZ=            -46.8213
   XY=             13.2499   XZ=             -6.3602   YZ=              0.0007

  Exact polarizability:  90.342  -3.754  78.302   4.915  -1.505  50.942
 Approx polarizability:  90.461  -9.137  99.585   7.333  -2.858  60.140

 ******    2 imaginary frequencies (negative Signs) ******

                      1                      2                      3
                      A                      A                      A
 Frequencies --   -201.7575               -63.4120                48.4478
 Red. masses --      3.2564                 3.8965                 6.9329
 Frc consts  --      0.0781                 0.0092                 0.0096
 IR Inten    --     14.3091                 3.7218                 4.8264

                      4                      5                      6
                      A                      A                      A
 Frequencies --     87.8444               121.5828               177.5730
 Red. masses --      3.2563                 5.9096                 3.4704
 Frc consts  --      0.0148                 0.0515                 0.0645
 IR Inten    --      0.2175                 1.8599                 2.1537

                      7                      8                      9
                      A                      A                      A
 Frequencies --    200.1408               257.9127               334.2489
 Red. masses --      1.0743                 5.0087                 3.2512
 Frc consts  --      0.0254                 0.1963                 0.2140
 IR Inten    --    103.6103                 0.5398                 8.1047

                     10                     11                     12
                      A                      A                      A
 Frequencies --    401.7077               408.1214               559.0308
 Red. masses --      4.3662                 1.1513                 4.3375
 Frc consts  --      0.4151                 0.1130                 0.7987
 IR Inten    --     10.7371                10.2955                28.0587

                     13                     14                     15
                      A                      A                      A
 Frequencies --    629.2801               640.3365               738.2491
 Red. masses --      3.9077                 1.3130                 1.3168
 Frc consts  --      0.9117                 0.3172                 0.4228
 IR Inten    --      3.2664                66.4467                34.0864

                     16                     17                     18
                      A                      A                      A
 Frequencies --    764.0410               767.9149               779.3742
 Red. masses --      4.4147                 5.7060                 1.2876
 Frc consts  --      1.5184                 1.9825                 0.4608
 IR Inten    --      5.2394                23.9842                40.7527

                     19                     20                     21
                      A                      A                      A
 Frequencies --    806.6974               830.1933               878.5493
 Red. masses --      1.2821                 1.0877                 1.4018
 Frc consts  --      0.4916                 0.4417                 0.6375
 IR Inten    --     16.3720                78.9873                 5.4218

                     22                     23                     24
                      A                      A                      A
 Frequencies --   1059.3712              1086.7052              1169.0131
 Red. masses --      3.4413                 7.0423                 1.9141
 Frc consts  --      2.2755                 4.8999                 1.5412
 IR Inten    --      7.4666                80.7205               113.6686

                     25                     26                     27
                      A                      A                      A
 Frequencies --   1250.4197              1337.4493              1395.5116
 Red. masses --      2.8736                 1.1879                 1.3202
 Frc consts  --      2.6472                 1.2519                 1.5147
 IR Inten    --    370.3523                89.8232                36.5950

                     28                     29                     30
                      A                      A                      A
 Frequencies --   1466.2336              1489.9195              1514.7441
 Red. masses --      1.1599                 1.1862                 1.0929
 Frc consts  --      1.4692                 1.5514                 1.4775
 IR Inten    --      6.5220                18.8223                19.2658

                     31                     32                     33
                      A                      A                      A
 Frequencies --   1757.5670              1870.6914              2252.2327
 Red. masses --      1.1164                13.0152                 5.7225
 Frc consts  --      2.0318                26.8352                17.1025
 IR Inten    --     22.7288               514.8874                58.0514

                     34                     35                     36
                      A                      A                      A
 Frequencies --   3111.8441              3122.2166              3170.5565
 Red. masses --      1.0599                 1.0532                 1.1070
 Frc consts  --      6.0470                 6.0488                 6.5564
 IR Inten    --      5.2337                 6.1755                 2.9479

                     37                     38                     39
                      A                      A                      A
 Frequencies --   3213.8879              3486.4762              3871.9836
 Red. masses --      1.1128                 1.1703                 1.0657
 Frc consts  --      6.7720                 8.3815                 9.4138
 IR Inten    --      3.2421                61.7426                62.3721

 - Thermochemistry -
 -------------------
 Temperature   298.150 Kelvin.  Pressure   1.00000 Atm.
 Atom     1 has atomic number  6 and mass  12.00000

 Molecular mass:   115.03952 amu.
 Principal axes and moments of inertia in atomic units:
                           1         2         3
     Eigenvalues --   540.710501788.995872188.39269
           X            0.99974   0.02138  -0.00820
           Y           -0.02138   0.99977  -0.00026
           Z            0.00819   0.00043   0.99997
 This molecule is an asymmetric top.
 Rotational symmetry number  1.
 Warning -- assumption of classical behavior for rotation
           may cause significant error
 Rotational temperatures (Kelvin)      0.16019     0.04841     0.03958
 Rotational constants (GHZ):           3.33772     1.00880     0.82469
    2 imaginary frequencies ignored.
 Zero-point vibrational energy     281469.8 (Joules/Mol)
                                   67.27289 (Kcal/Mol)
 Warning -- explicit consideration of  10 degrees of freedom as
           vibrations may cause significant error
 Vibrational temperatures:     69.71   126.39   174.93   255.49   287.96
          (Kelvin)            371.08   480.91   577.97   587.20   804.32
                              905.39   921.30  1062.18  1099.28  1104.86
                             1121.35  1160.66  1194.46  1264.04  1524.20
                             1563.53  1681.95  1799.08  1924.29  2007.83
                             2109.58  2143.66  2179.38  2528.75  2691.51
                             3240.46  4477.25  4492.17  4561.72  4624.07
                             5016.26  5570.92

 Zero-point correction=                           0.107206 (Hartree/Particle)
 Thermal correction to Energy=                    0.116107
 Thermal correction to Enthalpy=                  0.117051
 Thermal correction to Gibbs Free Energy=         0.072045
 Sum of electronic and zero-point Energies=           -419.3505925
 Sum of electronic and thermal Energies=              -420.085217
 Sum of electronic and thermal Enthalpies=            -420.084272
 Sum of electronic and thermal Free Energies=         -420.129278

                     E (Thermal)             CV                S
                      KCal/Mol        Cal/Mol-Kelvin    Cal/Mol-Kelvin
 Total                   72.858             31.017             94.723
 Electronic               0.000              0.000              1.377
 Translational            0.889              2.981             40.136
 Rotational               0.889              2.981             29.139
 Vibrational             71.081             25.056             24.072
 Vibration     1          0.595              1.978              4.880
 Vibration     2          0.601              1.958              3.708
 Vibration     3          0.609              1.931              3.075
 Vibration     4          0.628              1.870              2.354
 Vibration     5          0.638              1.840              2.132
 Vibration     6          0.667              1.749              1.676
 Vibration     7          0.716              1.607              1.239
 Vibration     8          0.767              1.466              0.956
 Vibration     9          0.773              1.453              0.933
 Vibration    10          0.915              1.120              0.526

 1\1\GINC-AJ\Freq\UM062X\6-311++G(d,p)\C5H7O3(2)\AAYUSH\02-Apr-2025\0\\
 # freq 6-311++g(d,p) m062x\\Title Card Required\\0,2\C,1.261243,2.2495
 31,-0.059283\H,1.185929,3.312162,-0.074407\C,1.352927,1.054144,-0.0422
 69\C,1.546296,-0.396407,0.008187\O,2.595437,-0.883609,0.299119\O,0.486
 824,-1.160258,-0.300276\C,-0.800743,-0.569825,-0.564237\C,-1.506328,-0
 .266274,0.731288\H,-0.686571,0.32134,-1.182304\H,-1.332926,-1.327679,-
 1.135049\H,-1.709257,-1.143736,1.341382\H,-1.10509,0.572559,1.296383\H
 ,-2.824837,0.20617,0.298882\O,-3.793209,0.385111,-0.111271\H,-4.312658

 Normal termination of Gaussian 16 at Wed Apr  2 01:40:28 2025.
