 Gaussian 16, Revision A.03,
 Gaussian 16:  ES64L-G16RevA.03 25-Dec-2016

 --------------------------
 # freq 6-311++g(d,p) m062x
 --------------------------

 -------------------
 Title Card Required
 -------------------
 Symbolic Z-matrix:
 Charge =  0 Multiplicity = 2

                         Standard orientation:
 ---------------------------------------------------------------------
 Center     Atomic      Atomic             Coordinates (Angstroms)
 Number     Number       Type             X           Y           Z
 ---------------------------------------------------------------------
      1          6           0        1.344592    2.237671   -0.067472
      2          1           0        1.268845    3.300082   -0.081599
      3          6           0        1.436867    1.042316   -0.051221
      4          6           0        1.629799   -0.409485   -0.002140
      5          8           0        2.680900   -0.894707    0.288845
      6          8           0        0.573481   -1.172265   -0.311572
      7          6           0       -0.712161   -0.584096   -0.570308
      8          6           0       -1.425354   -0.276410    0.725077
      9          1           0       -0.601603    0.307776   -1.189333
     10          1           0       -1.246656   -1.340075   -1.142456
     11          1           0       -1.575351   -1.166594    1.335559
     12          1           0       -0.947829    0.516871    1.301597
     13          1           0       -2.443703    0.143858    0.437678
     14          8           0       -3.737832    0.376970   -0.130605
     15          1           0       -4.228555   -0.301871    0.361594
 ---------------------------------------------------------------------

 SCF Done:  E(UM062X) =  -420.188756714     A.U. after   22 cycles

 The electronic state is 2-A.
 Alpha  occ. eigenvalues --  -19.68553 -19.68491 -19.63006 -10.70937 -10.61786
 Alpha  occ. eigenvalues --  -10.58040 -10.57626 -10.56232  -1.25456  -1.16904
 Alpha  occ. eigenvalues --   -1.15042  -0.89743  -0.89454  -0.78236  -0.74152
 Alpha  occ. eigenvalues --   -0.64662  -0.62000  -0.59969  -0.58549  -0.56828
 Alpha  occ. eigenvalues --   -0.54378  -0.53417  -0.49126  -0.48249  -0.43997
 Alpha  occ. eigenvalues --   -0.43424  -0.41124  -0.39446  -0.38678  -0.37282
 Alpha  occ. eigenvalues --   -0.36519
 Alpha virt. eigenvalues --   -0.02340  -0.01399   0.00046   0.01257   0.01995
 Alpha virt. eigenvalues --    0.02379   0.03966   0.04275   0.05270   0.06551
 Alpha virt. eigenvalues --    0.07064   0.07383   0.08202   0.09157   0.10345

  Beta  occ. eigenvalues --  -19.68450 -19.67131 -19.63002 -10.70938 -10.61795
  Beta  occ. eigenvalues --  -10.58040 -10.57626 -10.55967  -1.25377  -1.16843
  Beta  occ. eigenvalues --   -1.08968  -0.89627  -0.88893  -0.77640  -0.73870
  Beta  occ. eigenvalues --   -0.64525  -0.61895  -0.58632  -0.57281  -0.55135
  Beta  occ. eigenvalues --   -0.53546  -0.49520  -0.48019  -0.46260  -0.43095
  Beta  occ. eigenvalues --   -0.40706  -0.39922  -0.38948  -0.37595  -0.36540
  Beta virt. eigenvalues --   -0.12183  -0.02317  -0.01062   0.00123   0.01314
  Beta virt. eigenvalues --    0.02204   0.02573   0.03995   0.04323   0.05368
  Beta virt. eigenvalues --    0.06688   0.07160   0.07435   0.08318   0.09213

 Mulliken charges and spin densities:
               1          2
     1  C   -1.321473  -0.004803
     2  H    0.200364  -0.000163
     3  C    1.545669  -0.000006
     4  C   -0.222603   0.004732
     5  O   -0.246587   0.001861
     6  O   -0.034392   0.008063
     7  C   -0.299945  -0.000359
     8  C   -0.498173   0.275089
     9  H    0.177659  -0.001023
    10  H    0.199861  -0.001052
    11  H    0.208399  -0.010876
    12  H    0.154375  -0.000288
    13  H    0.188446  -0.044608
    14  O   -0.300863   0.789458
    15  H    0.249262  -0.016025
 Sum of Mulliken charges =  -0.00000   1.00000

 Dipole moment (field-independent basis, Debye):
    X=             -3.7389    Y=              1.7243    Z=              0.3696  Tot=              4.1339
 Quadrupole moment (field-independent basis, Debye-Ang):
   XX=            -54.2150   YY=            -43.4591   ZZ=            -47.0898
   XY=             12.0617   XZ=             -5.1896   YZ=             -0.1541

  Exact polarizability:  99.016  -5.276  78.734   7.364  -1.924  51.240
 Approx polarizability:  92.528  -9.418  99.929   8.868  -3.361  60.350

 ******    3 imaginary frequencies (negative Signs) ******

                      1                      2                      3
                      A                      A                      A
 Frequencies --   -525.3928               -64.1518               -56.5318
 Red. masses --      1.9466                 4.7914                 4.8121
 Frc consts  --      0.3166                 0.0116                 0.0091
 IR Inten    --    433.8089                 1.8190                 7.5093

                      4                      5                      6
                      A                      A                      A
 Frequencies --     69.6537               103.9141               155.2887
 Red. masses --      5.6714                 3.5142                 1.1532
 Frc consts  --      0.0162                 0.0224                 0.0164
 IR Inten    --      3.0286                 0.2516               112.2187

                      7                      8                      9
                      A                      A                      A
 Frequencies --    180.2570               224.7758               259.8009
 Red. masses --      2.9508                 1.2579                 5.0310
 Frc consts  --      0.0565                 0.0374                 0.2001
 IR Inten    --      8.3508                 8.6828                 0.4472

                     10                     11                     12
                      A                      A                      A
 Frequencies --    351.8924               388.6161               550.5727
 Red. masses --      2.6739                 3.9389                 5.3535
 Frc consts  --      0.1951                 0.3505                 0.9561
 IR Inten    --      1.5822                 8.0076                27.1746

                     13                     14                     15
                      A                      A                      A
 Frequencies --    631.4296               724.5651               735.1931
 Red. masses --      5.6554                 1.3743                 1.3208
 Frc consts  --      1.3285                 0.4251                 0.4206
 IR Inten    --      1.5926                87.3091                35.5227

                     16                     17                     18
                      A                      A                      A
 Frequencies --    761.0509               769.3959               776.4564
 Red. masses --      2.5175                 8.7120                 1.2978
 Frc consts  --      0.8591                 3.0385                 0.4610
 IR Inten    --      5.7192                17.0711                46.1253

                     19                     20                     21
                      A                      A                      A
 Frequencies --    823.0582               940.2401              1082.4322
 Red. masses --      1.2992                 1.8689                 3.0605
 Frc consts  --      0.5186                 0.9734                 2.1128
 IR Inten    --     35.0191                18.1872                49.2079

                     22                     23                     24
                      A                      A                      A
 Frequencies --   1111.6503              1175.2624              1254.6171
 Red. masses --      4.8535                 1.9768                 2.8496
 Frc consts  --      3.5338                 1.6087                 2.6428
 IR Inten    --     63.0538               110.9268               368.1787

                     25                     26                     27
                      A                      A                      A
 Frequencies --   1325.4655              1341.2893              1377.4397
 Red. masses --      1.2170                 1.2875                 1.0374
 Frc consts  --      1.2597                 1.3648                 1.1597
 IR Inten    --     10.7304               163.4057                75.9463

                     28                     29                     30
                      A                      A                      A
 Frequencies --   1418.8430              1476.0580              1518.2483
 Red. masses --      1.3382                 1.1284                 1.0907
 Frc consts  --      1.5872                 1.4485                 1.4814
 IR Inten    --     22.9247                23.1121                31.0440

                     31                     32                     33
                      A                      A                      A
 Frequencies --   1818.4146              1870.6452              2251.7764
 Red. masses --      1.2168                 7.6964                 5.7278
 Frc consts  --      2.3707                15.8680                17.1116
 IR Inten    --   1854.4057               164.4860                53.9343

                     34                     35                     36
                      A                      A                      A
 Frequencies --   3101.5421              3110.5644              3158.8933
 Red. masses --      1.0591                 1.0592                 1.1054
 Frc consts  --      6.0026                 6.0380                 6.4991
 IR Inten    --      0.0499                16.4430                 2.6549

                     37                     38                     39
                      A                      A                      A
 Frequencies --   3181.5310              3488.1204              3791.1673
 Red. masses --      1.1077                 1.1699                 1.0671
 Frc consts  --      6.6061                 8.3868                 9.0367
 IR Inten    --     11.2655                59.9968                53.4469

 - Thermochemistry -
 -------------------
 Temperature   298.150 Kelvin.  Pressure   1.00000 Atm.
 Atom     1 has atomic number  6 and mass  12.00000

 Molecular mass:   115.03952 amu.
 Principal axes and moments of inertia in atomic units:
                           1         2         3
     Eigenvalues --   541.524821795.817032194.54936
           X            0.99972   0.02203  -0.00855
           Y           -0.02204   0.99976  -0.00079
           Z            0.00853   0.00098   0.99996
 This molecule is an asymmetric top.
 Rotational symmetry number  1.
 Warning -- assumption of classical behavior for rotation
           may cause significant error
 Rotational temperatures (Kelvin)      0.15994     0.04823     0.03947
 Rotational constants (GHZ):           3.33270     1.00497     0.82237
    3 imaginary frequencies ignored.
 Zero-point vibrational energy     282917.6 (Joules/Mol)
                                   67.61892 (Kcal/Mol)
 Warning -- explicit consideration of   9 degrees of freedom as
           vibrations may cause significant error
 Vibrational temperatures:    100.22   149.51   223.43   259.35   323.40
          (Kelvin)            373.80   506.29   559.13   792.15   908.49
                             1042.49  1057.78  1094.98  1106.99  1117.15
                             1184.20  1352.80  1557.38  1599.42  1690.94
                             1805.11  1907.05  1929.82  1981.83  2041.40
                             2123.72  2184.42  2616.29  2691.44  3239.80
                             4462.43  4475.41  4544.94  4577.51  5018.63
                             5454.64

 Zero-point correction=                           0.107758 (Hartree/Particle)
 Thermal correction to Energy=                    0.116061
 Thermal correction to Enthalpy=                  0.117005
 Thermal correction to Gibbs Free Energy=         0.073436
 Sum of electronic and zero-point Energies=           -419.3391314
 Sum of electronic and thermal Energies=              -420.072696
 Sum of electronic and thermal Enthalpies=            -420.071752
 Sum of electronic and thermal Free Energies=         -420.115321

                     E (Thermal)             CV                S
                      KCal/Mol        Cal/Mol-Kelvin    Cal/Mol-Kelvin
 Total                   72.829             28.714             91.698
 Electronic               0.000              0.000              1.377
 Translational            0.889              2.981             40.136
 Rotational               0.889              2.981             29.147
 Vibrational             71.052             22.752             21.038
 Vibration     1          0.598              1.969              4.163
 Vibration     2          0.605              1.946              3.380
 Vibration     3          0.620              1.897              2.606
 Vibration     4          0.629              1.867              2.326
 Vibration     5          0.649              1.803              1.920
 Vibration     6          0.668              1.746              1.663
 Vibration     7          0.728              1.571              1.158
 Vibration     8          0.757              1.495              1.005
 Vibration     9          0.906              1.138              0.543

 1\1\GINC-AJ\Freq\UM062X\6-311++G(d,p)\C5H7O3(2)\AAYUSH\02-Apr-2025\0\\
 # freq 6-311++g(d,p) m062x\\Title Card Required\\0,2\C,1.261421,2.2495
 28,-0.059352\H,1.186206,3.311968,-0.074128\C,1.353097,1.054138,-0.0423
 66\C,1.545289,-0.39773,0.007646\O,2.596012,-0.883303,0.299409\O,0.4887
 41,-1.160167,-0.301846\C,-0.796488,-0.571513,-0.561532\C,-1.510143,-0.
 262726,0.733337\H,-0.685196,0.319947,-1.18102\H,-1.331085,-1.327558,-1
 .133496\H,-1.660869,-1.152482,1.344262\H,-1.032499,0.530653,1.309624\H
 ,-2.528147,0.157879,0.445212\O,-3.821892,0.391302,-0.12382\H,-4.313183

 Normal termination of Gaussian 16 at Wed Apr  2 04:56:17 2025.
