 Gaussian 16, Revision A.03,
 Gaussian 16:  ES64L-G16RevA.03 25-Dec-2016

 --------------------------
 # freq 6-311++g(d,p) m062x
 --------------------------

 -------------------
 Title Card Required
 -------------------
 Symbolic Z-matrix:
 Charge =  0 Multiplicity = 2

                         Standard orientation:
 ---------------------------------------------------------------------
 Center     Atomic      Atomic             Coordinates (Angstroms)
 Number     Number       Type             X           Y           Z
 ---------------------------------------------------------------------
      1          6           0        1.348365    2.236186   -0.068090
      2          1           0        1.273114    3.298787   -0.083899
      3          6           0        1.439972    1.040807   -0.050255
      4          6           0        1.633057   -0.409910    0.001157
      5          8           0        2.682310   -0.896764    0.292817
      6          8           0        0.573928   -1.173622   -0.307143
      7          6           0       -0.712871   -0.583703   -0.571384
      8          6           0       -1.424303   -0.277194    0.722336
      9          1           0       -0.599174    0.307153   -1.190111
     10          1           0       -1.245521   -1.341474   -1.141880
     11          1           0       -1.613420   -1.157016    1.334718
     12          1           0       -1.008221    0.553913    1.289744
     13          1           0       -2.662096    0.172910    0.322343
     14          8           0       -3.709631    0.372972   -0.121921
     15          1           0       -4.222853   -0.292074    0.356469
 ---------------------------------------------------------------------

 SCF Done:  E(UM062X) =  -420.194681315     A.U. after   18 cycles

 The electronic state is 2-A.
 Alpha  occ. eigenvalues --  -19.69441 -19.64437 -19.63729 -10.71607 -10.62819
 Alpha  occ. eigenvalues --  -10.58993 -10.58614 -10.58161  -1.26244  -1.17693
 Alpha  occ. eigenvalues --   -1.12926  -0.90583  -0.90107  -0.78765  -0.74764
 Alpha  occ. eigenvalues --   -0.65596  -0.62555  -0.60619  -0.59455  -0.57438
 Alpha  occ. eigenvalues --   -0.54891  -0.51022  -0.50065  -0.49646  -0.44538
 Alpha  occ. eigenvalues --   -0.41227  -0.40734  -0.40090  -0.38470  -0.37236
 Alpha  occ. eigenvalues --   -0.33963
 Alpha virt. eigenvalues --   -0.02933  -0.01156  -0.00061   0.01086   0.01920
 Alpha virt. eigenvalues --    0.02361   0.03651   0.04090   0.05024   0.06634
 Alpha virt. eigenvalues --    0.06789   0.07204   0.07910   0.08924   0.10262

  Beta  occ. eigenvalues --  -19.69326 -19.63718 -19.63652 -10.71609 -10.62844
  Beta  occ. eigenvalues --  -10.58614 -10.58419 -10.58161  -1.26018  -1.17518
  Beta  occ. eigenvalues --   -1.09942  -0.90198  -0.89135  -0.77701  -0.74147
  Beta  occ. eigenvalues --   -0.65184  -0.62399  -0.59350  -0.57879  -0.55907
  Beta  occ. eigenvalues --   -0.54416  -0.49986  -0.48928  -0.46344  -0.44072
  Beta  occ. eigenvalues --   -0.40719  -0.39812  -0.39104  -0.38293  -0.37140
  Beta virt. eigenvalues --   -0.11430  -0.02887  -0.00966   0.00040   0.01146
  Beta virt. eigenvalues --    0.02029   0.02703   0.03720   0.04161   0.05114
  Beta virt. eigenvalues --    0.06706   0.06804   0.07128   0.08022   0.08958

 Mulliken charges and spin densities:
               1          2
     1  C   -1.343757  -0.017673
     2  H    0.202319  -0.000414
     3  C    1.553480   0.005587
     4  C   -0.205004   0.012710
     5  O   -0.239706   0.004913
     6  O   -0.029785   0.024292
     7  C   -0.294824  -0.009775
     8  C   -0.517083   0.710511
     9  H    0.188217   0.001553
    10  H    0.205607  -0.000746
    11  H    0.223107  -0.023796
    12  H    0.175078  -0.015639
    13  H    0.286169  -0.065449
    14  O   -0.450895   0.375914
    15  H    0.247077  -0.001988
 Sum of Mulliken charges =  -0.00000   1.00000

 Dipole moment (field-independent basis, Debye):
    X=             -2.3630    Y=              1.4911    Z=              0.6668  Tot=              2.8726
 Quadrupole moment (field-independent basis, Debye-Ang):
   XX=            -60.5944   YY=            -43.2082   ZZ=            -46.8423
   XY=             13.0891   XZ=             -6.1504   YZ=             -0.0416

  Exact polarizability:  97.095  -4.999  78.582   6.387  -1.792  51.234
 Approx polarizability:  95.674 -10.508 100.112   8.974  -3.360  60.701

 ******    1 imaginary frequencies (negative Signs) ******

                      1                      2                      3
                      A                      A                      A
 Frequencies --  -1514.8386                47.6218                63.7316
 Red. masses --      1.0899                 5.1851                 5.6154
 Frc consts  --      1.4736                 0.0069                 0.0134
 IR Inten    --    361.9065                 5.0082                 3.3236

                      4                      5                      6
                      A                      A                      A
 Frequencies --    100.4481               145.4601               177.8027
 Red. masses --      3.0286                 5.2431                 3.4398
 Frc consts  --      0.0180                 0.0654                 0.0641
 IR Inten    --      0.2570                 2.3733                 2.2437

                      7                      8                      9
                      A                      A                      A
 Frequencies --    196.4861               258.1331               320.3208
 Red. masses --      1.1058                 5.0296                 3.7145
 Frc consts  --      0.0252                 0.1975                 0.2246
 IR Inten    --    113.2000                 0.7016                 8.3296

                     10                     11                     12
                      A                      A                      A
 Frequencies --    368.9135               463.3572               553.6530
 Red. masses --      5.2865                 1.1656                 6.3463
 Frc consts  --      0.4239                 0.1474                 1.1462
 IR Inten    --      2.5384                 7.4220                23.8464

                     13                     14                     15
                      A                      A                      A
 Frequencies --    589.2907               630.9360               737.9872
 Red. masses --      2.1947                 5.3714                 1.3168
 Frc consts  --      0.4490                 1.2598                 0.4226
 IR Inten    --      5.5592                 1.6366                41.1248

                     16                     17                     18
                      A                      A                      A
 Frequencies --    754.1082               768.3229               777.4382
 Red. masses --      2.0536                 8.7176                 1.8282
 Frc consts  --      0.6881                 3.0321                 0.6510
 IR Inten    --     42.5989                26.7337                23.9548

                     19                     20                     21
                      A                      A                      A
 Frequencies --    779.2307               828.0048               977.2913
 Red. masses --      1.3042                 1.2331                 1.2778
 Frc consts  --      0.4666                 0.4981                 0.7191
 IR Inten    --     38.1569                16.5530                42.9910

                     22                     23                     24
                      A                      A                      A
 Frequencies --   1066.8626              1093.1741              1158.2740
 Red. masses --      3.0450                 5.6905                 1.4159
 Frc consts  --      2.0420                 4.0066                 1.1192
 IR Inten    --     18.1267                67.9364                26.9320

                     25                     26                     27
                      A                      A                      A
 Frequencies --   1174.1335              1253.4841              1339.5327
 Red. masses --      1.7732                 2.8711                 1.2023
 Frc consts  --      1.4402                 2.6579                 1.2711
 IR Inten    --    122.3123               374.5761               100.2214

                     28                     29                     30
                      A                      A                      A
 Frequencies --   1408.6356              1466.8087              1497.9182
 Red. masses --      1.3106                 1.1659                 1.0530
 Frc consts  --      1.5322                 1.4779                 1.3921
 IR Inten    --     27.4780                 9.1114                45.9017

                     31                     32                     33
                      A                      A                      A
 Frequencies --   1515.2226              1870.0360              2252.1593
 Red. masses --      1.0923                13.0363                 5.7228
 Frc consts  --      1.4775                26.8599                17.1025
 IR Inten    --     20.0752               527.8298                57.6887

                     34                     35                     36
                      A                      A                      A
 Frequencies --   3110.5341              3119.0986              3169.7800
 Red. masses --      1.0592                 1.0549                 1.1069
 Frc consts  --      6.0380                 6.0469                 6.5525
 IR Inten    --      3.4023                 7.3805                 2.7996

                     37                     38                     39
                      A                      A                      A
 Frequencies --   3206.1089              3486.6933              3848.0945
 Red. masses --      1.1120                 1.1703                 1.0664
 Frc consts  --      6.7345                 8.3823                 9.3040
 IR Inten    --      3.7895                61.4225                71.3269

 - Thermochemistry -
 -------------------
 Temperature   298.150 Kelvin.  Pressure   1.00000 Atm.
 Atom     1 has atomic number  6 and mass  12.00000

 Molecular mass:   115.03952 amu.
 Principal axes and moments of inertia in atomic units:
                           1         2         3
     Eigenvalues --   540.718191789.276282188.59597
           X            0.99973   0.02160  -0.00831
           Y           -0.02161   0.99977  -0.00035
           Z            0.00830   0.00053   0.99997
 This molecule is an asymmetric top.
 Rotational symmetry number  1.
 Warning -- assumption of classical behavior for rotation
           may cause significant error
 Rotational temperatures (Kelvin)      0.16018     0.04841     0.03958
 Rotational constants (GHZ):           3.33767     1.00864     0.82461
    1 imaginary frequencies ignored.
 Zero-point vibrational energy     278580.9 (Joules/Mol)
                                   66.58243 (Kcal/Mol)
 Warning -- explicit consideration of  12 degrees of freedom as
           vibrations may cause significant error
 Vibrational temperatures:     68.52    91.70   144.52   209.28   255.82
          (Kelvin)            282.70   371.40   460.87   530.78   666.67
                              796.58   847.86   907.78  1061.80  1084.99
                             1105.45  1118.56  1121.14  1191.31  1406.10
                             1534.98  1572.83  1666.50  1689.32  1803.48
                             1927.29  2026.71  2110.41  2155.17  2180.07
                             2690.56  3240.35  4475.36  4487.69  4560.61
                             4612.88  5016.57  5536.55

 Zero-point correction=                           0.106106 (Hartree/Particle)
 Thermal correction to Energy=                    0.115792
 Thermal correction to Enthalpy=                  0.116736
 Thermal correction to Gibbs Free Energy=         0.069862
 Sum of electronic and zero-point Energies=           -419.3433043
 Sum of electronic and thermal Energies=              -420.078889
 Sum of electronic and thermal Enthalpies=            -420.077945
 Sum of electronic and thermal Free Energies=         -420.124819

                     E (Thermal)             CV                S
                      KCal/Mol        Cal/Mol-Kelvin    Cal/Mol-Kelvin
 Total                   72.661             33.173             98.655
 Electronic               0.000              0.000              1.377
 Translational            0.889              2.981             40.136
 Rotational               0.889              2.981             29.139
 Vibrational             70.883             27.211             28.003
 Vibration     1          0.595              1.978              4.914
 Vibration     2          0.597              1.972              4.338
 Vibration     3          0.604              1.949              3.446
 Vibration     4          0.617              1.908              2.731
 Vibration     5          0.628              1.870              2.351
 Vibration     6          0.636              1.845              2.166
 Vibration     7          0.667              1.749              1.674
 Vibration     8          0.706              1.635              1.308
 Vibration     9          0.741              1.536              1.084
 Vibration    10          0.821              1.331              0.756
 Vibration    11          0.909              1.132              0.537
 Vibration    12          0.947              1.055              0.468

 1\1\GINC-AJ\Freq\UM062X\6-311++G(d,p)\C5H7O3(2)\AAYUSH\02-Apr-2025\0\\
 # freq 6-311++g(d,p) m062x\\Title Card Required\\0,2\C,1.26126,2.24953
 3,-0.059288\H,1.185938,3.31214,-0.074365\C,1.352948,1.054148,-0.042279
 \C,1.546139,-0.396591,0.008108\O,2.595503,-0.883574,0.299151\O,0.48697
 2,-1.160163,-0.30041\C,-0.799937,-0.570149,-0.563899\C,-1.51103,-0.264
 551,0.730224\H,-0.686468,0.321128,-1.182061\H,-1.332698,-1.327571,-1.1
 34754\H,-1.699921,-1.144795,1.342069\H,-1.094843,0.566202,1.298073\H,-
 2.748962,0.185742,0.330875\O,-3.796633,0.386035,-0.112964\H,-4.30968,-

 Normal termination of Gaussian 16 at Wed Apr  2 01:33:27 2025.
