 Gaussian 16, Revision A.03,
 Gaussian 16:  ES64L-G16RevA.03 25-Dec-2016

 --------------------------
 # ccsd(t)/6-311++g(d,p) sp
 --------------------------

 -------------------
 Title Card Required
 -------------------
 Symbolic Z-matrix:
 Charge =  0 Multiplicity = 2

                         Standard orientation:
 ---------------------------------------------------------------------
 Center     Atomic      Atomic             Coordinates (Angstroms)
 Number     Number       Type             X           Y           Z
 ---------------------------------------------------------------------
      1          6           0        1.342635    2.238632   -0.067268
      2          1           0        1.266243    3.300977   -0.080549
      3          6           0        1.435677    1.043312   -0.051854
      4          6           0        1.629461   -0.408737   -0.003941
      5          8           0        2.681411   -0.892854    0.286509
      6          8           0        0.574629   -1.171978   -0.314081
      7          6           0       -0.711514   -0.584587   -0.569610
      8          6           0       -1.417166   -0.278605    0.730099
      9          1           0       -0.602540    0.307808   -1.188344
     10          1           0       -1.246857   -1.340070   -1.141770
     11          1           0       -1.563091   -1.173139    1.335474
     12          1           0       -0.915641    0.497939    1.309566
     13          1           0       -2.414240    0.156203    0.471221
     14          8           0       -3.751667    0.376908   -0.133920
     15          1           0       -4.233415   -0.306413    0.361777
 ---------------------------------------------------------------------

 SCF Done:  E(UHF) =  -417.966285204     A.U. after   35 cycles
 E2 =    -0.1272563766D+01 EUMP2 =    -0.41923884897021D+03
 CCSD(T)= -0.41934002030D+03

 The electronic state is 2-A.
 Alpha  occ. eigenvalues --  -20.65416 -20.60995 -20.55530 -11.41488 -11.30386
 Alpha  occ. eigenvalues --  -11.27386 -11.26686 -11.23529  -1.47568  -1.41581
 Alpha  occ. eigenvalues --   -1.38156  -1.07501  -1.05573  -0.92033  -0.87666
 Alpha  occ. eigenvalues --   -0.75667  -0.73737  -0.72756  -0.69818  -0.69228
 Alpha  occ. eigenvalues --   -0.65920  -0.63373  -0.58217  -0.57792  -0.55875
 Alpha  occ. eigenvalues --   -0.51952  -0.50579  -0.47740  -0.46272  -0.43069
 Alpha  occ. eigenvalues --   -0.42870
 Alpha virt. eigenvalues --    0.03160   0.03801   0.05606   0.06592   0.07175
 Alpha virt. eigenvalues --    0.07981   0.09109   0.09578   0.11513   0.12182
 Alpha virt. eigenvalues --    0.12931   0.13551   0.14808   0.15390   0.16407

  Beta  occ. eigenvalues --  -20.61406 -20.60951 -20.55533 -11.41488 -11.30427
  Beta  occ. eigenvalues --  -11.27383 -11.26689 -11.22938  -1.47505  -1.38114
  Beta  occ. eigenvalues --   -1.26696  -1.07500  -1.04625  -0.91371  -0.87113
  Beta  occ. eigenvalues --   -0.75581  -0.73128  -0.69396  -0.67356  -0.65945
  Beta  occ. eigenvalues --   -0.63320  -0.58025  -0.55778  -0.53748  -0.53141
  Beta  occ. eigenvalues --   -0.51141  -0.47928  -0.46324  -0.43083  -0.42886
  Beta virt. eigenvalues --    0.03033   0.03728   0.04908   0.05630   0.07141
  Beta virt. eigenvalues --    0.07899   0.08644   0.09118   0.09597   0.11583
  Beta virt. eigenvalues --    0.12204   0.12995   0.13631   0.14807   0.15437

 Mulliken charges and spin densities:
               1          2
     1  C   -1.733744   0.005884
     2  H    0.224735  -0.000146
     3  C    1.931340  -0.002685
     4  C   -0.065426  -0.002645
     5  O   -0.334823  -0.000736
     6  O   -0.145537   0.003392
     7  C   -0.179072  -0.015592
     8  C   -0.502969   0.217804
     9  H    0.148082  -0.000321
    10  H    0.179847   0.000617
    11  H    0.174479  -0.014336
    12  H    0.129275  -0.007599
    13  H    0.155154  -0.082446
    14  O   -0.238534   0.931978
    15  H    0.257193  -0.033170
 Sum of Mulliken charges =  -0.00000   1.00000

 Dipole moment (field-independent basis, Debye):
    X=             -5.0519    Y=              2.1839    Z=              0.1125  Tot=              5.5049
 Quadrupole moment (field-independent basis, Debye-Ang):
   XX=            -50.8120   YY=            -43.5567   ZZ=            -47.3759
   XY=             12.2948   XZ=             -4.9163   YZ=             -0.1620

 Normal termination of Gaussian 16 at Sun May  4 09:03:50 2025.
