 Gaussian 16, Revision A.03,
 Gaussian 16:  ES64L-G16RevA.03 25-Dec-2016

 --------------------------
 # freq 6-311++g(d,p) m062x
 --------------------------

 -------------------
 Title Card Required
 -------------------
 Symbolic Z-matrix:
 Charge =  0 Multiplicity = 2

                         Standard orientation:
 ---------------------------------------------------------------------
 Center     Atomic      Atomic             Coordinates (Angstroms)
 Number     Number       Type             X           Y           Z
 ---------------------------------------------------------------------
      1          6           0        1.345887    2.237059   -0.067656
      2          1           0        1.270457    3.299524   -0.082292
      3          6           0        1.437716    1.041684   -0.050869
      4          6           0        1.630279   -0.409879   -0.001018
      5          8           0        2.680765   -0.895802    0.290308
      6          8           0        0.572948   -1.172566   -0.310078
      7          6           0       -0.712594   -0.583779   -0.570768
      8          6           0       -1.429284   -0.275225    0.722566
      9          1           0       -0.601044    0.307787   -1.189827
     10          1           0       -1.246692   -1.340114   -1.142611
     11          1           0       -1.585291   -1.162608    1.335353
     12          1           0       -0.968237    0.528771    1.297009
     13          1           0       -2.472677    0.139681    0.413888
     14          8           0       -3.729103    0.376734   -0.128505
     15          1           0       -4.225423   -0.299129    0.361159
 ---------------------------------------------------------------------

 SCF Done:  E(UM062X) =  -420.188458491     A.U. after   22 cycles

 The electronic state is 2-A.
 Alpha  occ. eigenvalues --  -19.68655 -19.67916 -19.63138 -10.71059 -10.61980
 Alpha  occ. eigenvalues --  -10.58146 -10.57723 -10.56781  -1.25585  -1.17041
 Alpha  occ. eigenvalues --   -1.14588  -0.89900  -0.89590  -0.78360  -0.74274
 Alpha  occ. eigenvalues --   -0.64823  -0.62104  -0.60098  -0.58688  -0.56823
 Alpha  occ. eigenvalues --   -0.54252  -0.53351  -0.49315  -0.48502  -0.43773
 Alpha  occ. eigenvalues --   -0.43284  -0.40942  -0.39498  -0.38500  -0.37177
 Alpha  occ. eigenvalues --   -0.36583
 Alpha virt. eigenvalues --   -0.02447  -0.01341   0.00025   0.01229   0.01990
 Alpha virt. eigenvalues --    0.02357   0.03910   0.04241   0.05223   0.06581
 Alpha virt. eigenvalues --    0.07004   0.07336   0.08142   0.09111   0.10338

  Beta  occ. eigenvalues --  -19.68605 -19.66555 -19.63133 -10.71060 -10.61991
  Beta  occ. eigenvalues --  -10.58145 -10.57723 -10.56474  -1.25487  -1.16965
  Beta  occ. eigenvalues --   -1.09024  -0.89733  -0.88974  -0.77686  -0.73952
  Beta  occ. eigenvalues --   -0.64653  -0.61989  -0.58765  -0.57363  -0.55058
  Beta  occ. eigenvalues --   -0.53720  -0.49540  -0.48191  -0.46235  -0.43258
  Beta  occ. eigenvalues --   -0.40385  -0.39993  -0.39064  -0.37721  -0.36650
  Beta virt. eigenvalues --   -0.12312  -0.02421  -0.01022   0.00110   0.01288
  Beta virt. eigenvalues --    0.02184   0.02579   0.03944   0.04292   0.05322
  Beta virt. eigenvalues --    0.06719   0.07100   0.07375   0.08264   0.09165

 Mulliken charges and spin densities:
               1          2
     1  C   -1.327336  -0.006577
     2  H    0.200656  -0.000200
     3  C    1.549955   0.000439
     4  C   -0.220256   0.006107
     5  O   -0.245363   0.002303
     6  O   -0.034182   0.010194
     7  C   -0.297436  -0.000827
     8  C   -0.504533   0.329010
     9  H    0.179534  -0.000706
    10  H    0.200951  -0.001134
    11  H    0.210915  -0.012234
    12  H    0.158767  -0.001940
    13  H    0.203250  -0.049151
    14  O   -0.322985   0.739384
    15  H    0.248065  -0.014667
 Sum of Mulliken charges =  -0.00000   1.00000

 Dipole moment (field-independent basis, Debye):
    X=             -3.4899    Y=              1.6858    Z=              0.4153  Tot=              3.8979
 Quadrupole moment (field-independent basis, Debye-Ang):
   XX=            -55.3271   YY=            -43.4133   ZZ=            -47.0346
   XY=             12.2314   XZ=             -5.3309   YZ=             -0.1396

  Exact polarizability: 101.447  -5.778  78.804   7.823  -2.029  51.351
 Approx polarizability:  94.761 -10.075 100.108   9.403  -3.529  60.561

 ******    2 imaginary frequencies (negative Signs) ******

                      1                      2                      3
                      A                      A                      A
 Frequencies --   -761.6471                -9.9298                22.1284
 Red. masses --      1.5517                 5.3469                 5.3364
 Frc consts  --      0.5304                 0.0003                 0.0015
 IR Inten    --   1001.3682                 7.1575                 2.2365

                      4                      5                      6
                      A                      A                      A
 Frequencies --     78.0319               106.0320               153.8948
 Red. masses --      4.4161                 3.4934                 1.1493
 Frc consts  --      0.0158                 0.0231                 0.0160
 IR Inten    --      2.3828                 0.3657               113.9337

                      7                      8                      9
                      A                      A                      A
 Frequencies --    180.4525               259.4282               278.8916
 Red. masses --      3.2744                 5.0130                 1.4407
 Frc consts  --      0.0628                 0.1988                 0.0660
 IR Inten    --      6.2789                 0.5625                 6.0646

                     10                     11                     12
                      A                      A                      A
 Frequencies --    360.2118               389.3672               553.8734
 Red. masses --      2.1961                 3.5345                 5.5166
 Frc consts  --      0.1679                 0.3157                 0.9971
 IR Inten    --      1.5128                 8.7969                27.9107

                     13                     14                     15
                      A                      A                      A
 Frequencies --    631.3071               735.7605               745.5521
 Red. masses --      5.6676                 1.3190                 2.0974
 Frc consts  --      1.3308                 0.4207                 0.6869
 IR Inten    --      1.5272                37.2837                38.5778

                     16                     17                     18
                      A                      A                      A
 Frequencies --    768.9898               769.7209               777.0218
 Red. masses --      5.3511                 1.7305                 1.2936
 Frc consts  --      1.8644                 0.6041                 0.4602
 IR Inten    --     18.0331                 8.4055                44.9944

                     19                     20                     21
                      A                      A                      A
 Frequencies --    832.8291               945.1121              1060.2122
 Red. masses --      1.3660                 1.8590                 3.7860
 Frc consts  --      0.5582                 0.9784                 2.5074
 IR Inten    --     63.9043                56.7683               157.1795

                     22                     23                     24
                      A                      A                      A
 Frequencies --   1107.6795              1175.7558              1253.2270
 Red. masses --      4.6492                 1.9633                 2.7183
 Frc consts  --      3.3609                 1.5991                 2.5154
 IR Inten    --     56.5600               129.4752               323.7188

                     25                     26                     27
                      A                      A                      A
 Frequencies --   1306.9307              1318.8571              1343.4546
 Red. masses --      1.1583                 1.2455                 1.2227
 Frc consts  --      1.1657                 1.2764                 1.3002
 IR Inten    --    371.1310               483.4442                45.9369

                     28                     29                     30
                      A                      A                      A
 Frequencies --   1415.5699              1431.5209              1486.5229
 Red. masses --      1.2950                 1.1352                 1.1226
 Frc consts  --      1.5289                 1.3706                 1.4616
 IR Inten    --     61.8947               378.6292               126.7539

                     31                     32                     33
                      A                      A                      A
 Frequencies --   1519.5985              1868.2209              2251.9242
 Red. masses --      1.1031                12.8842                 5.7271
 Frc consts  --      1.5007                26.4950                17.1117
 IR Inten    --     10.1696               490.4710                54.5319

                     34                     35                     36
                      A                      A                      A
 Frequencies --   3103.3032              3112.0777              3161.4123
 Red. masses --      1.0589                 1.0584                 1.1059
 Frc consts  --      6.0084                 6.0394                 6.5124
 IR Inten    --      0.2211                13.9244                 2.7662

                     37                     38                     39
                      A                      A                      A
 Frequencies --   3185.7802              3487.8248              3797.4890
 Red. masses --      1.1085                 1.1700                 1.0671
 Frc consts  --      6.6286                 8.3859                 9.0668
 IR Inten    --      9.3490                60.1894                58.3762

 - Thermochemistry -
 -------------------
 Temperature   298.150 Kelvin.  Pressure   1.00000 Atm.
 Atom     1 has atomic number  6 and mass  12.00000

 Molecular mass:   115.03952 amu.
 Principal axes and moments of inertia in atomic units:
                           1         2         3
     Eigenvalues --   541.172241793.214292192.15397
           X            0.99972   0.02201  -0.00853
           Y           -0.02202   0.99976  -0.00068
           Z            0.00851   0.00087   0.99996
 This molecule is an asymmetric top.
 Rotational symmetry number  1.
 Warning -- assumption of classical behavior for rotation
           may cause significant error
 Rotational temperatures (Kelvin)      0.16005     0.04830     0.03951
 Rotational constants (GHZ):           3.33487     1.00643     0.82327
    2 imaginary frequencies ignored.
 Zero-point vibrational energy     280978.7 (Joules/Mol)
                                   67.15552 (Kcal/Mol)
 Warning -- explicit consideration of  10 degrees of freedom as
           vibrations may cause significant error
 Vibrational temperatures:     31.84   112.27   152.56   221.42   259.63
          (Kelvin)            373.26   401.26   518.26   560.21   796.90
                              908.31  1058.60  1072.68  1106.40  1107.46
                             1117.96  1198.26  1359.81  1525.41  1593.70
                             1691.65  1803.11  1880.38  1897.54  1932.93
                             2036.69  2059.64  2138.77  2186.36  2687.95
                             3240.02  4464.96  4477.59  4548.57  4583.63
                             5018.20  5463.74

 Zero-point correction=                           0.107019 (Hartree/Particle)
 Thermal correction to Energy=                    0.116108
 Thermal correction to Enthalpy=                  0.117052
 Thermal correction to Gibbs Free Energy=         0.070753
 Sum of electronic and zero-point Energies=           -419.338483
 Sum of electronic and thermal Energies=              -420.072351
 Sum of electronic and thermal Enthalpies=            -420.071407
 Sum of electronic and thermal Free Energies=         -420.117705

                     E (Thermal)             CV                S
                      KCal/Mol        Cal/Mol-Kelvin    Cal/Mol-Kelvin
 Total                   72.859             30.628             97.444
 Electronic               0.000              0.000              1.377
 Translational            0.889              2.981             40.136
 Rotational               0.889              2.981             29.144
 Vibrational             71.081             24.666             26.787
 Vibration     1          0.593              1.985              6.433
 Vibration     2          0.599              1.964              3.940
 Vibration     3          0.605              1.944              3.340
 Vibration     4          0.619              1.898              2.624
 Vibration     5          0.629              1.866              2.324
 Vibration     6          0.668              1.747              1.666
 Vibration     7          0.679              1.713              1.540
 Vibration     8          0.735              1.554              1.121
 Vibration     9          0.757              1.493              1.003
 Vibration    10          0.909              1.131              0.536

 1\1\GINC-AJ\Freq\UM062X\6-311++G(d,p)\C5H7O3(2)\AAYUSH\02-Apr-2025\0\\
 # freq 6-311++g(d,p) m062x\\Title Card Required\\0,2\C,1.261347,2.2495
 5,-0.059317\H,1.186034,3.31202,-0.074134\C,1.353044,1.054167,-0.042325
 \C,1.545443,-0.397408,0.007784\O,2.595842,-0.883398,0.299314\O,0.48806
 6,-1.160031,-0.301277\C,-0.797381,-0.571147,-0.562215\C,-1.514191,-0.2
 62305,0.730984\H,-0.685661,0.320307,-1.181405\H,-1.331494,-1.327516,-1
 .133998\H,-1.670367,-1.149571,1.343897\H,-1.053124,0.541734,1.305351\H
 ,-2.557502,0.152664,0.422115\O,-3.813838,0.389766,-0.120465\H,-4.31029

 Normal termination of Gaussian 16 at Wed Apr  2 08:10:22 2025.
