 Gaussian 16, Revision A.03,
 Gaussian 16:  ES64L-G16RevA.03 25-Dec-2016

 --------------------------
 # ccsd(t)/6-311++g(d,p) sp
 --------------------------

 -------------------
 Title Card Required
 -------------------
 Symbolic Z-matrix:
 Charge =  0 Multiplicity = 2

                         Standard orientation:
 ---------------------------------------------------------------------
 Center     Atomic      Atomic             Coordinates (Angstroms)
 Number     Number       Type             X           Y           Z
 ---------------------------------------------------------------------
      1          6           0        1.348023    2.236247   -0.068025
      2          1           0        1.272857    3.298832   -0.083669
      3          6           0        1.439541    1.040861   -0.050340
      4          6           0        1.632371   -0.410023    0.000841
      5          8           0        2.681763   -0.896831    0.292525
      6          8           0        0.573441   -1.173418   -0.307610
      7          6           0       -0.712930   -0.583622   -0.571386
      8          6           0       -1.427121   -0.276112    0.721666
      9          1           0       -0.599600    0.307372   -1.190139
     10          1           0       -1.245994   -1.341025   -1.142077
     11          1           0       -1.608044   -1.157559    1.334759
     12          1           0       -1.001692    0.549621    1.290737
     13          1           0       -2.611774    0.161045    0.344032
     14          8           0       -3.713032    0.374139   -0.123425
     15          1           0       -4.222431   -0.293515    0.357902
 ---------------------------------------------------------------------

 SCF Done:  E(UHF) =  -417.946989164     A.U. after   33 cycles
 E2 =    -0.1293545597D+01 EUMP2 =    -0.41924053476081D+03
 CCSD(T)= -0.41933971606D+03

 The electronic state is 2-A.
 Alpha  occ. eigenvalues --  -20.62209 -20.60955 -20.56395 -11.42319 -11.31747
 Alpha  occ. eigenvalues --  -11.28144 -11.27700 -11.27353  -1.48565  -1.39145
 Alpha  occ. eigenvalues --   -1.37620  -1.08252  -1.07515  -0.93179  -0.88681
 Alpha  occ. eigenvalues --   -0.76775  -0.74212  -0.72730  -0.70440  -0.67358
 Alpha  occ. eigenvalues --   -0.65258  -0.63839  -0.59376  -0.57751  -0.53962
 Alpha  occ. eigenvalues --   -0.53128  -0.49636  -0.48182  -0.45111  -0.43777
 Alpha  occ. eigenvalues --   -0.43454
 Alpha virt. eigenvalues --    0.03260   0.03871   0.05462   0.06777   0.07007
 Alpha virt. eigenvalues --    0.07655   0.08693   0.09335   0.11327   0.12138
 Alpha virt. eigenvalues --    0.12556   0.13199   0.14387   0.15080   0.16046

  Beta  occ. eigenvalues --  -20.62009 -20.58100 -20.56402 -11.42319 -11.31881
  Beta  occ. eigenvalues --  -11.28135 -11.27363 -11.25930  -1.48273  -1.38933
  Beta  occ. eigenvalues --   -1.28088  -1.08241  -1.04710  -0.91522  -0.87086
  Beta  occ. eigenvalues --   -0.76405  -0.73819  -0.70311  -0.67262  -0.65508
  Beta  occ. eigenvalues --   -0.64577  -0.58709  -0.57218  -0.53257  -0.51709
  Beta  occ. eigenvalues --   -0.50499  -0.48762  -0.47346  -0.43848  -0.43631
  Beta virt. eigenvalues --    0.02856   0.03384   0.04137   0.05492   0.06868
  Beta virt. eigenvalues --    0.07634   0.08257   0.08728   0.09515   0.11378
  Beta virt. eigenvalues --    0.12272   0.12590   0.13233   0.14413   0.15102

 Mulliken charges and spin densities:
               1          2
     1  C   -1.751492   0.011137
     2  H    0.227416  -0.000439
     3  C    1.940729  -0.008326
     4  C   -0.057513  -0.000920
     5  O   -0.326998  -0.002286
     6  O   -0.144484   0.018822
     7  C   -0.153950  -0.053232
     8  C   -0.522583   0.749474
     9  H    0.162305   0.003948
    10  H    0.190945   0.000068
    11  H    0.199527  -0.040830
    12  H    0.159490  -0.038908
    13  H    0.223438  -0.228476
    14  O   -0.398592   0.610131
    15  H    0.251760  -0.020164
 Sum of Mulliken charges =  -0.00000   1.00000

 Dipole moment (field-independent basis, Debye):
    X=             -3.2600    Y=              1.8799    Z=              0.5112  Tot=              3.7977
 Quadrupole moment (field-independent basis, Debye-Ang):
   XX=            -59.1609   YY=            -43.1963   ZZ=            -46.9045
   XY=             13.5984   XZ=             -6.0303   YZ=             -0.0799

 9\PMP3-0=-419.2629224\MP4SDQ=-419.2859392\CCSD=-419.2842788\CCSD(T)=-4
 Normal termination of Gaussian 16 at Sun May  4 10:38:32 2025.
