 Gaussian 16, Revision A.03,
 Gaussian 16:  ES64L-G16RevA.03 25-Dec-2016

 --------------------------
 # ccsd(t)/6-311++g(d,p) sp
 --------------------------

 -------------------
 Title Card Required
 -------------------
 Symbolic Z-matrix:
 Charge =  0 Multiplicity = 2

                         Standard orientation:
 ---------------------------------------------------------------------
 Center     Atomic      Atomic             Coordinates (Angstroms)
 Number     Number       Type             X           Y           Z
 ---------------------------------------------------------------------
      1          6           0        1.343931    2.237993   -0.067396
      2          1           0        1.267978    3.300380   -0.081241
      3          6           0        1.436456    1.042649   -0.051422
      4          6           0        1.629644   -0.409249   -0.002731
      5          8           0        2.681043   -0.894100    0.288073
      6          8           0        0.573836   -1.172148   -0.312378
      7          6           0       -0.711934   -0.584266   -0.570075
      8          6           0       -1.422816   -0.277125    0.726623
      9          1           0       -0.601896    0.307772   -1.189031
     10          1           0       -1.246668   -1.340078   -1.142286
     11          1           0       -1.570878   -1.168747    1.335576
     12          1           0       -0.937172    0.510641    1.304129
     13          1           0       -2.432636    0.147458    0.449163
     14          8           0       -3.742406    0.376986   -0.131695
     15          1           0       -4.230200   -0.303342    0.361692
 ---------------------------------------------------------------------

 SCF Done:  E(UHF) =  -417.963818866     A.U. after   35 cycles
 E2 =    -0.1274196562D+01 EUMP2 =    -0.41923801542738D+03
 CCSD(T)= -0.41933943464D+03

 The electronic state is 2-A.
 Alpha  occ. eigenvalues --  -20.65287 -20.61021 -20.55557 -11.41511 -11.30430
 Alpha  occ. eigenvalues --  -11.27411 -11.26706 -11.23733  -1.47579  -1.41546
 Alpha  occ. eigenvalues --   -1.38180  -1.07526  -1.05634  -0.92061  -0.87697
 Alpha  occ. eigenvalues --   -0.75699  -0.73900  -0.72848  -0.69733  -0.69197
 Alpha  occ. eigenvalues --   -0.65923  -0.63432  -0.58147  -0.57790  -0.55939
 Alpha  occ. eigenvalues --   -0.51892  -0.50324  -0.47702  -0.46233  -0.43093
 Alpha  occ. eigenvalues --   -0.42890
 Alpha virt. eigenvalues --    0.03167   0.03800   0.05606   0.06607   0.07172
 Alpha virt. eigenvalues --    0.07966   0.09098   0.09575   0.11524   0.12185
 Alpha virt. eigenvalues --    0.12904   0.13528   0.14790   0.15384   0.16375

  Beta  occ. eigenvalues --  -20.61314 -20.60968 -20.55561 -11.41510 -11.30477
  Beta  occ. eigenvalues --  -11.27408 -11.26710 -11.23063  -1.47505  -1.38129
  Beta  occ. eigenvalues --   -1.26886  -1.07524  -1.04568  -0.91330  -0.87074
  Beta  occ. eigenvalues --   -0.75598  -0.73145  -0.69415  -0.67413  -0.65936
  Beta  occ. eigenvalues --   -0.63369  -0.57973  -0.55827  -0.53549  -0.53111
  Beta  occ. eigenvalues --   -0.51155  -0.47943  -0.46334  -0.43110  -0.42910
  Beta virt. eigenvalues --    0.03020   0.03718   0.04843   0.05628   0.07134
  Beta virt. eigenvalues --    0.07891   0.08616   0.09109   0.09602   0.11602
  Beta virt. eigenvalues --    0.12207   0.12969   0.13599   0.14790   0.15427

 Mulliken charges and spin densities:
               1          2
     1  C   -1.740311   0.005984
     2  H    0.224630  -0.000169
     3  C    1.938078  -0.002963
     4  C   -0.065682  -0.002422
     5  O   -0.334527  -0.000838
     6  O   -0.146161   0.004093
     7  C   -0.175250  -0.017547
     8  C   -0.508341   0.250287
     9  H    0.148526   0.000053
    10  H    0.180096   0.000423
    11  H    0.175402  -0.015915
    12  H    0.131714  -0.009709
    13  H    0.158431  -0.096124
    14  O   -0.244221   0.917371
    15  H    0.257615  -0.032525
 Sum of Mulliken charges =  -0.00000   1.00000

 Dipole moment (field-independent basis, Debye):
    X=             -4.9992    Y=              2.1821    Z=              0.1150  Tot=              5.4559
 Quadrupole moment (field-independent basis, Debye-Ang):
   XX=            -51.0325   YY=            -43.5559   ZZ=            -47.3630
   XY=             12.3268   XZ=             -4.9440   YZ=             -0.1532

 193\PMP3-0=-419.2642021\MP4SDQ=-419.286955\CCSD=-419.2857691\CCSD(T)=-
 Normal termination of Gaussian 16 at Sat May  3 05:56:45 2025.
