 Gaussian 16, Revision A.03,
 Gaussian 16:  ES64L-G16RevA.03 25-Dec-2016

 --------------------------
 # ccsd(t)/6-311++g(d,p) sp
 --------------------------

 -------------------
 Title Card Required
 -------------------
 Symbolic Z-matrix:
 Charge =  0 Multiplicity = 2

                         Standard orientation:
 ---------------------------------------------------------------------
 Center     Atomic      Atomic             Coordinates (Angstroms)
 Number     Number       Type             X           Y           Z
 ---------------------------------------------------------------------
      1          6           0        1.346387    2.236842   -0.067738
      2          1           0        1.271060    3.299333   -0.082596
      3          6           0        1.438086    1.041461   -0.050743
      4          6           0        1.630617   -0.409968   -0.000589
      5          8           0        2.680837   -0.896142    0.290853
      6          8           0        0.572885   -1.172733   -0.309517
      7          6           0       -0.712731   -0.583690   -0.570952
      8          6           0       -1.429812   -0.275057    0.721990
      9          1           0       -0.600785    0.307764   -1.189949
     10          1           0       -1.246672   -1.340202   -1.142565
     11          1           0       -1.589949   -1.161269    1.335176
     12          1           0       -0.975848    0.533367    1.295470
     13          1           0       -2.493394    0.140980    0.401800
     14          8           0       -3.725623    0.376434   -0.127560
     15          1           0       -4.224493   -0.297973    0.360657
 ---------------------------------------------------------------------

 SCF Done:  E(UHF) =  -417.955885067     A.U. after   35 cycles
 E2 =    -0.1280242849D+01 EUMP2 =    -0.41923612791608D+03
 CCSD(T)= -0.41933813252D+03

 The electronic state is 2-A.
 Alpha  occ. eigenvalues --  -20.64582 -20.61217 -20.55717 -11.41654 -11.30682
 Alpha  occ. eigenvalues --  -11.27552 -11.26826 -11.24769  -1.47722  -1.41050
 Alpha  occ. eigenvalues --   -1.38346  -1.07663  -1.05925  -0.92208  -0.87853
 Alpha  occ. eigenvalues --   -0.75893  -0.74194  -0.73032  -0.69671  -0.68655
 Alpha  occ. eigenvalues --   -0.66019  -0.63721  -0.58182  -0.57396  -0.56259
 Alpha  occ. eigenvalues --   -0.52058  -0.49568  -0.47598  -0.45985  -0.43224
 Alpha  occ. eigenvalues --   -0.43004
 Alpha virt. eigenvalues --    0.03213   0.03798   0.05588   0.06654   0.07140
 Alpha virt. eigenvalues --    0.07900   0.09023   0.09535   0.11513   0.12174
 Alpha virt. eigenvalues --    0.12824   0.13451   0.14713   0.15338   0.16290

  Beta  occ. eigenvalues --  -20.61129 -20.60802 -20.55722 -11.41653 -11.30753
  Beta  occ. eigenvalues --  -11.27547 -11.26831 -11.23791  -1.47598  -1.38259
  Beta  occ. eigenvalues --   -1.27405  -1.07661  -1.04420  -0.91239  -0.86961
  Beta  occ. eigenvalues --   -0.75727  -0.73259  -0.69562  -0.67424  -0.65937
  Beta  occ. eigenvalues --   -0.63610  -0.57961  -0.56098  -0.52896  -0.52807
  Beta  occ. eigenvalues --   -0.51166  -0.48054  -0.46466  -0.43252  -0.43047
  Beta virt. eigenvalues --    0.02985   0.03658   0.04564   0.05611   0.07088
  Beta virt. eigenvalues --    0.07836   0.08466   0.09041   0.09608   0.11598
  Beta virt. eigenvalues --    0.12219   0.12875   0.13491   0.14715   0.15367

 Mulliken charges and spin densities:
               1          2
     1  C   -1.752101   0.007164
     2  H    0.224860  -0.000252
     3  C    1.947787  -0.004295
     4  C   -0.063817  -0.001986
     5  O   -0.332958  -0.001274
     6  O   -0.147021   0.007263
     7  C   -0.164682  -0.026351
     8  C   -0.519123   0.384521
     9  H    0.151431   0.001410
    10  H    0.182087  -0.000071
    11  H    0.180947  -0.022390
    12  H    0.140024  -0.018015
    13  H    0.165007  -0.152245
    14  O   -0.270230   0.856378
    15  H    0.257789  -0.029857
 Sum of Mulliken charges =  -0.00000   1.00000

 Dipole moment (field-independent basis, Debye):
    X=             -4.6836    Y=              2.1388    Z=              0.1704  Tot=              5.1517
 Quadrupole moment (field-independent basis, Debye-Ang):
   XX=            -52.4494   YY=            -43.5101   ZZ=            -47.2879
   XY=             12.5532   XZ=             -5.1202   YZ=             -0.1280

 419.2836837\CCSD(T)=-419.3381325\S2=0.776885\S2-1=0.759041\S2A=0.75033
 Normal termination of Gaussian 16 at Sun May  4 17:11:14 2025.
