 Gaussian 16, Revision A.03,
 Gaussian 16:  ES64L-G16RevA.03 25-Dec-2016

 --------------------------
 # ccsd(t)/6-311++g(d,p) sp
 --------------------------

 -------------------
 Title Card Required
 -------------------
 Symbolic Z-matrix:
 Charge =  0 Multiplicity = 2

                         Standard orientation:
 ---------------------------------------------------------------------
 Center     Atomic      Atomic             Coordinates (Angstroms)
 Number     Number       Type             X           Y           Z
 ---------------------------------------------------------------------
      1          6           0       -2.105473   -1.055264   -0.846738
      2          1           0       -2.776064   -1.766574   -1.272611
      3          6           0       -1.265323   -0.369031   -0.254462
      4          6           0       -0.604628    0.937124    0.050180
      5          8           0       -1.217953    1.835166    0.542083
      6          8           0        0.687998    1.027240   -0.225396
      7          6           0        1.459688   -0.059884   -0.773634
      8          6           0        2.540068   -0.441767    0.213685
      9          1           0        0.816020   -0.909221   -1.000219
     10          1           0        1.880398    0.324243   -1.704124
     11          1           0        3.157457    0.424295    0.455923
     12          1           0        2.088091   -0.830733    1.125799
     13          1           0        3.177295   -1.214289   -0.221732
     14          8           0       -0.390605   -1.427218    1.015166
     15          1           0       -1.124702   -1.576295    1.627957
 ---------------------------------------------------------------------

 SCF Done:  E(UHF) =  -417.966863746     A.U. after   30 cycles
 E2 =    -0.1260543532D+01 EUMP2 =    -0.41922740727755D+03
 CCSD(T)= -0.41934956775D+03

 The electronic state is 2-A.
 Alpha  occ. eigenvalues --  -20.62489 -20.60632 -20.54953 -11.41307 -11.29837
 Alpha  occ. eigenvalues --  -11.28972 -11.28635 -11.22228  -1.47361  -1.38351
 Alpha  occ. eigenvalues --   -1.37539  -1.08793  -1.04606  -0.90817  -0.87490
 Alpha  occ. eigenvalues --   -0.76435  -0.73345  -0.70907  -0.67308  -0.66018
 Alpha  occ. eigenvalues --   -0.65439  -0.61079  -0.56960  -0.55570  -0.55276
 Alpha  occ. eigenvalues --   -0.52668  -0.50548  -0.47575  -0.44881  -0.44196
 Alpha  occ. eigenvalues --   -0.42854
 Alpha virt. eigenvalues --    0.03207   0.04606   0.05414   0.06586   0.06914
 Alpha virt. eigenvalues --    0.08633   0.09401   0.10437   0.10934   0.12417
 Alpha virt. eigenvalues --    0.12767   0.12967   0.14113   0.15664   0.16283

  Beta  occ. eigenvalues --  -20.60570 -20.59190 -20.55440 -11.40911 -11.31041
  Beta  occ. eigenvalues --  -11.29866 -11.26080 -11.22225  -1.47463  -1.38259
  Beta  occ. eigenvalues --   -1.27348  -1.07281  -1.04510  -0.89673  -0.86395
  Beta  occ. eigenvalues --   -0.75742  -0.72409  -0.70240  -0.66944  -0.64389
  Beta  occ. eigenvalues --   -0.62451  -0.57016  -0.56264  -0.53829  -0.51290
  Beta  occ. eigenvalues --   -0.50490  -0.49133  -0.46779  -0.45503  -0.42731
  Beta virt. eigenvalues --    0.03229   0.03704   0.04716   0.06381   0.06788
  Beta virt. eigenvalues --    0.07334   0.08287   0.09781   0.11141   0.11597
  Beta virt. eigenvalues --    0.12417   0.12960   0.13741   0.14871   0.16039

 Mulliken charges and spin densities:
               1          2
     1  C   -0.337947   1.351268
     2  H    0.253668  -0.097724
     3  C    0.281818  -1.058663
     4  C    0.092145   0.182174
     5  O   -0.335072  -0.099386
     6  O   -0.110526  -0.002579
     7  C   -0.316102   0.003955
     8  C   -0.410870  -0.005921
     9  H    0.200803   0.004208
    10  H    0.174223   0.000963
    11  H    0.160567  -0.000383
    12  H    0.162007   0.001227
    13  H    0.123209  -0.000170
    14  O   -0.199906   0.748998
    15  H    0.261983  -0.027967
 Sum of Mulliken charges =  -0.00000   1.00000

 Dipole moment (field-independent basis, Debye):
    X=             -0.1369    Y=             -4.4228    Z=             -1.6327  Tot=              4.7165
 Quadrupole moment (field-independent basis, Debye-Ang):
   XX=            -41.3747   YY=            -53.4602   ZZ=            -43.4990
   XY=              8.0722   XZ=              0.4436   YZ=             -1.8954

 59\PMP3-0=-419.276041\MP4SDQ=-419.2857224\CCSD=-419.2939426\CCSD(T)=-4
 Normal termination of Gaussian 16 at Wed May 14 02:48:46 2025.
