 Gaussian 16, Revision A.03,
 Gaussian 16:  ES64L-G16RevA.03 25-Dec-2016

 --------------------------
 # freq 6-311++g(d,p) m062x
 --------------------------

 -------------------
 Title Card Required
 -------------------
 Symbolic Z-matrix:
 Charge =  0 Multiplicity = 2

                         Standard orientation:
 ---------------------------------------------------------------------
 Center     Atomic      Atomic             Coordinates (Angstroms)
 Number     Number       Type             X           Y           Z
 ---------------------------------------------------------------------
      1          6           0       -2.100828   -1.067300   -0.850124
      2          1           0       -2.764126   -1.788011   -1.269992
      3          6           0       -1.313870   -0.300265   -0.342254
      4          6           0       -0.615306    0.936833    0.066006
      5          8           0       -1.224709    1.818287    0.593659
      6          8           0        0.678676    1.035722   -0.206417
      7          6           0        1.452127   -0.033128   -0.783955
      8          6           0        2.544730   -0.425216    0.186599
      9          1           0        0.810043   -0.881398   -1.020674
     10          1           0        1.862920    0.370515   -1.710694
     11          1           0        3.156680    0.441190    0.440888
     12          1           0        2.106372   -0.834261    1.096747
     13          1           0        3.184907   -1.184117   -0.267917
     14          8           0       -0.336422   -1.498314    1.043428
     15          1           0       -1.098274   -1.635024    1.628653
 ---------------------------------------------------------------------

 SCF Done:  E(UM062X) =  -420.197315095     A.U. after   24 cycles

 The electronic state is 2-A.
 Alpha  occ. eigenvalues --  -19.67858 -19.67390 -19.62504 -10.70736 -10.60639
 Alpha  occ. eigenvalues --  -10.59783 -10.59158 -10.53342  -1.25018  -1.16385
 Alpha  occ. eigenvalues --   -1.13416  -0.90792  -0.88101  -0.76514  -0.73834
 Alpha  occ. eigenvalues --   -0.64792  -0.62456  -0.59348  -0.56258  -0.55051
 Alpha  occ. eigenvalues --   -0.53178  -0.50056  -0.47646  -0.47433  -0.44912
 Alpha  occ. eigenvalues --   -0.42627  -0.41775  -0.40159  -0.37556  -0.36474
 Alpha  occ. eigenvalues --   -0.35468
 Alpha virt. eigenvalues --   -0.01328  -0.00747   0.00557   0.01005   0.02157
 Alpha virt. eigenvalues --    0.02430   0.03363   0.04730   0.05657   0.05944
 Alpha virt. eigenvalues --    0.07140   0.07403   0.08601   0.09426   0.10159

  Beta  occ. eigenvalues --  -19.67855 -19.65939 -19.62525 -10.70717 -10.60642
  Beta  occ. eigenvalues --  -10.59809 -10.58954 -10.53340  -1.25012  -1.16421
  Beta  occ. eigenvalues --   -1.07285  -0.89895  -0.88041  -0.76289  -0.73640
  Beta  occ. eigenvalues --   -0.64587  -0.62083  -0.58845  -0.56213  -0.53066
  Beta  occ. eigenvalues --   -0.52042  -0.47884  -0.47577  -0.44735  -0.42012
  Beta  occ. eigenvalues --   -0.40636  -0.39795  -0.38988  -0.37348  -0.35960
  Beta virt. eigenvalues --   -0.10750  -0.00705  -0.00430   0.00611   0.01296
  Beta virt. eigenvalues --    0.02342   0.02557   0.03508   0.04714   0.05789
  Beta virt. eigenvalues --    0.06095   0.07182   0.07483   0.08576   0.09477

 Mulliken charges and spin densities:
               1          2
     1  C   -0.817467   0.304902
     2  H    0.223526  -0.015783
     3  C    0.698386  -0.100842
     4  C    0.078473   0.034081
     5  O   -0.246605  -0.009252
     6  O   -0.023345  -0.000850
     7  C   -0.363544   0.010321
     8  C   -0.440265  -0.003258
     9  H    0.180574   0.000314
    10  H    0.210219   0.001462
    11  H    0.178052  -0.000426
    12  H    0.178511   0.000455
    13  H    0.152905  -0.000630
    14  O   -0.260855   0.798097
    15  H    0.251434  -0.018591
 Sum of Mulliken charges =  -0.00000   1.00000

 Dipole moment (field-independent basis, Debye):
    X=             -0.1352    Y=             -3.8375    Z=             -1.7246  Tot=              4.2094
 Quadrupole moment (field-independent basis, Debye-Ang):
   XX=            -40.7998   YY=            -52.6431   ZZ=            -43.8770
   XY=              7.8400   XZ=              0.6316   YZ=             -1.5802

  Exact polarizability:  86.419  -0.219  71.265   9.384   1.895  67.491
 Approx polarizability:  92.626   3.068  85.281   8.938   8.815  78.031

 ******    1 imaginary frequencies (negative Signs) ******

                      1                      2                      3
                      A                      A                      A
 Frequencies --   -374.3391                69.0224                87.9655
 Red. masses --     11.8098                 7.0425                 5.1808
 Frc consts  --      0.9750                 0.0198                 0.0236
 IR Inten    --     48.4806                 4.4894                 1.0349

                      4                      5                      6
                      A                      A                      A
 Frequencies --    111.1588               144.4443               176.7620
 Red. masses --      2.6285                 6.5638                 2.3103
 Frc consts  --      0.0191                 0.0807                 0.0425
 IR Inten    --      0.7245                10.8546                13.1070

                      7                      8                      9
                      A                      A                      A
 Frequencies --    209.9062               225.9849               258.9428
 Red. masses --      1.7187                 1.3504                 1.7808
 Frc consts  --      0.0446                 0.0406                 0.0704
 IR Inten    --     31.8107                 1.0240                35.9194

                     10                     11                     12
                      A                      A                      A
 Frequencies --    352.5868               400.1875               546.8063
 Red. masses --      2.9063                 3.3604                 5.8053
 Frc consts  --      0.2129                 0.3171                 1.0227
 IR Inten    --      0.4323                 7.6237                19.2664

                     13                     14                     15
                      A                      A                      A
 Frequencies --    621.1155               697.0820               698.7517
 Red. masses --      4.5810                 1.2946                 1.2288
 Frc consts  --      1.0413                 0.3706                 0.3535
 IR Inten    --     14.7287                66.9061                11.7271

                     16                     17                     18
                      A                      A                      A
 Frequencies --    741.5474               745.5413               761.7076
 Red. masses --      4.9429                 1.3503                 5.4277
 Frc consts  --      1.6014                 0.4422                 1.8554
 IR Inten    --     49.1996                32.4507                17.5502

                     19                     20                     21
                      A                      A                      A
 Frequencies --    817.2516               962.6936              1095.5530
 Red. masses --      1.1558                 2.1894                 4.0493
 Frc consts  --      0.4548                 1.1955                 2.8635
 IR Inten    --      7.8637                16.9857                57.7732

                     22                     23                     24
                      A                      A                      A
 Frequencies --   1139.9385              1178.6700              1282.1679
 Red. masses --      2.3990                 1.7967                 2.5367
 Frc consts  --      1.8367                 1.4706                 2.4571
 IR Inten    --     33.9940                47.8962               344.6342

                     25                     26                     27
                      A                      A                      A
 Frequencies --   1361.4414              1403.2822              1434.8764
 Red. masses --      1.4123                 1.2583                 1.3625
 Frc consts  --      1.5423                 1.4599                 1.6528
 IR Inten    --    149.3335                26.3488                15.3759

                     28                     29                     30
                      A                      A                      A
 Frequencies --   1488.4898              1502.9420              1528.0525
 Red. masses --      1.0378                 1.0480                 1.1009
 Frc consts  --      1.3548                 1.3948                 1.5145
 IR Inten    --      5.6159                 4.7624                 5.3872

                     31                     32                     33
                      A                      A                      A
 Frequencies --   1863.1184              2152.0101              3075.5866
 Red. masses --     12.9316                 6.0763                 1.0354
 Frc consts  --     26.4474                16.5798                 5.7706
 IR Inten    --    532.6748                88.6241                11.9527

                     34                     35                     36
                      A                      A                      A
 Frequencies --   3097.3996              3145.5088              3154.5443
 Red. masses --      1.0606                 1.1050                 1.1011
 Frc consts  --      5.9951                 6.4419                 6.4560
 IR Inten    --     20.3945                 4.5263                12.0276

                     37                     38                     39
                      A                      A                      A
 Frequencies --   3171.6570              3474.4990              3810.8237
 Red. masses --      1.1056                 1.1561                 1.0675
 Frc consts  --      6.5527                 8.2229                 9.1339
 IR Inten    --     15.3067                70.3872                50.4591

 - Thermochemistry -
 -------------------
 Temperature   298.150 Kelvin.  Pressure   1.00000 Atm.
 Atom     1 has atomic number  6 and mass  12.00000

 Molecular mass:   115.03952 amu.
 Principal axes and moments of inertia in atomic units:
                           1         2         3
     Eigenvalues --   691.649331082.850031407.24408
           X            0.99979   0.02021   0.00233
           Y           -0.02020   0.99978  -0.00520
           Z           -0.00243   0.00515   0.99998
 This molecule is an asymmetric top.
 Rotational symmetry number  1.
 Warning -- assumption of classical behavior for rotation
           may cause significant error
 Rotational temperatures (Kelvin)      0.12523     0.07999     0.06155
 Rotational constants (GHZ):           2.60933     1.66666     1.28246
    1 imaginary frequencies ignored.
 Zero-point vibrational energy     293025.4 (Joules/Mol)
                                   70.03475 (Kcal/Mol)
 Warning -- explicit consideration of  11 degrees of freedom as
           vibrations may cause significant error
 Vibrational temperatures:     99.31   126.56   159.93   207.82   254.32
          (Kelvin)            302.01   325.14   372.56   507.29   575.78
                              786.73   893.65  1002.95  1005.35  1066.92
                             1072.67  1095.93  1175.84  1385.10  1576.26
                             1640.12  1695.84  1844.75  1958.81  2019.01
                             2064.47  2141.60  2162.40  2198.53  2680.61
                             3096.26  4425.08  4456.47  4525.69  4538.69
                             4563.31  4999.03  5482.93

 Zero-point correction=                           0.111607 (Hartree/Particle)
 Thermal correction to Energy=                    0.121248
 Thermal correction to Enthalpy=                  0.122192
 Thermal correction to Gibbs Free Energy=         0.076168
 Sum of electronic and zero-point Energies=           -420.085708
 Sum of electronic and thermal Energies=              -420.076067
 Sum of electronic and thermal Enthalpies=            -420.075123
 Sum of electronic and thermal Free Energies=         -420.121147

                     E (Thermal)             CV                S
                      KCal/Mol        Cal/Mol-Kelvin    Cal/Mol-Kelvin
 Total                   76.084             32.552             96.866
 Electronic               0.000              0.000              1.377
 Translational            0.889              2.981             40.136
 Rotational               0.889              2.981             28.446
 Vibrational             74.307             26.590             26.907
 Vibration     1          0.598              1.969              4.181
 Vibration     2          0.601              1.958              3.705
 Vibration     3          0.607              1.940              3.249
 Vibration     4          0.616              1.909              2.744
 Vibration     5          0.628              1.871              2.362
 Vibration     6          0.642              1.826              2.044
 Vibration     7          0.650              1.801              1.911
 Vibration     8          0.668              1.748              1.669
 Vibration     9          0.729              1.570              1.155
 Vibration    10          0.766              1.470              0.962
 Vibration    11          0.902              1.147              0.551

 Normal termination of Gaussian 16 at Fri Mar 28 07:24:45 2025.
