 Gaussian 16, Revision A.03,
 Gaussian 16:  ES64L-G16RevA.03 25-Dec-2016

 --------------------------
 # freq 6-311++g(d,p) m062x
 --------------------------

 -------------------
 Title Card Required
 -------------------
 Symbolic Z-matrix:
 Charge =  0 Multiplicity = 2

                         Standard orientation:
 ---------------------------------------------------------------------
 Center     Atomic      Atomic             Coordinates (Angstroms)
 Number     Number       Type             X           Y           Z
 ---------------------------------------------------------------------
      1          6           0       -2.101910   -1.063524   -0.848101
      2          1           0       -2.768956   -1.778419   -1.272482
      3          6           0       -1.298056   -0.322848   -0.313699
      4          6           0       -0.611048    0.936724    0.061258
      5          8           0       -1.222439    1.824182    0.575492
      6          8           0        0.682032    1.032803   -0.213139
      7          6           0        1.454929   -0.042554   -0.780391
      8          6           0        2.543094   -0.431245    0.196172
      9          1           0        0.812133   -0.891117   -1.013490
     10          1           0        1.869294    0.354422   -1.708381
     11          1           0        3.156914    0.435019    0.446487
     12          1           0        2.099741   -0.833383    1.106941
     13          1           0        3.182317   -1.194927   -0.251646
     14          8           0       -0.355330   -1.473879    1.034151
     15          1           0       -1.107604   -1.615754    1.629105
 ---------------------------------------------------------------------

 SCF Done:  E(UM062X) =  -420.196792394     A.U. after   24 cycles

 The electronic state is 2-A.
 Alpha  occ. eigenvalues --  -19.67917 -19.66670 -19.62601 -10.70808 -10.60646
 Alpha  occ. eigenvalues --  -10.60615 -10.59660 -10.53290  -1.25101  -1.16466
 Alpha  occ. eigenvalues --   -1.12793  -0.91139  -0.88114  -0.76606  -0.73895
 Alpha  occ. eigenvalues --   -0.64959  -0.62628  -0.59332  -0.56318  -0.54626
 Alpha  occ. eigenvalues --   -0.53285  -0.49807  -0.47648  -0.47313  -0.44852
 Alpha  occ. eigenvalues --   -0.42276  -0.41570  -0.40322  -0.37556  -0.36624
 Alpha  occ. eigenvalues --   -0.34828
 Alpha virt. eigenvalues --   -0.01265  -0.00757   0.00545   0.01029   0.02093
 Alpha virt. eigenvalues --    0.02430   0.03280   0.04701   0.05601   0.05932
 Alpha virt. eigenvalues --    0.07107   0.07390   0.08579   0.09409   0.10071

  Beta  occ. eigenvalues --  -19.67913 -19.65315 -19.62624 -10.70784 -10.60671
  Beta  occ. eigenvalues --  -10.60649 -10.59390 -10.53288  -1.25092  -1.16505
  Beta  occ. eigenvalues --   -1.07428  -0.89995  -0.88048  -0.76302  -0.73646
  Beta  occ. eigenvalues --   -0.64670  -0.62205  -0.58870  -0.56267  -0.52901
  Beta  occ. eigenvalues --   -0.52083  -0.47875  -0.47560  -0.44716  -0.42021
  Beta  occ. eigenvalues --   -0.40941  -0.39886  -0.38758  -0.37413  -0.35949
  Beta virt. eigenvalues --   -0.11044  -0.00682  -0.00296   0.00607   0.01300
  Beta virt. eigenvalues --    0.02320   0.02575   0.03463   0.04647   0.05759
  Beta virt. eigenvalues --    0.06067   0.07126   0.07458   0.08531   0.09465

 Mulliken charges and spin densities:
               1          2
     1  C   -0.551539   0.422779
     2  H    0.230944  -0.019975
     3  C    0.465543  -0.141961
     4  C    0.042437   0.031671
     5  O   -0.245919  -0.010240
     6  O   -0.022741  -0.000562
     7  C   -0.364162   0.009620
     8  C   -0.439578  -0.003892
     9  H    0.185560   0.002109
    10  H    0.210229   0.001339
    11  H    0.177673  -0.000473
    12  H    0.181566   0.000640
    13  H    0.151710  -0.000507
    14  O   -0.271349   0.725891
    15  H    0.249627  -0.016440
 Sum of Mulliken charges =  -0.00000   1.00000

 Dipole moment (field-independent basis, Debye):
    X=             -0.2474    Y=             -3.7515    Z=             -1.8663  Tot=              4.1973
 Quadrupole moment (field-independent basis, Debye-Ang):
   XX=            -40.4926   YY=            -52.8821   ZZ=            -43.9376
   XY=              7.8136   XZ=              0.7889   YZ=             -1.2379

  Exact polarizability:  87.039  -0.838  71.220  10.330   1.188  68.504
 Approx polarizability:  93.696   1.775  84.881  10.488   7.562  79.781

 ******    1 imaginary frequencies (negative Signs) ******

                      1                      2                      3
                      A                      A                      A
 Frequencies --   -538.7399                83.7274                91.1823
 Red. masses --     11.9708                 7.4488                 4.5793
 Frc consts  --      2.0471                 0.0308                 0.0224
 IR Inten    --     66.2514                 2.3989                 3.2055

                      4                      5                      6
                      A                      A                      A
 Frequencies --    108.5202               162.0688               181.5222
 Red. masses --      2.5984                 6.0760                 2.2211
 Frc consts  --      0.0180                 0.0940                 0.0431
 IR Inten    --      0.6837                17.2413                14.3409

                      7                      8                      9
                      A                      A                      A
 Frequencies --    209.2288               228.4384               262.6639
 Red. masses --      1.4656                 1.4151                 2.2012
 Frc consts  --      0.0378                 0.0435                 0.0895
 IR Inten    --     37.5543                 0.6201                22.3531

                     10                     11                     12
                      A                      A                      A
 Frequencies --    357.3641               401.3605               546.2717
 Red. masses --      2.9277                 3.3780                 5.7596
 Frc consts  --      0.2203                 0.3206                 1.0126
 IR Inten    --      0.3798                 7.6944                20.9671

                     13                     14                     15
                      A                      A                      A
 Frequencies --    621.6017               668.1652               728.8250
 Red. masses --      4.9996                 1.3325                 2.2166
 Frc consts  --      1.1382                 0.3505                 0.6937
 IR Inten    --      9.8934                27.0752                 5.0922

                     16                     17                     18
                      A                      A                      A
 Frequencies --    739.1787               758.8608               779.0251
 Red. masses --      1.8820                 5.3778                 1.2506
 Frc consts  --      0.6059                 1.8247                 0.4472
 IR Inten    --     51.3777                 5.2010                86.5287

                     19                     20                     21
                      A                      A                      A
 Frequencies --    816.7910               961.8851              1094.4102
 Red. masses --      1.1533                 2.1906                 4.1111
 Frc consts  --      0.4533                 1.1942                 2.9012
 IR Inten    --      8.2062                18.1000                60.2740

                     22                     23                     24
                      A                      A                      A
 Frequencies --   1139.6331              1178.5965              1280.6586
 Red. masses --      2.3576                 1.8051                 2.5570
 Frc consts  --      1.8041                 1.4773                 2.4709
 IR Inten    --     31.7633                48.4936               338.0914

                     25                     26                     27
                      A                      A                      A
 Frequencies --   1361.7549              1402.9625              1434.6571
 Red. masses --      1.4036                 1.2578                 1.3622
 Frc consts  --      1.5335                 1.4586                 1.6519
 IR Inten    --    144.4707                25.5335                16.5686

                     28                     29                     30
                      A                      A                      A
 Frequencies --   1488.5122              1502.9489              1528.5634
 Red. masses --      1.0378                 1.0477                 1.1008
 Frc consts  --      1.3548                 1.3944                 1.5154
 IR Inten    --      5.6673                 5.0991                 5.4348

                     31                     32                     33
                      A                      A                      A
 Frequencies --   1865.0126              2099.0362              3075.3438
 Red. masses --     12.9059                 6.2772                 1.0354
 Frc consts  --     26.4486                16.2952                 5.7695
 IR Inten    --    538.3319                96.6436                12.1922

                     34                     35                     36
                      A                      A                      A
 Frequencies --   3098.0382              3145.9809              3154.9110
 Red. masses --      1.0608                 1.1048                 1.1011
 Frc consts  --      5.9989                 6.4421                 6.4575
 IR Inten    --     20.6496                 5.0611                11.4856

                     37                     38                     39
                      A                      A                      A
 Frequencies --   3172.0927              3468.4977              3819.9892
 Red. masses --      1.1057                 1.1492                 1.0676
 Frc consts  --      6.5553                 8.1459                 9.1789
 IR Inten    --     14.5239                71.6829                55.9032

 - Thermochemistry -
 -------------------
 Temperature   298.150 Kelvin.  Pressure   1.00000 Atm.
 Atom     1 has atomic number  6 and mass  12.00000

 Molecular mass:   115.03952 amu.
 Principal axes and moments of inertia in atomic units:
                           1         2         3
     Eigenvalues --   685.440101078.647101403.21823
           X            0.99981   0.01917   0.00273
           Y           -0.01915   0.99980  -0.00487
           Z           -0.00282   0.00482   0.99998
 This molecule is an asymmetric top.
 Rotational symmetry number  1.
 Warning -- assumption of classical behavior for rotation
           may cause significant error
 Rotational temperatures (Kelvin)      0.12636     0.08030     0.06173
 Rotational constants (GHZ):           2.63297     1.67315     1.28614
    1 imaginary frequencies ignored.
 Zero-point vibrational energy     293194.4 (Joules/Mol)
                                   70.07515 (Kcal/Mol)
 Warning -- explicit consideration of  11 degrees of freedom as
           vibrations may cause significant error
 Vibrational temperatures:    120.47   131.19   156.14   233.18   261.17
          (Kelvin)            301.03   328.67   377.91   514.17   577.47
                              785.96   894.35   961.34  1048.62  1063.51
                             1091.83  1120.84  1175.18  1383.94  1574.61
                             1639.68  1695.74  1842.58  1959.26  2018.55
                             2064.15  2141.64  2162.41  2199.26  2683.34
                             3020.04  4424.73  4457.39  4526.36  4539.21
                             4563.93  4990.39  5496.11

 Zero-point correction=                           0.111672 (Hartree/Particle)
 Thermal correction to Energy=                    0.121221
 Thermal correction to Enthalpy=                  0.122166
 Thermal correction to Gibbs Free Energy=         0.076509
 Sum of electronic and zero-point Energies=           -420.085121
 Sum of electronic and thermal Energies=              -420.075571
 Sum of electronic and thermal Enthalpies=            -420.074627
 Sum of electronic and thermal Free Energies=         -420.120284

                     E (Thermal)             CV                S
                      KCal/Mol        Cal/Mol-Kelvin    Cal/Mol-Kelvin
 Total                   76.068             32.452             96.094
 Electronic               0.000              0.000              1.377
 Translational            0.889              2.981             40.136
 Rotational               0.889              2.981             28.430
 Vibrational             74.290             26.490             26.150
 Vibration     1          0.601              1.960              3.802
 Vibration     2          0.602              1.955              3.635
 Vibration     3          0.606              1.942              3.295
 Vibration     4          0.622              1.889              2.526
 Vibration     5          0.630              1.865              2.313
 Vibration     6          0.642              1.827              2.050
 Vibration     7          0.651              1.798              1.891
 Vibration     8          0.670              1.741              1.644
 Vibration     9          0.733              1.560              1.134
 Vibration    10          0.767              1.467              0.958
 Vibration    11          0.901              1.148              0.552

 Normal termination of Gaussian 16 at Fri Mar 28 06:59:04 2025.
