 Gaussian 16, Revision A.03,
 Gaussian 16:  ES64L-G16RevA.03 25-Dec-2016

 --------------------------
 # freq 6-311++g(d,p) m062x
 --------------------------

 -------------------
 Title Card Required
 -------------------
 Symbolic Z-matrix:
 Charge =  0 Multiplicity = 2

                         Standard orientation:
 ---------------------------------------------------------------------
 Center     Atomic      Atomic             Coordinates (Angstroms)
 Number     Number       Type             X           Y           Z
 ---------------------------------------------------------------------
      1          6           0       -2.100655   -1.069183   -0.851559
      2          1           0       -2.761238   -1.794400   -1.267722
      3          6           0       -1.321369   -0.289423   -0.356145
      4          6           0       -0.617818    0.937339    0.067721
      5          8           0       -1.225706    1.815434    0.603143
      6          8           0        0.676851    1.037124   -0.202941
      7          6           0        1.450516   -0.028407   -0.785795
      8          6           0        2.545567   -0.421987    0.181566
      9          1           0        0.808883   -0.876637   -1.024141
     10          1           0        1.859303    0.378523   -1.712008
     11          1           0        3.156533    0.444599    0.437597
     12          1           0        2.109889   -0.834378    1.091490
     13          1           0        3.186212   -1.178444   -0.276334
     14          8           0       -0.326583   -1.510752    1.048319
     15          1           0       -1.093526   -1.643744    1.628218
 ---------------------------------------------------------------------

 SCF Done:  E(UM062X) =  -420.197854983     A.U. after   24 cycles

 The electronic state is 2-A.
 Alpha  occ. eigenvalues --  -19.67832 -19.67706 -19.62468 -10.70706 -10.60637
 Alpha  occ. eigenvalues --  -10.59473 -10.58955 -10.53361  -1.24981  -1.16350
 Alpha  occ. eigenvalues --   -1.13685  -0.90642  -0.88093  -0.76476  -0.73808
 Alpha  occ. eigenvalues --   -0.64728  -0.62375  -0.59358  -0.56232  -0.55251
 Alpha  occ. eigenvalues --   -0.53123  -0.50168  -0.47643  -0.47484  -0.44941
 Alpha  occ. eigenvalues --   -0.42829  -0.41808  -0.40091  -0.37565  -0.36423
 Alpha  occ. eigenvalues --   -0.35708
 Alpha virt. eigenvalues --   -0.01370  -0.00745   0.00561   0.00994   0.02180
 Alpha virt. eigenvalues --    0.02431   0.03396   0.04739   0.05676   0.05951
 Alpha virt. eigenvalues --    0.07159   0.07412   0.08615   0.09435   0.10193

  Beta  occ. eigenvalues --  -19.67830 -19.66223 -19.62488 -10.70689 -10.60639
  Beta  occ. eigenvalues --  -10.59487 -10.58778 -10.53359  -1.24976  -1.16384
  Beta  occ. eigenvalues --   -1.07241  -0.89844  -0.88035  -0.76279  -0.73635
  Beta  occ. eigenvalues --   -0.64555  -0.62029  -0.58834  -0.56190  -0.53177
  Beta  occ. eigenvalues --   -0.52008  -0.47887  -0.47581  -0.44740  -0.42010
  Beta  occ. eigenvalues --   -0.40542  -0.39773  -0.39079  -0.37320  -0.35955
  Beta virt. eigenvalues --   -0.10598  -0.00742  -0.00497   0.00612   0.01296
  Beta virt. eigenvalues --    0.02348   0.02552   0.03525   0.04738   0.05802
  Beta virt. eigenvalues --    0.06107   0.07211   0.07496   0.08600   0.09483

 Mulliken charges and spin densities:
               1          2
     1  C   -0.954601   0.259847
     2  H    0.219827  -0.013974
     3  C    0.821050  -0.086113
     4  C    0.095609   0.036201
     5  O   -0.246971  -0.008756
     6  O   -0.023732  -0.000969
     7  C   -0.362110   0.010395
     8  C   -0.441450  -0.003079
     9  H    0.177974  -0.000399
    10  H    0.210229   0.001490
    11  H    0.178201  -0.000395
    12  H    0.177330   0.000340
    13  H    0.153425  -0.000680
    14  O   -0.257377   0.825231
    15  H    0.252597  -0.019141
 Sum of Mulliken charges =  -0.00000   1.00000

 Dipole moment (field-independent basis, Debye):
    X=             -0.0899    Y=             -3.8731    Z=             -1.6674  Tot=              4.2178
 Quadrupole moment (field-independent basis, Debye-Ang):
   XX=            -40.9465   YY=            -52.5292   ZZ=            -43.8687
   XY=              7.8561   XZ=              0.5561   YZ=             -1.7361

  Exact polarizability:  85.891   0.230  71.172   8.612   2.451  66.586
 Approx polarizability:  92.018   3.656  85.476   8.099   9.385  77.131

 ******    1 imaginary frequencies (negative Signs) ******

                      1                      2                      3
                      A                      A                      A
 Frequencies --   -285.8349                62.9758                87.5443
 Red. masses --     11.6761                 7.1467                 5.2920
 Frc consts  --      0.5621                 0.0167                 0.0239
 IR Inten    --     33.2507                 4.5939                 0.9983

                      4                      5                      6
                      A                      A                      A
 Frequencies --    113.2934               138.3634               176.4199
 Red. masses --      2.6920                 6.2382                 2.2941
 Frc consts  --      0.0204                 0.0704                 0.0421
 IR Inten    --      0.9356                 9.8209                13.5076

                      7                      8                      9
                      A                      A                      A
 Frequencies --    209.7869               225.4009               258.5398
 Red. masses --      1.8034                 1.3400                 1.7125
 Frc consts  --      0.0468                 0.0401                 0.0674
 IR Inten    --     29.6215                 1.2516                39.1156

                     10                     11                     12
                      A                      A                      A
 Frequencies --    351.6446               399.8669               547.0213
 Red. masses --      2.9032                 3.3551                 5.7719
 Frc consts  --      0.2115                 0.3161                 1.0176
 IR Inten    --      0.4749                 7.5260                18.4558

                     13                     14                     15
                      A                      A                      A
 Frequencies --    620.4768               669.4767               706.1565
 Red. masses --      3.7503                 1.2220                 1.3344
 Frc consts  --      0.8507                 0.3227                 0.3921
 IR Inten    --     22.3210                58.3703                29.3137

                     16                     17                     18
                      A                      A                      A
 Frequencies --    741.6632               747.8037               762.7218
 Red. masses --      5.3453                 1.4045                 5.0068
 Frc consts  --      1.7323                 0.4628                 1.7161
 IR Inten    --     30.5927                36.5157                18.9948

                     19                     20                     21
                      A                      A                      A
 Frequencies --    817.8540               963.0775              1096.0126
 Red. masses --      1.1550                 2.1884                 4.0195
 Frc consts  --      0.4552                 1.1959                 2.8448
 IR Inten    --      7.6892                16.3988                56.2561

                     22                     23                     24
                      A                      A                      A
 Frequencies --   1140.1534              1178.8807              1282.9879
 Red. masses --      2.4206                 1.7923                 2.5212
 Frc consts  --      1.8540                 1.4676                 2.4452
 IR Inten    --     35.0383                48.0270               348.3360

                     25                     26                     27
                      A                      A                      A
 Frequencies --   1361.3331              1403.3975              1434.9577
 Red. masses --      1.4183                 1.2587                 1.3627
 Frc consts  --      1.5487                 1.4606                 1.6532
 IR Inten    --    152.7823                26.7911                14.6340

                     28                     29                     30
                      A                      A                      A
 Frequencies --   1488.4791              1503.1279              1528.8193
 Red. masses --      1.0378                 1.0478                 1.1007
 Frc consts  --      1.3548                 1.3948                 1.5157
 IR Inten    --      5.5536                 4.4867                 5.1935

                     31                     32                     33
                      A                      A                      A
 Frequencies --   1862.0301              2171.0259              3075.7441
 Red. masses --     12.9379                 6.0070                 1.0354
 Frc consts  --     26.4293                16.6817                 5.7713
 IR Inten    --    528.7005                80.4803                11.8997

                     34                     35                     36
                      A                      A                      A
 Frequencies --   3097.1884              3145.4076              3154.5641
 Red. masses --      1.0606                 1.1051                 1.1011
 Frc consts  --      5.9940                 6.4416                 6.4560
 IR Inten    --     20.3460                 4.4127                12.1566

                     37                     38                     39
                      A                      A                      A
 Frequencies --   3171.6209              3476.6342              3807.7778
 Red. masses --      1.1055                 1.1586                 1.0675
 Frc consts  --      6.5521                 8.2512                 9.1189
 IR Inten    --     15.6266                70.1878                48.2068

 - Thermochemistry -
 -------------------
 Temperature   298.150 Kelvin.  Pressure   1.00000 Atm.
 Atom     1 has atomic number  6 and mass  12.00000

 Molecular mass:   115.03952 amu.
 Principal axes and moments of inertia in atomic units:
                           1         2         3
     Eigenvalues --   695.009861085.046551409.38997
           X            0.99978   0.02079   0.00210
           Y           -0.02078   0.99977  -0.00533
           Z           -0.00221   0.00529   0.99998
 This molecule is an asymmetric top.
 Rotational symmetry number  1.
 Warning -- assumption of classical behavior for rotation
           may cause significant error
 Rotational temperatures (Kelvin)      0.12462     0.07983     0.06145
 Rotational constants (GHZ):           2.59671     1.66328     1.28051
    1 imaginary frequencies ignored.
 Zero-point vibrational energy     292966.8 (Joules/Mol)
                                   70.02075 (Kcal/Mol)
 Warning -- explicit consideration of  12 degrees of freedom as
           vibrations may cause significant error
 Vibrational temperatures:     90.61   125.96   163.00   199.07   253.83
          (Kelvin)            301.84   324.30   371.98   505.94   575.32
                              787.04   892.73   963.23  1016.00  1067.09
                             1075.92  1097.39  1176.71  1385.65  1576.92
                             1640.43  1696.15  1845.93  1958.65  2019.18
                             2064.58  2141.59  2162.67  2199.63  2679.05
                             3123.62  4425.31  4456.16  4525.54  4538.71
                             4563.26  5002.10  5478.54

 Zero-point correction=                           0.111585 (Hartree/Particle)
 Thermal correction to Energy=                    0.121256
 Thermal correction to Enthalpy=                  0.122201
 Thermal correction to Gibbs Free Energy=         0.076042
 Sum of electronic and zero-point Energies=           -420.086270
 Sum of electronic and thermal Energies=              -420.076599
 Sum of electronic and thermal Enthalpies=            -420.075654
 Sum of electronic and thermal Free Energies=         -420.121813

                     E (Thermal)             CV                S
                      KCal/Mol        Cal/Mol-Kelvin    Cal/Mol-Kelvin
 Total                   76.090             32.596             97.150
 Electronic               0.000              0.000              1.377
 Translational            0.889              2.981             40.136
 Rotational               0.889              2.981             28.454
 Vibrational             74.312             26.634             27.183
 Vibration     1          0.597              1.972              4.362
 Vibration     2          0.601              1.958              3.714
 Vibration     3          0.607              1.938              3.212
 Vibration     4          0.614              1.915              2.826
 Vibration     5          0.628              1.871              2.366
 Vibration     6          0.642              1.826              2.046
 Vibration     7          0.650              1.802              1.915
 Vibration     8          0.667              1.748              1.672
 Vibration     9          0.728              1.572              1.159
 Vibration    10          0.766              1.470              0.963
 Vibration    11          0.902              1.146              0.550
 Vibration    12          0.981              0.989              0.416

 Normal termination of Gaussian 16 at Fri Mar 28 07:37:37 2025.
