 Gaussian 16, Revision A.03,
 Gaussian 16:  ES64L-G16RevA.03 25-Dec-2016

 --------------------------
 # ccsd(t)/6-311++g(d,p) sp
 --------------------------

 -------------------
 Title Card Required
 -------------------
 Symbolic Z-matrix:
 Charge =  0 Multiplicity = 2

                         Standard orientation:
 ---------------------------------------------------------------------
 Center     Atomic      Atomic             Coordinates (Angstroms)
 Number     Number       Type             X           Y           Z
 ---------------------------------------------------------------------
      1          6           0       -2.101910   -1.063524   -0.848101
      2          1           0       -2.768956   -1.778419   -1.272482
      3          6           0       -1.298056   -0.322848   -0.313699
      4          6           0       -0.611048    0.936724    0.061258
      5          8           0       -1.222439    1.824182    0.575492
      6          8           0        0.682032    1.032803   -0.213139
      7          6           0        1.454929   -0.042554   -0.780391
      8          6           0        2.543094   -0.431245    0.196172
      9          1           0        0.812133   -0.891117   -1.013490
     10          1           0        1.869294    0.354422   -1.708381
     11          1           0        3.156914    0.435019    0.446487
     12          1           0        2.099741   -0.833383    1.106941
     13          1           0        3.182317   -1.194927   -0.251646
     14          8           0       -0.355330   -1.473879    1.034151
     15          1           0       -1.107604   -1.615754    1.629105
 ---------------------------------------------------------------------

 SCF Done:  E(UHF) =  -417.969373695     A.U. after   36 cycles
 E2 =    -0.1259285294D+01 EUMP2 =    -0.41922865898871D+03
 CCSD(T)= -0.41934643497D+03

 The electronic state is 2-A.
 Alpha  occ. eigenvalues --  -20.63520 -20.60611 -20.54859 -11.41353 -11.29838
 Alpha  occ. eigenvalues --  -11.28074 -11.27340 -11.22324  -1.47308  -1.39406
 Alpha  occ. eigenvalues --   -1.37477  -1.08292  -1.04626  -0.90742  -0.87457
 Alpha  occ. eigenvalues --   -0.76185  -0.73317  -0.71042  -0.67425  -0.67000
 Alpha  occ. eigenvalues --   -0.66053  -0.61256  -0.57018  -0.56350  -0.55493
 Alpha  occ. eigenvalues --   -0.52851  -0.50562  -0.47377  -0.45020  -0.43641
 Alpha  occ. eigenvalues --   -0.42832
 Alpha virt. eigenvalues --    0.03215   0.04602   0.05353   0.06591   0.06898
 Alpha virt. eigenvalues --    0.08624   0.09339   0.10408   0.10769   0.12498
 Alpha virt. eigenvalues --    0.12788   0.12983   0.14222   0.15682   0.16258

  Beta  occ. eigenvalues --  -20.60551 -20.59747 -20.55371 -11.40976 -11.29862
  Beta  occ. eigenvalues --  -11.29192 -11.25896 -11.22320  -1.47425  -1.38233
  Beta  occ. eigenvalues --   -1.26052  -1.07464  -1.04549  -0.89860  -0.86696
  Beta  occ. eigenvalues --   -0.75716  -0.72517  -0.70065  -0.67030  -0.64458
  Beta  occ. eigenvalues --   -0.62149  -0.57000  -0.56439  -0.53845  -0.51504
  Beta  occ. eigenvalues --   -0.50514  -0.48829  -0.46364  -0.44712  -0.42623
  Beta virt. eigenvalues --    0.03245   0.03898   0.04763   0.06481   0.06806
  Beta virt. eigenvalues --    0.07646   0.08346   0.09609   0.11175   0.11563
  Beta virt. eigenvalues --    0.12341   0.12996   0.13641   0.14832   0.15965

 Mulliken charges and spin densities:
               1          2
     1  C   -0.840600   1.073390
     2  H    0.246839  -0.079453
     3  C    0.715706  -0.914053
     4  C    0.168410   0.182900
     5  O   -0.335792  -0.105629
     6  O   -0.110402  -0.003021
     7  C   -0.329004   0.005724
     8  C   -0.405101  -0.005907
     9  H    0.196761   0.001790
    10  H    0.172966   0.001347
    11  H    0.160985  -0.000252
    12  H    0.155455   0.001851
    13  H    0.125836  -0.000367
    14  O   -0.180884   0.875083
    15  H    0.258825  -0.033400
 Sum of Mulliken charges =  -0.00000   1.00000

 Dipole moment (field-independent basis, Debye):
    X=              0.0526    Y=             -4.5404    Z=             -1.4372  Tot=              4.7627
 Quadrupole moment (field-independent basis, Debye-Ang):
   XX=            -41.7567   YY=            -52.9619   ZZ=            -43.4015
   XY=              8.1599   XZ=              0.3126   YZ=             -2.4265

 -419.2916341\CCSD(T)=-419.346435\S2=1.014485\S2-1=0.941725\S2A=0.79326
 Normal termination of Gaussian 16 at Wed May 14 02:02:02 2025.
