 Gaussian 16, Revision A.03,
 Gaussian 16:  ES64L-G16RevA.03 25-Dec-2016

 --------------------------
 # freq 6-311++g(d,p) m062x
 --------------------------

 -------------------
 Title Card Required
 -------------------
 Symbolic Z-matrix:
 Charge =  0 Multiplicity = 2

                         Standard orientation:
 ---------------------------------------------------------------------
 Center     Atomic      Atomic             Coordinates (Angstroms)
 Number     Number       Type             X           Y           Z
 ---------------------------------------------------------------------
      1          6           0       -2.100034   -1.075034   -0.857108
      2          1           0       -2.750681   -1.816485   -1.259596
      3          6           0       -1.342714   -0.259098   -0.396460
      4          6           0       -0.626691    0.940160    0.071336
      5          8           0       -1.229100    1.806358    0.632910
      6          8           0        0.670267    1.041308   -0.192058
      7          6           0        1.444820   -0.013799   -0.791411
      8          6           0        2.548247   -0.410590    0.165553
      9          1           0        0.805086   -0.862668   -1.033306
     10          1           0        1.846272    0.402984   -1.716538
     11          1           0        3.156019    0.456961    0.425839
     12          1           0        2.121332   -0.833088    1.074933
     13          1           0        3.190226   -1.159352   -0.302986
     14          8           0       -0.295191   -1.549052    1.063367
     15          1           0       -1.077836   -1.667095    1.626448
 ---------------------------------------------------------------------

 SCF Done:  E(UM062X) =  -420.199816167     A.U. after   25 cycles

 The electronic state is 2-A.
 Alpha  occ. eigenvalues --  -19.68437 -19.67781 -19.62410 -10.70657 -10.60634
 Alpha  occ. eigenvalues --  -10.58877 -10.58529 -10.53392  -1.24905  -1.16279
 Alpha  occ. eigenvalues --   -1.14269  -0.90319  -0.88072  -0.76388  -0.73747
 Alpha  occ. eigenvalues --   -0.64609  -0.62191  -0.59374  -0.56185  -0.55735
 Alpha  occ. eigenvalues --   -0.52948  -0.50432  -0.47649  -0.47586  -0.45015
 Alpha  occ. eigenvalues --   -0.43307  -0.41841  -0.39963  -0.37636  -0.36487
 Alpha  occ. eigenvalues --   -0.36078
 Alpha virt. eigenvalues --   -0.01521  -0.00747   0.00567   0.00975   0.02217
 Alpha virt. eigenvalues --    0.02441   0.03465   0.04748   0.05703   0.05976
 Alpha virt. eigenvalues --    0.07214   0.07442   0.08664   0.09465   0.10265

  Beta  occ. eigenvalues --  -19.67780 -19.66897 -19.62426 -10.70646 -10.60636
  Beta  occ. eigenvalues --  -10.58861 -10.58414 -10.53390  -1.24904  -1.16306
  Beta  occ. eigenvalues --   -1.07161  -0.89737  -0.88021  -0.76250  -0.73621
  Beta  occ. eigenvalues --   -0.64497  -0.61921  -0.58804  -0.56144  -0.53499
  Beta  occ. eigenvalues --   -0.51885  -0.47898  -0.47580  -0.44740  -0.42015
  Beta  occ. eigenvalues --   -0.40421  -0.39848  -0.39145  -0.37263  -0.35949
  Beta virt. eigenvalues --   -0.10306  -0.00981  -0.00594   0.00614   0.01305
  Beta virt. eigenvalues --    0.02350   0.02547   0.03558   0.04781   0.05830
  Beta virt. eigenvalues --    0.06133   0.07287   0.07535   0.08683   0.09506

 Mulliken charges and spin densities:
               1          2
     1  C   -1.314068   0.177260
     2  H    0.209060  -0.009703
     3  C    1.170148  -0.065283
     4  C    0.117693   0.039208
     5  O   -0.248096  -0.007356
     6  O   -0.024857  -0.001208
     7  C   -0.355051   0.009139
     8  C   -0.446534  -0.002541
     9  H    0.170573  -0.001551
    10  H    0.210313   0.001471
    11  H    0.178461  -0.000296
    12  H    0.175153  -0.000009
    13  H    0.154538  -0.000789
    14  O   -0.253372   0.881420
    15  H    0.256038  -0.019762
 Sum of Mulliken charges =  -0.00000   1.00000

 Dipole moment (field-independent basis, Debye):
    X=              0.0022    Y=             -3.9377    Z=             -1.5628  Tot=              4.2365
 Quadrupole moment (field-independent basis, Debye-Ang):
   XX=            -41.3184   YY=            -52.2279   ZZ=            -43.9125
   XY=              7.9140   XZ=              0.3762   YZ=             -2.1176

  Exact polarizability:  84.336   1.509  70.864   6.341   4.077  63.933
 Approx polarizability:  90.289   5.072  86.068   5.792  10.742  74.813

                      1                      2                      3
                      A                      A                      A
 Frequencies --     48.8924                85.8911               112.0818
 Red. masses --      6.9084                 5.5637                 3.6859
 Frc consts  --      0.0097                 0.0242                 0.0273
 IR Inten    --      2.3139                 0.8542                 3.2289

                      4                      5                      6
                      A                      A                      A
 Frequencies --    124.8089               150.1169               185.0368
 Red. masses --      3.9960                 5.5435                 2.7384
 Frc consts  --      0.0367                 0.0736                 0.0552
 IR Inten    --      3.3363                11.2500                14.8995

                      7                      8                      9
                      A                      A                      A
 Frequencies --    210.0772               224.6426               264.3171
 Red. masses --      1.8332                 1.3080                 1.7668
 Frc consts  --      0.0477                 0.0389                 0.0727
 IR Inten    --     31.8231                 1.3803                39.4139

                     10                     11                     12
                      A                      A                      A
 Frequencies --    349.6043               399.3125               546.1631
 Red. masses --      2.9124                 3.3491                 5.1460
 Frc consts  --      0.2097                 0.3146                 0.9044
 IR Inten    --      0.6095                 7.0824                16.5331

                     13                     14                     15
                      A                      A                      A
 Frequencies --    584.3072               632.1149               718.8648
 Red. masses --      1.1491                 4.8100                 1.3438
 Frc consts  --      0.2311                 1.1324                 0.4091
 IR Inten    --     95.3083                 3.0041                35.1307

                     16                     17                     18
                      A                      A                      A
 Frequencies --    747.0072               754.3433               764.7070
 Red. masses --      6.5660                 1.4521                 3.9874
 Frc consts  --      2.1587                 0.4869                 1.3738
 IR Inten    --     18.4657                25.4646                29.3437

                     19                     20                     21
                      A                      A                      A
 Frequencies --    818.9528               963.8662              1096.6516
 Red. masses --      1.1523                 2.1842                 3.9523
 Frc consts  --      0.4553                 1.1956                 2.8005
 IR Inten    --      7.3765                15.2528                52.4178

                     22                     23                     24
                      A                      A                      A
 Frequencies --   1140.7968              1179.3673              1284.9756
 Red. masses --      2.4712                 1.7816                 2.4811
 Frc consts  --      1.8949                 1.4600                 2.4137
 IR Inten    --     37.2256                48.4347               358.7364

                     25                     26                     27
                      A                      A                      A
 Frequencies --   1360.9153              1403.4663              1435.0197
 Red. masses --      1.4357                 1.2590                 1.3629
 Frc consts  --      1.5667                 1.4611                 1.6536
 IR Inten    --    162.5057                27.6478                12.7119

                     28                     29                     30
                      A                      A                      A
 Frequencies --   1488.4586              1503.4982              1530.4072
 Red. masses --      1.0378                 1.0474                 1.1001
 Frc consts  --      1.3547                 1.3950                 1.5180
 IR Inten    --      5.3859                 3.8394                 4.5696

                     31                     32                     33
                      A                      A                      A
 Frequencies --   1859.0962              2207.4546              3076.1590
 Red. masses --     12.9482                 5.8789                 1.0355
 Frc consts  --     26.3672                16.8783                 5.7734
 IR Inten    --    517.4413                61.8603                11.9243

                     34                     35                     36
                      A                      A                      A
 Frequencies --   3096.3022              3145.0396              3154.6171
 Red. masses --      1.0605                 1.1051                 1.1011
 Frc consts  --      5.9900                 6.4406                 6.4562
 IR Inten    --     20.3319                 4.3125                12.4747

                     37                     38                     39
                      A                      A                      A
 Frequencies --   3171.8388              3480.7952              3801.1194
 Red. masses --      1.1053                 1.1636                 1.0673
 Frc consts  --      6.5515                 8.3064                 9.0861
 IR Inten    --     15.9936                69.8331                42.7583

 - Thermochemistry -
 -------------------
 Temperature   298.150 Kelvin.  Pressure   1.00000 Atm.
 Atom     1 has atomic number  6 and mass  12.00000

 Molecular mass:   115.03952 amu.
 Principal axes and moments of inertia in atomic units:
                           1         2         3
     Eigenvalues --   705.795311091.777511415.99452
           X            0.99974   0.02269   0.00137
           Y           -0.02269   0.99973  -0.00566
           Z           -0.00150   0.00563   0.99998
 This molecule is an asymmetric top.
 Rotational symmetry number  1.
 Warning -- assumption of classical behavior for rotation
           may cause significant error
 Rotational temperatures (Kelvin)      0.12272     0.07933     0.06117
 Rotational constants (GHZ):           2.55703     1.65303     1.27454
 Zero-point vibrational energy     293689.7 (Joules/Mol)
                                   70.19353 (Kcal/Mol)
 Warning -- explicit consideration of  13 degrees of freedom as
           vibrations may cause significant error
 Vibrational temperatures:     70.35   123.58   161.26   179.57   215.98
          (Kelvin)            266.23   302.25   323.21   380.29   503.00
                              574.52   785.81   840.69   909.47  1034.29
                             1074.78  1085.33  1100.24  1178.29  1386.79
                             1577.84  1641.35  1696.85  1848.79  1958.05
                             2019.27  2064.67  2141.56  2163.20  2201.91
                             2674.82  3176.03  4425.91  4454.89  4525.01
                             4538.79  4563.57  5008.09  5468.96

 Zero-point correction=                           0.111861 (Hartree/Particle)
 Thermal correction to Energy=                    0.122243
 Thermal correction to Enthalpy=                  0.123187
 Thermal correction to Gibbs Free Energy=         0.075400
 Sum of electronic and zero-point Energies=           -420.087956
 Sum of electronic and thermal Energies=              -420.077573
 Sum of electronic and thermal Enthalpies=            -420.076629
 Sum of electronic and thermal Free Energies=         -420.124416

                     E (Thermal)             CV                S
                      KCal/Mol        Cal/Mol-Kelvin    Cal/Mol-Kelvin
 Total                   76.709             34.604            100.577
 Electronic               0.000              0.000              1.377
 Translational            0.889              2.981             40.136
 Rotational               0.889              2.981             28.480
 Vibrational             74.931             28.643             30.584
 Vibration     1          0.595              1.978              4.862
 Vibration     2          0.601              1.959              3.752
 Vibration     3          0.607              1.939              3.233
 Vibration     4          0.610              1.928              3.025
 Vibration     5          0.618              1.903              2.671
 Vibration     6          0.631              1.860              2.277
 Vibration     7          0.642              1.825              2.043
 Vibration     8          0.649              1.804              1.921
 Vibration     9          0.671              1.738              1.633
 Vibration    10          0.727              1.576              1.168
 Vibration    11          0.765              1.472              0.965
 Vibration    12          0.901              1.148              0.552
 Vibration    13          0.941              1.065              0.477

 Normal termination of Gaussian 16 at Fri Mar 28 08:38:04 2025.
