 Gaussian 16, Revision A.03,
 Gaussian 16:  ES64L-G16RevA.03 25-Dec-2016

 --------------------------
 # freq 6-311++g(d,p) m062x
 --------------------------

 -------------------
 Title Card Required
 -------------------
 Symbolic Z-matrix:
 Charge =  0 Multiplicity = 2

                         Standard orientation:
 ---------------------------------------------------------------------
 Center     Atomic      Atomic             Coordinates (Angstroms)
 Number     Number       Type             X           Y           Z
 ---------------------------------------------------------------------
      1          6           0       -2.100511   -1.071107   -0.853184
      2          1           0       -2.758131   -1.801226   -1.265220
      3          6           0       -1.328692   -0.278920   -0.369822
      4          6           0       -0.620531    0.938068    0.069180
      5          8           0       -1.226739    1.812514    0.612849
      6          8           0        0.674864    1.038518   -0.199392
      7          6           0        1.448775   -0.023621   -0.787656
      8          6           0        2.546432   -0.418512    0.176383
      9          1           0        0.807671   -0.871921   -1.027429
     10          1           0        1.855356    0.386598   -1.713416
     11          1           0        3.156391    0.448307    0.433998
     12          1           0        2.113538   -0.834268    1.086093
     13          1           0        3.187520   -1.172476   -0.284991
     14          8           0       -0.316447   -1.523340    1.053281
     15          1           0       -1.088601   -1.651992    1.627650
 ---------------------------------------------------------------------

 SCF Done:  E(UM062X) =  -420.198487192     A.U. after   24 cycles

 The electronic state is 2-A.
 Alpha  occ. eigenvalues --  -19.67984 -19.67811 -19.62441 -10.70682 -10.60635
 Alpha  occ. eigenvalues --  -10.59224 -10.58784 -10.53375  -1.24950  -1.16321
 Alpha  occ. eigenvalues --   -1.13915  -0.90514  -0.88085  -0.76443  -0.73785
 Alpha  occ. eigenvalues --   -0.64678  -0.62304  -0.59366  -0.56212  -0.55431
 Alpha  occ. eigenvalues --   -0.53066  -0.50268  -0.47639  -0.47529  -0.44968
 Alpha  occ. eigenvalues --   -0.43013  -0.41825  -0.40037  -0.37581  -0.36401
 Alpha  occ. eigenvalues --   -0.35894
 Alpha virt. eigenvalues --   -0.01417  -0.00744   0.00564   0.00985   0.02197
 Alpha virt. eigenvalues --    0.02434   0.03424   0.04745   0.05689   0.05960
 Alpha virt. eigenvalues --    0.07179   0.07422   0.08630   0.09445   0.10223

  Beta  occ. eigenvalues --  -19.67809 -19.66477 -19.62459 -10.70668 -10.60637
  Beta  occ. eigenvalues --  -10.59227 -10.58630 -10.53373  -1.24947  -1.16352
  Beta  occ. eigenvalues --   -1.07207  -0.89800  -0.88029  -0.76269  -0.73630
  Beta  occ. eigenvalues --   -0.64530  -0.61985  -0.58823  -0.56171  -0.53289
  Beta  occ. eigenvalues --   -0.51969  -0.47890  -0.47583  -0.44743  -0.42011
  Beta  occ. eigenvalues --   -0.40477  -0.39780  -0.39133  -0.37297  -0.35950
  Beta virt. eigenvalues --   -0.10470  -0.00804  -0.00546   0.00613   0.01298
  Beta virt. eigenvalues --    0.02351   0.02549   0.03539   0.04757   0.05813
  Beta virt. eigenvalues --    0.06117   0.07239   0.07508   0.08626   0.09490

 Mulliken charges and spin densities:
               1          2
     1  C   -1.088045   0.223969
     2  H    0.216092  -0.012368
     3  C    0.944222  -0.075410
     4  C    0.109366   0.038060
     5  O   -0.247343  -0.008268
     6  O   -0.024116  -0.001061
     7  C   -0.360116   0.010203
     8  C   -0.442990  -0.002918
     9  H    0.175411  -0.000936
    10  H    0.210251   0.001498
    11  H    0.178314  -0.000362
    12  H    0.176393   0.000219
    13  H    0.153875  -0.000725
    14  O   -0.255100   0.847570
    15  H    0.253784  -0.019473
 Sum of Mulliken charges =  -0.00000   1.00000

 Dipole moment (field-independent basis, Debye):
    X=             -0.0524    Y=             -3.9014    Z=             -1.6220  Tot=              4.2254
 Quadrupole moment (field-independent basis, Debye-Ang):
   XX=            -41.0810   YY=            -52.4226   ZZ=            -43.8730
   XY=              7.8738   XZ=              0.4882   YZ=             -1.8774

  Exact polarizability:  85.334   0.691  71.057   7.802   3.033  65.627
 Approx polarizability:  91.412   4.186  85.672   7.281   9.895  76.281

 ******    1 imaginary frequencies (negative Signs) ******

                      1                      2                      3
                      A                      A                      A
 Frequencies --   -178.0042                59.7377                87.3303
 Red. masses --     11.0015                 7.4435                 5.3464
 Frc consts  --      0.2054                 0.0157                 0.0240
 IR Inten    --     19.7311                 5.1361                 1.1136

                      4                      5                      6
                      A                      A                      A
 Frequencies --    115.4778               133.9829               176.9567
 Red. masses --      2.7766                 5.8590                 2.2687
 Frc consts  --      0.0218                 0.0620                 0.0419
 IR Inten    --      1.2870                 9.1981                14.2306

                      7                      8                      9
                      A                      A                      A
 Frequencies --    209.8584               225.0179               258.9628
 Red. masses --      1.8623                 1.3322                 1.6819
 Frc consts  --      0.0483                 0.0397                 0.0665
 IR Inten    --     28.2892                 1.4295                40.9332

                     10                     11                     12
                      A                      A                      A
 Frequencies --    351.1374               399.6389               547.0941
 Red. masses --      2.9036                 3.3514                 5.6994
 Frc consts  --      0.2109                 0.3154                 1.0051
 IR Inten    --      0.5162                 7.4212                17.6816

                     13                     14                     15
                      A                      A                      A
 Frequencies --    616.7508               646.1644               711.7241
 Red. masses --      2.2096                 1.5649                 1.3391
 Frc consts  --      0.4952                 0.3850                 0.3997
 IR Inten    --     46.5280                41.3802                31.9243

                     16                     17                     18
                      A                      A                      A
 Frequencies --    743.2120               749.9402               763.5693
 Red. masses --      5.6833                 1.4228                 4.6574
 Frc consts  --      1.8496                 0.4714                 1.5999
 IR Inten    --     23.4482                34.9159                21.5191

                     19                     20                     21
                      A                      A                      A
 Frequencies --    818.4788               963.4118              1096.3582
 Red. masses --      1.1535                 2.1873                 3.9928
 Frc consts  --      0.4553                 1.1961                 2.8277
 IR Inten    --      7.5387                15.8948                54.7943

                     22                     23                     24
                      A                      A                      A
 Frequencies --   1140.3769              1179.1383              1283.7885
 Red. masses --      2.4406                 1.7880                 2.5044
 Frc consts  --      1.8700                 1.4647                 2.4319
 IR Inten    --     35.9472                48.2236               351.8565

                     25                     26                     27
                      A                      A                      A
 Frequencies --   1361.2441              1403.4741              1435.0126
 Red. masses --      1.4249                 1.2590                 1.3629
 Frc consts  --      1.5557                 1.4612                 1.6535
 IR Inten    --    156.4405                27.2211                13.9117

                     28                     29                     30
                      A                      A                      A
 Frequencies --   1488.4752              1503.3253              1529.7792
 Red. masses --      1.0378                 1.0476                 1.1004
 Frc consts  --      1.3548                 1.3949                 1.5173
 IR Inten    --      5.4854                 4.2193                 4.9558

                     31                     32                     33
                      A                      A                      A
 Frequencies --   1861.0228              2186.3470              3075.8948
 Red. masses --     12.9423                 5.9527                 1.0355
 Frc consts  --     26.4097                16.7650                 5.7721
 IR Inten    --    524.6504                72.8168                11.8832

                     34                     35                     36
                      A                      A                      A
 Frequencies --   3096.9730              3145.3487              3154.6098
 Red. masses --      1.0605                 1.1051                 1.1011
 Frc consts  --      5.9931                 6.4414                 6.4560
 IR Inten    --     20.3283                 4.3678                12.2344

                     37                     38                     39
                      A                      A                      A
 Frequencies --   3171.6808              3478.5002              3805.2624
 Red. masses --      1.1054                 1.1607                 1.0674
 Frc consts  --      6.5519                 8.2747                 9.1065
 IR Inten    --     15.8556                70.0812                46.1969

 - Thermochemistry -
 -------------------
 Temperature   298.150 Kelvin.  Pressure   1.00000 Atm.
 Atom     1 has atomic number  6 and mass  12.00000

 Molecular mass:   115.03952 amu.
 Principal axes and moments of inertia in atomic units:
                           1         2         3
     Eigenvalues --   698.489941087.276441411.57634
           X            0.99977   0.02139   0.00187
           Y           -0.02138   0.99976  -0.00545
           Z           -0.00198   0.00541   0.99998
 This molecule is an asymmetric top.
 Rotational symmetry number  1.
 Warning -- assumption of classical behavior for rotation
           may cause significant error
 Rotational temperatures (Kelvin)      0.12400     0.07966     0.06136
 Rotational constants (GHZ):           2.58378     1.65987     1.27853
    1 imaginary frequencies ignored.
 Zero-point vibrational energy     292935.9 (Joules/Mol)
                                   70.01336 (Kcal/Mol)
 Warning -- explicit consideration of  12 degrees of freedom as
           vibrations may cause significant error
 Vibrational temperatures:     85.95   125.65   166.15   192.77   254.60
          (Kelvin)            301.94   323.75   372.59   505.21   574.99
                              787.15   887.37   929.69  1024.01  1069.32
                             1079.00  1098.61  1177.61  1386.13  1577.41
                             1640.75  1696.52  1847.09  1958.53  2019.29
                             2064.66  2141.58  2162.95  2201.01  2677.60
                             3145.67  4425.53  4455.85  4525.46  4538.78
                             4563.34  5004.79  5474.92

 Zero-point correction=                           0.111573 (Hartree/Particle)
 Thermal correction to Energy=                    0.121264
 Thermal correction to Enthalpy=                  0.122208
 Thermal correction to Gibbs Free Energy=         0.075970
 Sum of electronic and zero-point Energies=           -420.086914
 Sum of electronic and thermal Energies=              -420.077223
 Sum of electronic and thermal Enthalpies=            -420.076279
 Sum of electronic and thermal Free Energies=         -420.122517

                     E (Thermal)             CV                S
                      KCal/Mol        Cal/Mol-Kelvin    Cal/Mol-Kelvin
 Total                   76.094             32.634             97.315
 Electronic               0.000              0.000              1.377
 Translational            0.889              2.981             40.136
 Rotational               0.889              2.981             28.463
 Vibrational             74.317             26.672             27.339
 Vibration     1          0.597              1.973              4.466
 Vibration     2          0.601              1.958              3.719
 Vibration     3          0.608              1.937              3.175
 Vibration     4          0.613              1.919              2.888
 Vibration     5          0.628              1.871              2.360
 Vibration     6          0.642              1.826              2.045
 Vibration     7          0.650              1.803              1.918
 Vibration     8          0.668              1.748              1.669
 Vibration     9          0.728              1.573              1.161
 Vibration    10          0.766              1.471              0.964
 Vibration    11          0.902              1.146              0.550
 Vibration    12          0.976              0.996              0.422

 Normal termination of Gaussian 16 at Fri Mar 28 08:11:53 2025.
