 Gaussian 16, Revision A.03,
 Gaussian 16:  ES64L-G16RevA.03 25-Dec-2016

 --------------------------
 # ccsd(t)/6-311++g(d,p) sp
 --------------------------

 -------------------
 Title Card Required
 -------------------
 Symbolic Z-matrix:
 Charge =  0 Multiplicity = 2

                         Standard orientation:
 ---------------------------------------------------------------------
 Center     Atomic      Atomic             Coordinates (Angstroms)
 Number     Number       Type             X           Y           Z
 ---------------------------------------------------------------------
      1          6           0       -2.097364   -1.081069   -0.865513
      2          1           0       -2.735033   -1.841758   -1.252330
      3          6           0       -1.361396   -0.232925   -0.434223
      4          6           0       -0.638151    0.944477    0.073307
      5          8           0       -1.234371    1.795680    0.664521
      6          8           0        0.661268    1.045705   -0.180315
      7          6           0        1.437152    0.001885   -0.796963
      8          6           0        2.551233   -0.395088    0.147905
      9          1           0        0.800594   -0.849270   -1.039753
     10          1           0        1.828492    0.428188   -1.722184
     11          1           0        3.154964    0.474572    0.410528
     12          1           0        2.135021   -0.827698    1.057397
     13          1           0        3.194673   -1.135384   -0.331946
     14          8           0       -0.260643   -1.589649    1.078863
     15          1           0       -1.057591   -1.686221    1.626658
 ---------------------------------------------------------------------

 SCF Done:  E(UHF) =  -417.980901765     A.U. after   40 cycles
 E2 =    -0.1263755122D+01 EUMP2 =    -0.41924465688708D+03
 CCSD(T)= -0.41934976734D+03

 The electronic state is 2-A.
 Alpha  occ. eigenvalues --  -20.64514 -20.60671 -20.55024 -11.41514 -11.29882
 Alpha  occ. eigenvalues --  -11.27634 -11.26743 -11.22370  -1.47312  -1.40147
 Alpha  occ. eigenvalues --   -1.37592  -1.07824  -1.04625  -0.90668  -0.87449
 Alpha  occ. eigenvalues --   -0.76048  -0.73330  -0.70957  -0.68314  -0.67529
 Alpha  occ. eigenvalues --   -0.66381  -0.61251  -0.57277  -0.56935  -0.55876
 Alpha  occ. eigenvalues --   -0.53002  -0.50625  -0.47644  -0.45475  -0.43165
 Alpha  occ. eigenvalues --   -0.42673
 Alpha virt. eigenvalues --    0.03175   0.04628   0.05315   0.06590   0.06892
 Alpha virt. eigenvalues --    0.08490   0.09092   0.10070   0.10657   0.12492
 Alpha virt. eigenvalues --    0.12825   0.13166   0.14497   0.15790   0.16008

  Beta  occ. eigenvalues --  -20.60634 -20.60425 -20.55376 -11.41287 -11.29895
  Beta  occ. eigenvalues --  -11.27699 -11.26482 -11.22367  -1.47403  -1.38110
  Beta  occ. eigenvalues --   -1.24805  -1.07513  -1.04576  -0.90222  -0.87153
  Beta  occ. eigenvalues --   -0.75864  -0.72912  -0.69725  -0.67174  -0.64732
  Beta  occ. eigenvalues --   -0.61529  -0.57033  -0.56483  -0.53771  -0.51749
  Beta  occ. eigenvalues --   -0.50628  -0.48494  -0.46152  -0.43598  -0.42601
  Beta virt. eigenvalues --    0.03218   0.04152   0.04813   0.06589   0.06838
  Beta virt. eigenvalues --    0.08085   0.08474   0.09272   0.10570   0.11483
  Beta virt. eigenvalues --    0.12374   0.13121   0.13343   0.14797   0.15946

 Mulliken charges and spin densities:
               1          2
     1  C   -1.987234   0.479868
     2  H    0.222650  -0.038818
     3  C    1.867555  -0.468482
     4  C    0.232688   0.156550
     5  O   -0.341448  -0.073721
     6  O   -0.112225  -0.001919
     7  C   -0.326580   0.000666
     8  C   -0.411606  -0.001020
     9  H    0.180858  -0.000432
    10  H    0.171117   0.001048
    11  H    0.160691   0.000052
    12  H    0.150092   0.001133
    13  H    0.129874  -0.000416
    14  O   -0.195580   0.982739
    15  H    0.259147  -0.037250
 Sum of Mulliken charges =  -0.00000   1.00000

 Dipole moment (field-independent basis, Debye):
    X=              0.1850    Y=             -4.5610    Z=             -1.3981  Tot=              4.7740
 Quadrupole moment (field-independent basis, Debye-Ang):
   XX=            -42.3896   YY=            -52.2179   ZZ=            -43.7414
   XY=              8.5057   XZ=              0.1328   YZ=             -3.0943

 6\PMP3-0=-419.2764061\MP4SDQ=-419.2963341\CCSD=-419.2966298\CCSD(T)=-4
 Normal termination of Gaussian 16 at Wed May 14 06:24:52 2025.
