 Gaussian 16, Revision A.03,
 Gaussian 16:  ES64L-G16RevA.03 25-Dec-2016

 --------------------------
 # freq 6-311++g(d,p) m062x
 --------------------------

 -------------------
 Title Card Required
 -------------------
 Symbolic Z-matrix:
 Charge =  0 Multiplicity = 2

                         Standard orientation:
 ---------------------------------------------------------------------
 Center     Atomic      Atomic             Coordinates (Angstroms)
 Number     Number       Type             X           Y           Z
 ---------------------------------------------------------------------
      1          6           0       -2.107327   -1.049951   -0.847572
      2          1           0       -2.776475   -1.766079   -1.268472
      3          6           0       -1.248824   -0.392162   -0.224352
      4          6           0       -0.602571    0.936907    0.044364
      5          8           0       -1.215846    1.840065    0.526891
      6          8           0        0.690751    1.024723   -0.230746
      7          6           0        1.461797   -0.067478   -0.770359
      8          6           0        2.538624   -0.446345    0.221844
      9          1           0        0.817937   -0.917114   -0.994732
     10          1           0        1.885652    0.310585   -1.701881
     11          1           0        3.157523    0.419613    0.460588
     12          1           0        2.083046   -0.829239    1.134677
     13          1           0        3.175047   -1.222790   -0.207770
     14          8           0       -0.407543   -1.405098    1.004781
     15          1           0       -1.131829   -1.558330    1.626634
 ---------------------------------------------------------------------

 SCF Done:  E(UM062X) =  -420.204769407     A.U. after   20 cycles

 The electronic state is 2-A.
 Alpha  occ. eigenvalues --  -19.67973 -19.65323 -19.62765 -10.70706 -10.63462
 Alpha  occ. eigenvalues --  -10.60659 -10.60624 -10.53174  -1.25180  -1.16542
 Alpha  occ. eigenvalues --   -1.11959  -0.91640  -0.88103  -0.76722  -0.73959
 Alpha  occ. eigenvalues --   -0.65263  -0.62700  -0.59515  -0.56385  -0.54575
 Alpha  occ. eigenvalues --   -0.53328  -0.49368  -0.47652  -0.46965  -0.44809
 Alpha  occ. eigenvalues --   -0.42121  -0.40840  -0.40438  -0.37568  -0.36750
 Alpha  occ. eigenvalues --   -0.32589
 Alpha virt. eigenvalues --   -0.00815  -0.00777   0.00521   0.00888   0.02191
 Alpha virt. eigenvalues --    0.02480   0.03146   0.04624   0.05453   0.05913
 Alpha virt. eigenvalues --    0.07150   0.07385   0.08616   0.09358   0.09862

  Beta  occ. eigenvalues --  -19.67964 -19.64497 -19.62784 -10.70662 -10.63605
  Beta  occ. eigenvalues --  -10.60663 -10.60105 -10.53173  -1.25149  -1.16563
  Beta  occ. eigenvalues --   -1.09040  -0.89718  -0.87990  -0.76091  -0.73407
  Beta  occ. eigenvalues --   -0.64741  -0.62123  -0.59048  -0.56261  -0.53071
  Beta  occ. eigenvalues --   -0.52954  -0.47868  -0.47407  -0.44737  -0.43290
  Beta  occ. eigenvalues --   -0.41941  -0.39711  -0.39093  -0.37572  -0.35588
  Beta virt. eigenvalues --   -0.10344  -0.00715  -0.00135   0.00650   0.01368
  Beta virt. eigenvalues --    0.02340   0.02703   0.03452   0.04528   0.05710
  Beta virt. eigenvalues --    0.05983   0.07119   0.07345   0.08487   0.09420

 Mulliken charges and spin densities:
               1          2
     1  C   -0.072485   0.827415
     2  H    0.240947  -0.030964
     3  C    0.030480  -0.252132
     4  C   -0.003093   0.045513
     5  O   -0.246575  -0.006826
     6  O   -0.024299   0.001285
     7  C   -0.350727   0.007978
     8  C   -0.447955  -0.005034
     9  H    0.191659   0.005129
    10  H    0.210655   0.000559
    11  H    0.177238  -0.000425
    12  H    0.188467   0.000574
    13  H    0.148679  -0.000032
    14  O   -0.300801   0.410521
    15  H    0.257812  -0.003562
 Sum of Mulliken charges =  -0.00000   1.00000

 Dipole moment (field-independent basis, Debye):
    X=             -0.4257    Y=             -3.6386    Z=             -2.0330  Tot=              4.1897
 Quadrupole moment (field-independent basis, Debye-Ang):
   XX=            -40.2826   YY=            -53.4051   ZZ=            -44.1688
   XY=              7.6418   XZ=              0.8113   YZ=             -0.6701

  Exact polarizability:  84.689  -0.304  69.242   7.890   2.270  64.991
 Approx polarizability:  92.385  -0.974  82.496  10.281   5.187  79.959

 ******    1 imaginary frequencies (negative Signs) ******

                      1                      2                      3
                      A                      A                      A
 Frequencies --   -622.4256                86.6969               105.7322
 Red. masses --     11.4061                 5.5704                 2.6239
 Frc consts  --      2.6035                 0.0247                 0.0173
 IR Inten    --     10.0979                 0.5048                 0.6593

                      4                      5                      6
                      A                      A                      A
 Frequencies --    123.4262               166.9671               211.5789
 Red. masses --      3.6756                 1.2005                 1.3851
 Frc consts  --      0.0330                 0.0197                 0.0365
 IR Inten    --      4.0430                83.6892                 2.7219

                      7                      8                      9
                      A                      A                      A
 Frequencies --    231.0521               247.0671               290.6725
 Red. masses --      8.8712                 2.2606                 1.8212
 Frc consts  --      0.2790                 0.0813                 0.0907
 IR Inten    --      3.1248                 4.5139                14.5119

                     10                     11                     12
                      A                      A                      A
 Frequencies --    373.2787               402.2351               413.4423
 Red. masses --      2.5144                 2.4835                 3.1193
 Frc consts  --      0.2064                 0.2367                 0.3141
 IR Inten    --      9.2447                 5.1204                21.2528

                     13                     14                     15
                      A                      A                      A
 Frequencies --    556.3541               633.8398               716.2859
 Red. masses --      6.0470                 4.6576                 1.3762
 Frc consts  --      1.1028                 1.1025                 0.4160
 IR Inten    --     22.4145                 3.8251                37.1055

                     16                     17                     18
                      A                      A                      A
 Frequencies --    743.0994               756.4809               816.1141
 Red. masses --      4.9679                 8.7736                 1.1436
 Frc consts  --      1.6163                 2.9582                 0.4488
 IR Inten    --      9.7711                 9.2277                 8.4145

                     19                     20                     21
                      A                      A                      A
 Frequencies --    959.1577               990.0300              1091.6325
 Red. masses --      2.1079                 1.1781                 4.2020
 Frc consts  --      1.1426                 0.6803                 2.9503
 IR Inten    --     18.1080                58.7322                59.1326

                     22                     23                     24
                      A                      A                      A
 Frequencies --   1139.5123              1178.7881              1278.6338
 Red. masses --      2.2934                 1.8153                 2.5407
 Frc consts  --      1.7545                 1.4862                 2.4473
 IR Inten    --     27.4133                53.4753               335.0843

                     25                     26                     27
                      A                      A                      A
 Frequencies --   1361.6926              1401.7052              1433.4432
 Red. masses --      1.4049                 1.2575                 1.3642
 Frc consts  --      1.5348                 1.4557                 1.6516
 IR Inten    --    146.2156                23.7687                15.8420

                     28                     29                     30
                      A                      A                      A
 Frequencies --   1488.8372              1503.8958              1533.0720
 Red. masses --      1.0379                 1.0458                 1.0989
 Frc consts  --      1.3554                 1.3936                 1.5218
 IR Inten    --      5.4164                 4.6508                 4.5368

                     31                     32                     33
                      A                      A                      A
 Frequencies --   1864.2383              1900.1744              3074.9291
 Red. masses --     11.3812                 7.4436                 1.0355
 Frc consts  --     23.3046                15.8351                 5.7684
 IR Inten    --    476.1797                70.7922                13.1589

                     34                     35                     36
                      A                      A                      A
 Frequencies --   3099.5655              3146.5735              3156.4563
 Red. masses --      1.0617                 1.1039                 1.1009
 Frc consts  --      6.0097                 6.4397                 6.4625
 IR Inten    --     21.5224                 6.8845                10.4887

                     37                     38                     39
                      A                      A                      A
 Frequencies --   3174.0243              3446.4728              3848.8242
 Red. masses --      1.1058                 1.1291                 1.0678
 Frc consts  --      6.5636                 7.9016                 9.3195
 IR Inten    --     12.6325                82.2476                66.1797

 - Thermochemistry -
 -------------------
 Temperature   298.150 Kelvin.  Pressure   1.00000 Atm.
 Atom     1 has atomic number  6 and mass  12.00000

 Molecular mass:   115.03952 amu.
 Principal axes and moments of inertia in atomic units:
                           1         2         3
     Eigenvalues --   669.043531067.422681392.58608
           X            0.99985   0.01664   0.00364
           Y           -0.01663   0.99985  -0.00388
           Z           -0.00371   0.00382   0.99999
 This molecule is an asymmetric top.
 Rotational symmetry number  1.
 Warning -- assumption of classical behavior for rotation
           may cause significant error
 Rotational temperatures (Kelvin)      0.12946     0.08114     0.06220
 Rotational constants (GHZ):           2.69749     1.69075     1.29596
    1 imaginary frequencies ignored.
 Zero-point vibrational energy     292762.0 (Joules/Mol)
                                   69.97179 (Kcal/Mol)
 Warning -- explicit consideration of  12 degrees of freedom as
           vibrations may cause significant error
 Vibrational temperatures:    124.74   152.13   177.58   240.23   304.41
          (Kelvin)            332.43   355.47   418.21   537.06   578.73
                              594.85   800.47   911.95  1030.58  1069.15
                             1088.41  1174.21  1380.01  1424.43  1570.62
                             1639.50  1696.01  1839.67  1959.17  2016.74
                             2062.40  2142.10  2163.77  2205.75  2682.22
                             2733.93  4424.14  4459.58  4527.22  4541.44
                             4566.71  4958.71  5537.60

 Zero-point correction=                           0.111507 (Hartree/Particle)
 Thermal correction to Energy=                    0.120942
 Thermal correction to Enthalpy=                  0.121886
 Thermal correction to Gibbs Free Energy=         0.076768
 Sum of electronic and zero-point Energies=           -420.093262
 Sum of electronic and thermal Energies=              -420.083827
 Sum of electronic and thermal Enthalpies=            -420.082883
 Sum of electronic and thermal Free Energies=         -420.128001

                     E (Thermal)             CV                S
                      KCal/Mol        Cal/Mol-Kelvin    Cal/Mol-Kelvin
 Total                   75.892             32.472             94.959
 Electronic               0.000              0.000              1.377
 Translational            0.889              2.981             40.136
 Rotational               0.889              2.981             28.388
 Vibrational             74.115             26.510             25.058
 Vibration     1          0.601              1.958              3.733
 Vibration     2          0.605              1.945              3.346
 Vibration     3          0.610              1.929              3.046
 Vibration     4          0.624              1.883              2.469
 Vibration     5          0.643              1.823              2.030
 Vibration     6          0.653              1.794              1.871
 Vibration     7          0.661              1.768              1.751
 Vibration     8          0.687              1.691              1.470
 Vibration     9          0.745              1.527              1.066
 Vibration    10          0.768              1.465              0.954
 Vibration    11          0.777              1.441              0.915
 Vibration    12          0.912              1.126              0.531

 Normal termination of Gaussian 16 at Fri Mar 28 05:42:38 2025.
