 Gaussian 16, Revision A.03,
 Gaussian 16:  ES64L-G16RevA.03 25-Dec-2016

 --------------------------
 # ccsd(t)/6-311++g(d,p) sp
 --------------------------

 -------------------
 Title Card Required
 -------------------
 Symbolic Z-matrix:
 Charge =  0 Multiplicity = 2

                         Standard orientation:
 ---------------------------------------------------------------------
 Center     Atomic      Atomic             Coordinates (Angstroms)
 Number     Number       Type             X           Y           Z
 ---------------------------------------------------------------------
      1          6           0       -2.103342   -1.059682   -0.846805
      2          1           0       -2.773290   -1.770611   -1.273874
      3          6           0       -1.281938   -0.345822   -0.284466
      4          6           0       -0.607376    0.936866    0.056071
      5          8           0       -1.220235    1.829776    0.558212
      6          8           0        0.685104    1.029972   -0.219503
      7          6           0        1.457459   -0.051504   -0.776930
      8          6           0        2.541550   -0.436733    0.205224
      9          1           0        0.814121   -0.900450   -1.006511
     10          1           0        1.875068    0.338973   -1.706194
     11          1           0        3.157248    0.429390    0.451437
     12          1           0        2.093616   -0.832195    1.116614
     13          1           0        3.179720   -1.204991   -0.236278
     14          8           0       -0.373381   -1.450111    1.024703
     15          1           0       -1.116494   -1.595959    1.628942
 ---------------------------------------------------------------------

 SCF Done:  E(UHF) =  -417.967446006     A.U. after   34 cycles
 E2 =    -0.1259224799D+01 EUMP2 =    -0.41922667080514D+03
 CCSD(T)= -0.41934723963D+03

 The electronic state is 2-A.
 Alpha  occ. eigenvalues --  -20.63068 -20.60617 -20.54884 -11.41329 -11.29837
 Alpha  occ. eigenvalues --  -11.28397 -11.27916 -11.22283  -1.47333  -1.38956
 Alpha  occ. eigenvalues --   -1.37498  -1.08515  -1.04621  -0.90765  -0.87465
 Alpha  occ. eigenvalues --   -0.76293  -0.73327  -0.70985  -0.67368  -0.66430
 Alpha  occ. eigenvalues --   -0.65901  -0.61197  -0.56986  -0.55992  -0.55401
 Alpha  occ. eigenvalues --   -0.52776  -0.50555  -0.47441  -0.44930  -0.43891
 Alpha  occ. eigenvalues --   -0.42869
 Alpha virt. eigenvalues --    0.03214   0.04603   0.05380   0.06588   0.06905
 Alpha virt. eigenvalues --    0.08633   0.09376   0.10441   0.10841   0.12464
 Alpha virt. eigenvalues --    0.12778   0.12972   0.14169   0.15675   0.16272

  Beta  occ. eigenvalues --  -20.60554 -20.59487 -20.55394 -11.40936 -11.29990
  Beta  occ. eigenvalues --  -11.29864 -11.25937 -11.22280  -1.47445  -1.38250
  Beta  occ. eigenvalues --   -1.26600  -1.07394  -1.04536  -0.89762  -0.86542
  Beta  occ. eigenvalues --   -0.75718  -0.72454  -0.70150  -0.66990  -0.64409
  Beta  occ. eigenvalues --   -0.62298  -0.57007  -0.56361  -0.53840  -0.51396
  Beta  occ. eigenvalues --   -0.50490  -0.48955  -0.46492  -0.45134  -0.42672
  Beta virt. eigenvalues --    0.03240   0.03809   0.04741   0.06436   0.06799
  Beta virt. eigenvalues --    0.07485   0.08320   0.09692   0.11181   0.11597
  Beta virt. eigenvalues --    0.12362   0.12976   0.13696   0.14856   0.16003

 Mulliken charges and spin densities:
               1          2
     1  C   -0.558293   1.215059
     2  H    0.250844  -0.089318
     3  C    0.471419  -0.997394
     4  C    0.122509   0.183424
     5  O   -0.335389  -0.104598
     6  O   -0.110490  -0.002874
     7  C   -0.323544   0.004930
     8  C   -0.407210  -0.006084
     9  H    0.199316   0.003007
    10  H    0.173647   0.001203
    11  H    0.160805  -0.000323
    12  H    0.158418   0.001613
    13  H    0.124542  -0.000278
    14  O   -0.186588   0.822790
    15  H    0.260012  -0.031155
 Sum of Mulliken charges =  -0.00000   1.00000

 Dipole moment (field-independent basis, Debye):
    X=             -0.0296    Y=             -4.4899    Z=             -1.5205  Tot=              4.7404
 Quadrupole moment (field-independent basis, Debye-Ang):
   XX=            -41.5738   YY=            -53.1991   ZZ=            -43.4224
   XY=              8.1073   XZ=              0.3780   YZ=             -2.1817

 4\PMP3-0=-419.273364\MP4SDQ=-419.2845271\CCSD=-419.2919663\CCSD(T)=-41
 Normal termination of Gaussian 16 at Wed May 14 21:00:18 2025.
