 Gaussian 16, Revision A.03,
 Gaussian 16:  ES64L-G16RevA.03 25-Dec-2016

 --------------------------
 # ccsd(t)/6-311++g(d,p) sp
 --------------------------

 -------------------
 Title Card Required
 -------------------
 Symbolic Z-matrix:
 Charge =  0 Multiplicity = 2

                         Standard orientation:
 ---------------------------------------------------------------------
 Center     Atomic      Atomic             Coordinates (Angstroms)
 Number     Number       Type             X           Y           Z
 ---------------------------------------------------------------------
      1          6           0       -2.100333   -1.073051   -0.855025
      2          1           0       -2.754636   -1.808618   -1.262475
      3          6           0       -1.335824   -0.268793   -0.383263
      4          6           0       -0.623474    0.939008    0.070386
      5          8           0       -1.227857    1.809496    0.622771
      6          8           0        0.672682    1.039911   -0.195766
      7          6           0        1.446890   -0.018755   -0.789531
      8          6           0        2.547324   -0.414737    0.171049
      9          1           0        0.806408   -0.867259   -1.030499
     10          1           0        1.851037    0.394757   -1.714920
     11          1           0        3.156224    0.452397    0.430094
     12          1           0        2.117336   -0.833863    1.080569
     13          1           0        3.188856   -1.166136   -0.293871
     14          8           0       -0.305988   -1.536100    1.058296
     15          1           0       -1.083421   -1.659772    1.627003
 ---------------------------------------------------------------------

 SCF Done:  E(UHF) =  -417.976096317     A.U. after   40 cycles
 E2 =    -0.1261872438D+01 EUMP2 =    -0.41923796875480D+03
 CCSD(T)= -0.41934785173D+03

 The electronic state is 2-A.
 Alpha  occ. eigenvalues --  -20.64225 -20.60639 -20.54916 -11.41432 -11.29857
 Alpha  occ. eigenvalues --  -11.27691 -11.26747 -11.22370  -1.47287  -1.39992
 Alpha  occ. eigenvalues --   -1.37513  -1.07941  -1.04623  -0.90719  -0.87462
 Alpha  occ. eigenvalues --   -0.76055  -0.73319  -0.71047  -0.67964  -0.67498
 Alpha  occ. eigenvalues --   -0.66258  -0.61288  -0.57149  -0.56829  -0.55712
 Alpha  occ. eigenvalues --   -0.52962  -0.50589  -0.47463  -0.45291  -0.43268
 Alpha  occ. eigenvalues --   -0.42689
 Alpha virt. eigenvalues --    0.03197   0.04612   0.05316   0.06596   0.06889
 Alpha virt. eigenvalues --    0.08569   0.09206   0.10205   0.10698   0.12526
 Alpha virt. eigenvalues --    0.12813   0.13076   0.14357   0.15715   0.16170

  Beta  occ. eigenvalues --  -20.60589 -20.60205 -20.55364 -11.41130 -11.29875
  Beta  occ. eigenvalues --  -11.28062 -11.26131 -11.22367  -1.47399  -1.38172
  Beta  occ. eigenvalues --   -1.25186  -1.07510  -1.04563  -0.90095  -0.87011
  Beta  occ. eigenvalues --   -0.75780  -0.72735  -0.69863  -0.67114  -0.64606
  Beta  occ. eigenvalues --   -0.61791  -0.57002  -0.56526  -0.53820  -0.51689
  Beta  occ. eigenvalues --   -0.50576  -0.48619  -0.46226  -0.43917  -0.42564
  Beta virt. eigenvalues --    0.03237   0.04062   0.04796   0.06559   0.06821
  Beta virt. eigenvalues --    0.07990   0.08400   0.09417   0.10886   0.11509
  Beta virt. eigenvalues --    0.12364   0.13068   0.13475   0.14778   0.15913

 Mulliken charges and spin densities:
               1          2
     1  C   -1.691143   0.719249
     2  H    0.231629  -0.054830
     3  C    1.489023  -0.665092
     4  C    0.284814   0.178248
     5  O   -0.338415  -0.093131
     6  O   -0.110625  -0.002633
     7  C   -0.332038   0.004879
     8  C   -0.406908  -0.003786
     9  H    0.188006  -0.000296
    10  H    0.171581   0.001317
    11  H    0.161043  -0.000037
    12  H    0.151054   0.001676
    13  H    0.128595  -0.000493
    14  O   -0.184994   0.951390
    15  H    0.258378  -0.036461
 Sum of Mulliken charges =  -0.00000   1.00000

 Dipole moment (field-independent basis, Debye):
    X=              0.1603    Y=             -4.5891    Z=             -1.3593  Tot=              4.7889
 Quadrupole moment (field-independent basis, Debye-Ang):
   XX=            -42.1183   YY=            -52.4964   ZZ=            -43.5340
   XY=              8.3472   XZ=              0.1859   YZ=             -2.8664

 312\PMP3-0=-419.2738163\MP4SDQ=-419.2916579\CCSD=-419.2941429\CCSD(T)=
 Normal termination of Gaussian 16 at Tue May 13 21:15:32 2025.
