 Gaussian 16, Revision A.03,
 Gaussian 16:  ES64L-G16RevA.03 25-Dec-2016

 --------------------------
 # freq 6-311++g(d,p) m062x
 --------------------------

 -------------------
 Title Card Required
 -------------------
 Symbolic Z-matrix:
 Charge =  0 Multiplicity = 2

                         Standard orientation:
 ---------------------------------------------------------------------
 Center     Atomic      Atomic             Coordinates (Angstroms)
 Number     Number       Type             X           Y           Z
 ---------------------------------------------------------------------
      1          6           0       -2.099511   -1.077033   -0.859498
      2          1           0       -2.746162   -1.824721   -1.256767
      3          6           0       -1.349302   -0.249864   -0.409397
      4          6           0       -0.630199    0.941489    0.072087
      5          8           0       -1.230540    1.803046    0.643263
      6          8           0        0.667583    1.042723   -0.188253
      7          6           0        1.442538   -0.008723   -0.793283
      8          6           0        2.549203   -0.405997    0.159881
      9          1           0        0.803692   -0.858140   -1.035818
     10          1           0        1.840990    0.411298   -1.718272
     11          1           0        3.155755    0.462093    0.421205
     12          1           0        2.125568   -0.831874    1.069187
     13          1           0        3.191643   -1.152038   -0.312354
     14          8           0       -0.284057   -1.562254    1.068486
     15          1           0       -1.071750   -1.673966    1.626115
 ---------------------------------------------------------------------

 SCF Done:  E(UM062X) =  -420.200447759     A.U. after   27 cycles

 The electronic state is 2-A.
 Alpha  occ. eigenvalues --  -19.68623 -19.67770 -19.62404 -10.70654 -10.60635
 Alpha  occ. eigenvalues --  -10.58759 -10.58438 -10.53396  -1.24890  -1.16263
 Alpha  occ. eigenvalues --   -1.14405  -0.90246  -0.88067  -0.76364  -0.73731
 Alpha  occ. eigenvalues --   -0.64586  -0.62147  -0.59373  -0.56179  -0.55861
 Alpha  occ. eigenvalues --   -0.52886  -0.50499  -0.47675  -0.47587  -0.45036
 Alpha  occ. eigenvalues --   -0.43420  -0.41846  -0.39939  -0.37673  -0.36575
 Alpha  occ. eigenvalues --   -0.36103
 Alpha virt. eigenvalues --   -0.01576  -0.00750   0.00568   0.00972   0.02222
 Alpha virt. eigenvalues --    0.02445   0.03480   0.04747   0.05705   0.05983
 Alpha virt. eigenvalues --    0.07227   0.07453   0.08682   0.09475   0.10279

  Beta  occ. eigenvalues --  -19.67770 -19.67071 -19.62418 -10.70643 -10.60636
  Beta  occ. eigenvalues --  -10.58736 -10.58339 -10.53394  -1.24889  -1.16289
  Beta  occ. eigenvalues --   -1.07145  -0.89716  -0.88018  -0.76240  -0.73616
  Beta  occ. eigenvalues --   -0.64487  -0.61900  -0.58796  -0.56136  -0.53593
  Beta  occ. eigenvalues --   -0.51844  -0.47903  -0.47576  -0.44736  -0.42018
  Beta  occ. eigenvalues --   -0.40423  -0.39882  -0.39128  -0.37250  -0.35954
  Beta virt. eigenvalues --   -0.10266  -0.01077  -0.00607   0.00613   0.01310
  Beta virt. eigenvalues --    0.02346   0.02548   0.03564   0.04787   0.05836
  Beta virt. eigenvalues --    0.06140   0.07303   0.07549   0.08713   0.09515

 Mulliken charges and spin densities:
               1          2
     1  C   -1.390665   0.163715
     2  H    0.206094  -0.008608
     3  C    1.259550  -0.064282
     4  C    0.108941   0.038115
     5  O   -0.248478  -0.006921
     6  O   -0.025211  -0.001277
     7  C   -0.352221   0.008395
     8  C   -0.448301  -0.002311
     9  H    0.168332  -0.001691
    10  H    0.210343   0.001447
    11  H    0.178507  -0.000269
    12  H    0.174777  -0.000101
    13  H    0.154749  -0.000806
    14  O   -0.253463   0.894400
    15  H    0.257046  -0.019806
 Sum of Mulliken charges =  -0.00000   1.00000

 Dipole moment (field-independent basis, Debye):
    X=              0.0216    Y=             -3.9471    Z=             -1.5461  Tot=              4.2391
 Quadrupole moment (field-independent basis, Debye-Ang):
   XX=            -41.4260   YY=            -52.1393   ZZ=            -43.9423
   XY=              7.9349   XZ=              0.3314   YZ=             -2.2199

  Exact polarizability:  83.917   1.849  70.792   5.728   4.516  63.250
 Approx polarizability:  89.781   5.439  86.260   5.134  11.093  74.207

                      1                      2                      3
                      A                      A                      A
 Frequencies --     50.4168                85.9605               115.2136
 Red. masses --      7.2011                 5.5438                 3.3430
 Frc consts  --      0.0108                 0.0241                 0.0261
 IR Inten    --      2.9142                 0.9424                 2.8357

                      4                      5                      6
                      A                      A                      A
 Frequencies --    123.4718               166.2611               201.1712
 Red. masses --      4.1821                 2.8855                 5.8731
 Frc consts  --      0.0376                 0.0470                 0.1400
 IR Inten    --      4.6460                 9.9293                 2.4306

                      7                      8                      9
                      A                      A                      A
 Frequencies --    211.9803               224.7160               270.6076
 Red. masses --      1.5981                 1.2948                 2.0098
 Frc consts  --      0.0423                 0.0385                 0.0867
 IR Inten    --     48.2717                 0.6881                33.1246

                     10                     11                     12
                      A                      A                      A
 Frequencies --    348.3029               399.1851               544.6613
 Red. masses --      2.9201                 3.3501                 3.9323
 Frc consts  --      0.2087                 0.3145                 0.6873
 IR Inten    --      0.6715                 6.8913                19.1146

                     13                     14                     15
                      A                      A                      A
 Frequencies --    565.5498               631.7026               721.2979
 Red. masses --      1.1970                 5.4436                 1.3448
 Frc consts  --      0.2256                 1.2798                 0.4122
 IR Inten    --     97.6393                 2.1190                35.9567

                     16                     17                     18
                      A                      A                      A
 Frequencies --    748.6318               756.8945               765.1299
 Red. masses --      6.6574                 1.5239                 3.5040
 Frc consts  --      2.1983                 0.5144                 1.2086
 IR Inten    --     17.7356                18.3616                35.3380

                     19                     20                     21
                      A                      A                      A
 Frequencies --    818.7602               963.9968              1096.6118
 Red. masses --      1.1529                 2.1824                 3.9394
 Frc consts  --      0.4554                 1.1949                 2.7911
 IR Inten    --      7.3655                15.1164                51.5613

                     22                     23                     24
                      A                      A                      A
 Frequencies --   1140.9812              1179.2645              1285.3252
 Red. masses --      2.4810                 1.7797                 2.4771
 Frc consts  --      1.9030                 1.4582                 2.4112
 IR Inten    --     37.5928                48.4110               362.2179

                     25                     26                     27
                      A                      A                      A
 Frequencies --   1360.6299              1403.3890              1434.9913
 Red. masses --      1.4391                 1.2585                 1.3627
 Frc consts  --      1.5697                 1.4604                 1.6533
 IR Inten    --    164.5069                27.5991                12.2403

                     28                     29                     30
                      A                      A                      A
 Frequencies --   1488.4447              1503.4496              1529.8711
 Red. masses --      1.0379                 1.0474                 1.1001
 Frc consts  --      1.3547                 1.3949                 1.5170
 IR Inten    --      5.3595                 3.7274                 4.4482

                     31                     32                     33
                      A                      A                      A
 Frequencies --   1858.1637              2214.2738              3076.2390
 Red. masses --     12.9502                 5.8549                 1.0356
 Frc consts  --     26.3448                16.9136                 5.7738
 IR Inten    --    514.5279                58.4094                11.9694

                     34                     35                     36
                      A                      A                      A
 Frequencies --   3095.8461              3144.7626              3154.5392
 Red. masses --      1.0604                 1.1052                 1.1011
 Frc consts  --      5.9878                 6.4399                 6.4560
 IR Inten    --     20.3407                 4.2929                12.6347

                     37                     38                     39
                      A                      A                      A
 Frequencies --   3171.8636              3481.4965              3799.2652
 Red. masses --      1.1052                 1.1646                 1.0673
 Frc consts  --      6.5512                 8.3166                 9.0770
 IR Inten    --     15.9316                69.6123                41.2906

 - Thermochemistry -
 -------------------
 Temperature   298.150 Kelvin.  Pressure   1.00000 Atm.
 Atom     1 has atomic number  6 and mass  12.00000

 Molecular mass:   115.03952 amu.
 Principal axes and moments of inertia in atomic units:
                           1         2         3
     Eigenvalues --   709.621691094.013301418.17280
           X            0.99973   0.02340   0.00111
           Y           -0.02339   0.99971  -0.00575
           Z           -0.00124   0.00572   0.99998
 This molecule is an asymmetric top.
 Rotational symmetry number  1.
 Warning -- assumption of classical behavior for rotation
           may cause significant error
 Rotational temperatures (Kelvin)      0.12206     0.07917     0.06107
 Rotational constants (GHZ):           2.54324     1.64965     1.27258
 Zero-point vibrational energy     293882.5 (Joules/Mol)
                                   70.23961 (Kcal/Mol)
 Warning -- explicit consideration of  13 degrees of freedom as
           vibrations may cause significant error
 Vibrational temperatures:     72.54   123.68   165.77   177.65   239.21
          (Kelvin)            289.44   304.99   323.32   389.34   501.13
                              574.34   783.65   813.70   908.88  1037.79
                             1077.11  1089.00  1100.85  1178.01  1386.98
                             1577.78  1641.62  1696.70  1849.30  1957.64
                             2019.16  2064.63  2141.54  2163.13  2201.14
                             2673.48  3185.85  4426.02  4454.23  4524.61
                             4538.68  4563.60  5009.10  5466.30

 Zero-point correction=                           0.111934 (Hartree/Particle)
 Thermal correction to Energy=                    0.122256
 Thermal correction to Enthalpy=                  0.123201
 Thermal correction to Gibbs Free Energy=         0.075629
 Sum of electronic and zero-point Energies=           -420.088514
 Sum of electronic and thermal Energies=              -420.078191
 Sum of electronic and thermal Enthalpies=            -420.077247
 Sum of electronic and thermal Free Energies=         -420.124819

                     E (Thermal)             CV                S
                      KCal/Mol        Cal/Mol-Kelvin    Cal/Mol-Kelvin
 Total                   76.717             34.583            100.124
 Electronic               0.000              0.000              1.377
 Translational            0.889              2.981             40.136
 Rotational               0.889              2.981             28.489
 Vibrational             74.940             28.621             30.121
 Vibration     1          0.595              1.977              4.801
 Vibration     2          0.601              1.959              3.750
 Vibration     3          0.608              1.937              3.179
 Vibration     4          0.610              1.929              3.045
 Vibration     5          0.624              1.884              2.477
 Vibration     6          0.638              1.838              2.122
 Vibration     7          0.643              1.823              2.027
 Vibration     8          0.649              1.803              1.921
 Vibration     9          0.674              1.727              1.592
 Vibration    10          0.726              1.579              1.174
 Vibration    11          0.765              1.472              0.966
 Vibration    12          0.900              1.151              0.555
 Vibration    13          0.921              1.106              0.513

 Normal termination of Gaussian 16 at Fri Mar 28 08:51:01 2025.
