 Gaussian 16, Revision A.03,
 Gaussian 16:  ES64L-G16RevA.03 25-Dec-2016

 --------------------------
 # ccsd(t)/6-311++g(d,p) sp
 --------------------------

 -------------------
 Title Card Required
 -------------------
 Symbolic Z-matrix:
 Charge =  0 Multiplicity = 2

                         Standard orientation:
 ---------------------------------------------------------------------
 Center     Atomic      Atomic             Coordinates (Angstroms)
 Number     Number       Type             X           Y           Z
 ---------------------------------------------------------------------
      1          6           0       -2.108422   -1.039626   -0.850313
      2          1           0       -2.770872   -1.772405   -1.255778
      3          6           0       -1.225002   -0.426749   -0.179853
      4          6           0       -0.600690    0.935195    0.036463
      5          8           0       -1.213353    1.846075    0.505768
      6          8           0        0.694528    1.021473   -0.237574
      7          6           0        1.464953   -0.077051   -0.765337
      8          6           0        2.536522   -0.452254    0.233828
      9          1           0        0.821127   -0.926933   -0.988269
     10          1           0        1.893851    0.292781   -1.697812
     11          1           0        3.157237    0.413463    0.468635
     12          1           0        2.076185   -0.827090    1.147577
     13          1           0        3.172170   -1.233799   -0.187648
     14          8           0       -0.432809   -1.373486    0.986964
     15          1           0       -1.140793   -1.535615    1.623304
 ---------------------------------------------------------------------

 SCF Done:  E(UHF) =  -417.976334793     A.U. after   29 cycles
 E2 =    -0.1270748813D+01 EUMP2 =    -0.41924708360639D+03
 CCSD(T)= -0.41936293227D+03

 The electronic state is 2-A.
 Alpha  occ. eigenvalues --  -20.60744 -20.60681 -20.55239 -11.41182 -11.31964
 Alpha  occ. eigenvalues --  -11.29850 -11.29688 -11.22093  -1.47404  -1.37699
 Alpha  occ. eigenvalues --   -1.36598  -1.09552  -1.04546  -0.91005  -0.87581
 Alpha  occ. eigenvalues --   -0.76764  -0.73307  -0.70914  -0.67261  -0.65711
 Alpha  occ. eigenvalues --   -0.63863  -0.60431  -0.56951  -0.55149  -0.54417
 Alpha  occ. eigenvalues --   -0.52174  -0.50521  -0.47967  -0.45023  -0.44804
 Alpha  occ. eigenvalues --   -0.42289
 Alpha virt. eigenvalues --    0.03202   0.04619   0.05460   0.06582   0.06928
 Alpha virt. eigenvalues --    0.08589   0.09447   0.10397   0.11211   0.12325
 Alpha virt. eigenvalues --    0.12769   0.13008   0.14004   0.15652   0.16328

  Beta  occ. eigenvalues --  -20.60632 -20.58717 -20.55567 -11.40839 -11.34063
  Beta  occ. eigenvalues --  -11.29880 -11.26522 -11.22091  -1.47459  -1.38180
  Beta  occ. eigenvalues --   -1.30636  -1.06693  -1.04404  -0.89487  -0.86074
  Beta  occ. eigenvalues --   -0.75799  -0.72155  -0.70577  -0.66820  -0.64811
  Beta  occ. eigenvalues --   -0.62875  -0.57090  -0.56004  -0.53965  -0.51920
  Beta  occ. eigenvalues --   -0.51171  -0.49903  -0.47770  -0.45699  -0.42708
  Beta virt. eigenvalues --    0.03218   0.03527   0.04663   0.06219   0.06731
  Beta virt. eigenvalues --    0.07087   0.08210   0.09999   0.11001   0.11541
  Beta virt. eigenvalues --    0.12722   0.12925   0.13791   0.14885   0.16098

 Mulliken charges and spin densities:
               1          2
     1  C   -0.038162   1.609849
     2  H    0.253493  -0.103550
     3  C    0.029397  -1.026158
     4  C    0.084329   0.160622
     5  O   -0.334245  -0.064743
     6  O   -0.108728  -0.001481
     7  C   -0.296641   0.002287
     8  C   -0.421359  -0.004184
     9  H    0.199269   0.006066
    10  H    0.174668   0.000087
    11  H    0.160223  -0.000508
    12  H    0.170663   0.000175
    13  H    0.120371   0.000103
    14  O   -0.265036   0.436744
    15  H    0.271757  -0.015309
 Sum of Mulliken charges =  -0.00000   1.00000

 Dipole moment (field-independent basis, Debye):
    X=             -0.3773    Y=             -4.2723    Z=             -1.8621  Tot=              4.6757
 Quadrupole moment (field-independent basis, Debye-Ang):
   XX=            -41.0837   YY=            -54.0401   ZZ=            -43.8301
   XY=              8.0065   XZ=              0.4340   YZ=             -1.2385

 P3-0=-419.288972\MP4SDQ=-419.3022556\CCSD=-419.3075916\CCSD(T)=-419.36
 Normal termination of Gaussian 16 at Wed May 14 16:39:19 2025.
