 Gaussian 16, Revision A.03,
 Gaussian 16:  ES64L-G16RevA.03 25-Dec-2016

 --------------------------
 # ccsd(t)/6-311++g(d,p) sp
 --------------------------

 -------------------
 Title Card Required
 -------------------
 Symbolic Z-matrix:
 Charge =  0 Multiplicity = 2

                         Standard orientation:
 ---------------------------------------------------------------------
 Center     Atomic      Atomic             Coordinates (Angstroms)
 Number     Number       Type             X           Y           Z
 ---------------------------------------------------------------------
      1          6           0       -2.100828   -1.067300   -0.850124
      2          1           0       -2.764126   -1.788011   -1.269992
      3          6           0       -1.313870   -0.300265   -0.342254
      4          6           0       -0.615306    0.936833    0.066006
      5          8           0       -1.224709    1.818287    0.593659
      6          8           0        0.678676    1.035722   -0.206417
      7          6           0        1.452127   -0.033128   -0.783955
      8          6           0        2.544730   -0.425216    0.186599
      9          1           0        0.810043   -0.881398   -1.020674
     10          1           0        1.862920    0.370515   -1.710694
     11          1           0        3.156680    0.441190    0.440888
     12          1           0        2.106372   -0.834261    1.096747
     13          1           0        3.184907   -1.184117   -0.267917
     14          8           0       -0.336422   -1.498314    1.043428
     15          1           0       -1.098274   -1.635024    1.628653
 ---------------------------------------------------------------------

 SCF Done:  E(UHF) =  -417.971959371     A.U. after   39 cycles
 E2 =    -0.1260193808D+01 EUMP2 =    -0.41923215317915D+03
 CCSD(T)= -0.41934661226D+03

 The electronic state is 2-A.
 Alpha  occ. eigenvalues --  -20.63866 -20.60618 -20.54864 -11.41379 -11.29844
 Alpha  occ. eigenvalues --  -11.27851 -11.26975 -11.22352  -1.47293  -1.39717
 Alpha  occ. eigenvalues --   -1.37480  -1.08123  -1.04626  -0.90734  -0.87459
 Alpha  occ. eigenvalues --   -0.76111  -0.73316  -0.71066  -0.67521  -0.67419
 Alpha  occ. eigenvalues --   -0.66149  -0.61284  -0.57062  -0.56611  -0.55582
 Alpha  occ. eigenvalues --   -0.52906  -0.50571  -0.47379  -0.45130  -0.43449
 Alpha  occ. eigenvalues --   -0.42767
 Alpha virt. eigenvalues --    0.03211   0.04604   0.05332   0.06594   0.06892
 Alpha virt. eigenvalues --    0.08608   0.09293   0.10338   0.10731   0.12522
 Alpha virt. eigenvalues --    0.12799   0.13009   0.14275   0.15690   0.16234

  Beta  occ. eigenvalues --  -20.60562 -20.59962 -20.55360 -11.41028 -11.29865
  Beta  occ. eigenvalues --  -11.28601 -11.25937 -11.22348  -1.47411  -1.38211
  Beta  occ. eigenvalues --   -1.25632  -1.07500  -1.04557  -0.89962  -0.86841
  Beta  occ. eigenvalues --   -0.75732  -0.72600  -0.69981  -0.67065  -0.64513
  Beta  occ. eigenvalues --   -0.62002  -0.56997  -0.56494  -0.53842  -0.51595
  Beta  occ. eigenvalues --   -0.50539  -0.48730  -0.46295  -0.44332  -0.42586
  Beta virt. eigenvalues --    0.03245   0.03973   0.04780   0.06518   0.06813
  Beta virt. eigenvalues --    0.07804   0.08368   0.09529   0.11102   0.11530
  Beta virt. eigenvalues --    0.12348   0.13020   0.13577   0.14806   0.15934

 Mulliken charges and spin densities:
               1          2
     1  C   -1.180127   0.927344
     2  H    0.241343  -0.069090
     3  C    1.014092  -0.815916
     4  C    0.223271   0.181406
     5  O   -0.336568  -0.102663
     6  O   -0.110332  -0.002976
     7  C   -0.331998   0.006051
     8  C   -0.404729  -0.005364
     9  H    0.193444   0.000702
    10  H    0.172323   0.001400
    11  H    0.161086  -0.000168
    12  H    0.153155   0.001912
    13  H    0.127050  -0.000439
    14  O   -0.180324   0.912814
    15  H    0.258314  -0.035012
 Sum of Mulliken charges =  -0.00000   1.00000

 Dipole moment (field-independent basis, Debye):
    X=              0.1120    Y=             -4.5727    Z=             -1.3837  Tot=              4.7788
 Quadrupole moment (field-independent basis, Debye-Ang):
   XX=            -41.9142   YY=            -52.7566   ZZ=            -43.4233
   XY=              8.2276   XZ=              0.2562   YZ=             -2.6301

 182\PMP3-0=-419.2723414\MP4SDQ=-419.2877148\CCSD=-419.2922994\CCSD(T)=
 Normal termination of Gaussian 16 at Tue May 13 23:04:26 2025.
