 Gaussian 16, Revision A.03,
 Gaussian 16:  ES64L-G16RevA.03 25-Dec-2016

 --------------------------
 # freq 6-311++g(d,p) m062x
 --------------------------

 -------------------
 Title Card Required
 -------------------
 Symbolic Z-matrix:
 Charge =  0 Multiplicity = 2

                         Standard orientation:
 ---------------------------------------------------------------------
 Center     Atomic      Atomic             Coordinates (Angstroms)
 Number     Number       Type             X           Y           Z
 ---------------------------------------------------------------------
      1          6           0       -2.102525   -1.061653   -0.847298
      2          1           0       -2.771251   -1.774039   -1.273559
      3          6           0       -1.290097   -0.334250   -0.299182
      4          6           0       -0.609093    0.936724    0.058808
      5          8           0       -1.221345    1.826999    0.566701
      6          8           0        0.683606    1.031376   -0.216390
      7          6           0        1.456241   -0.047098   -0.778647
      8          6           0        2.542309   -0.434052    0.200780
      9          1           0        0.813153   -0.895845   -1.009956
     10          1           0        1.872273    0.346618   -1.707262
     11          1           0        3.157053    0.432152    0.449065
     12          1           0        2.096585   -0.832813    1.111853
     13          1           0        3.181035   -1.200044   -0.243806
     14          8           0       -0.364488   -1.461888    1.029398
     15          1           0       -1.112046   -1.605954    1.629217
 ---------------------------------------------------------------------

 SCF Done:  E(UM062X) =  -420.196977308     A.U. after   23 cycles

 The electronic state is 2-A.
 Alpha  occ. eigenvalues --  -19.67946 -19.66312 -19.62650 -10.70836 -10.61104
 Alpha  occ. eigenvalues --  -10.60650 -10.59911 -10.53261  -1.25141  -1.16505
 Alpha  occ. eigenvalues --   -1.12484  -0.91315  -0.88119  -0.76653  -0.73925
 Alpha  occ. eigenvalues --   -0.65050  -0.62703  -0.59333  -0.56347  -0.54442
 Alpha  occ. eigenvalues --   -0.53333  -0.49688  -0.47649  -0.47248  -0.44826
 Alpha  occ. eigenvalues --   -0.42192  -0.41377  -0.40404  -0.37562  -0.36700
 Alpha  occ. eigenvalues --   -0.34439
 Alpha virt. eigenvalues --   -0.01221  -0.00763   0.00538   0.01033   0.02067
 Alpha virt. eigenvalues --    0.02431   0.03241   0.04684   0.05570   0.05930
 Alpha virt. eigenvalues --    0.07098   0.07386   0.08572   0.09401   0.10025

  Beta  occ. eigenvalues --  -19.67941 -19.65025 -19.62674 -10.70809 -10.61177
  Beta  occ. eigenvalues --  -10.60653 -10.59603 -10.53259  -1.25129  -1.16544
  Beta  occ. eigenvalues --   -1.07541  -0.90029  -0.88049  -0.76298  -0.73639
  Beta  occ. eigenvalues --   -0.64711  -0.62258  -0.58886  -0.56291  -0.52864
  Beta  occ. eigenvalues --   -0.52109  -0.47869  -0.47548  -0.44707  -0.42033
  Beta  occ. eigenvalues --   -0.41165  -0.39928  -0.38673  -0.37449  -0.35921
  Beta virt. eigenvalues --   -0.11116  -0.00682  -0.00237   0.00607   0.01304
  Beta virt. eigenvalues --    0.02311   0.02587   0.03443   0.04612   0.05746
  Beta virt. eigenvalues --    0.06052   0.07104   0.07443   0.08513   0.09459

 Mulliken charges and spin densities:
               1          2
     1  C   -0.435000   0.491522
     2  H    0.234233  -0.022259
     3  C    0.363973  -0.165624
     4  C    0.027047   0.032422
     5  O   -0.245700  -0.010542
     6  O   -0.022602  -0.000383
     7  C   -0.362981   0.009201
     8  C   -0.440212  -0.004346
     9  H    0.187571   0.003010
    10  H    0.210280   0.001247
    11  H    0.177477  -0.000485
    12  H    0.183223   0.000697
    13  H    0.151083  -0.000432
    14  O   -0.277795   0.680708
    15  H    0.249403  -0.014735
 Sum of Mulliken charges =  -0.00000   1.00000

 Dipole moment (field-independent basis, Debye):
    X=             -0.3041    Y=             -3.7083    Z=             -1.9365  Tot=              4.1946
 Quadrupole moment (field-independent basis, Debye-Ang):
   XX=            -40.3561   YY=            -53.0024   ZZ=            -43.9782
   XY=              7.7978   XZ=              0.8565   YZ=             -1.0737

  Exact polarizability:  86.972  -0.923  71.019  10.319   1.142  68.383
 Approx polarizability:  93.981   1.122  84.636  11.019   6.933  80.425

 ******    1 imaginary frequencies (negative Signs) ******

                      1                      2                      3
                      A                      A                      A
 Frequencies --   -601.1515                86.5453                97.4236
 Red. masses --     12.0942                 6.5784                 4.5992
 Frc consts  --      2.5751                 0.0290                 0.0257
 IR Inten    --     57.8470                 0.6192                 4.8269

                      4                      5                      6
                      A                      A                      A
 Frequencies --    108.1479               173.5385               185.6082
 Red. masses --      2.6504                 5.1197                 2.2344
 Frc consts  --      0.0183                 0.0908                 0.0454
 IR Inten    --      0.8591                23.0635                12.5718

                      7                      8                      9
                      A                      A                      A
 Frequencies --    210.8559               230.3255               267.7438
 Red. masses --      1.3887                 1.4790                 2.3976
 Frc consts  --      0.0364                 0.0462                 0.1013
 IR Inten    --     38.7896                 0.6854                17.4350

                     10                     11                     12
                      A                      A                      A
 Frequencies --    360.8903               402.2120               546.1796
 Red. masses --      2.9369                 3.3899                 5.6269
 Frc consts  --      0.2254                 0.3231                 0.9890
 IR Inten    --      0.3999                 7.6302                22.0216

                     13                     14                     15
                      A                      A                      A
 Frequencies --    622.3331               643.4584               729.2390
 Red. masses --      4.7934                 1.3572                 1.9808
 Frc consts  --      1.0938                 0.3311                 0.6206
 IR Inten    --      9.8695                25.9795                11.2580

                     16                     17                     18
                      A                      A                      A
 Frequencies --    737.0790               757.9524               815.8563
 Red. masses --      2.2954                 6.1364                 1.1506
 Frc consts  --      0.7347                 2.0771                 0.4512
 IR Inten    --     46.4284                 6.8906                75.8805

                     19                     20                     21
                      A                      A                      A
 Frequencies --    816.9225               961.5396              1093.8428
 Red. masses --      1.1672                 2.1914                 4.1386
 Frc consts  --      0.4590                 1.1937                 2.9175
 IR Inten    --     12.6946                18.4905                60.9539

                     22                     23                     24
                      A                      A                      A
 Frequencies --   1139.5421              1178.7635              1280.2117
 Red. masses --      2.3401                 1.8080                 2.5563
 Frc consts  --      1.7904                 1.4801                 2.4685
 IR Inten    --     30.7268                49.0465               335.5426

                     25                     26                     27
                      A                      A                      A
 Frequencies --   1362.0439              1402.7878              1434.5404
 Red. masses --      1.4027                 1.2578                 1.3622
 Frc consts  --      1.5332                 1.4583                 1.6517
 IR Inten    --    143.7920                25.2860                16.8375

                     28                     29                     30
                      A                      A                      A
 Frequencies --   1488.5392              1503.1159              1529.6745
 Red. masses --      1.0378                 1.0473                 1.1006
 Frc consts  --      1.3549                 1.3941                 1.5173
 IR Inten    --      5.6450                 5.1214                 5.3160

                     31                     32                     33
                      A                      A                      A
 Frequencies --   1865.9072              2068.0436              3075.2313
 Red. masses --     12.8846                 6.3954                 1.0354
 Frc consts  --     26.4303                16.1153                 5.7691
 IR Inten    --    539.3156                91.3067                12.3655

                     34                     35                     36
                      A                      A                      A
 Frequencies --   3098.4124              3146.2470              3155.2109
 Red. masses --      1.0610                 1.1046                 1.1011
 Frc consts  --      6.0012                 6.4421                 6.4586
 IR Inten    --     20.8127                 5.4596                11.1169

                     37                     38                     39
                      A                      A                      A
 Frequencies --   3172.4242              3464.8416              3823.4427
 Red. masses --      1.1058                 1.1455                 1.0677
 Frc consts  --      6.5570                 8.1021                 9.1961
 IR Inten    --     14.1275                72.8657                58.8530

 - Thermochemistry -
 -------------------
 Temperature   298.150 Kelvin.  Pressure   1.00000 Atm.
 Atom     1 has atomic number  6 and mass  12.00000

 Molecular mass:   115.03952 amu.
 Principal axes and moments of inertia in atomic units:
                           1         2         3
     Eigenvalues --   682.460251076.624231401.29175
           X            0.99982   0.01867   0.00292
           Y           -0.01866   0.99981  -0.00471
           Z           -0.00301   0.00465   0.99998
 This molecule is an asymmetric top.
 Rotational symmetry number  1.
 Warning -- assumption of classical behavior for rotation
           may cause significant error
 Rotational temperatures (Kelvin)      0.12691     0.08045     0.06181
 Rotational constants (GHZ):           2.64446     1.67630     1.28791
    1 imaginary frequencies ignored.
 Zero-point vibrational energy     293304.4 (Joules/Mol)
                                   70.10144 (Kcal/Mol)
 Warning -- explicit consideration of  11 degrees of freedom as
           vibrations may cause significant error
 Vibrational temperatures:    124.52   140.17   155.60   249.68   267.05
          (Kelvin)            303.37   331.39   385.22   519.24   578.69
                              785.83   895.40   925.79  1049.21  1060.49
                             1090.52  1173.84  1175.37  1383.44  1573.80
                             1639.55  1695.98  1841.94  1959.68  2018.30
                             2063.98  2141.68  2162.65  2200.86  2684.62
                             2975.45  4424.57  4457.92  4526.75  4539.64
                             4564.41  4985.13  5501.08

 Zero-point correction=                           0.111714 (Hartree/Particle)
 Thermal correction to Energy=                    0.121205
 Thermal correction to Enthalpy=                  0.122149
 Thermal correction to Gibbs Free Energy=         0.076701
 Sum of electronic and zero-point Energies=           -420.085264
 Sum of electronic and thermal Energies=              -420.075772
 Sum of electronic and thermal Enthalpies=            -420.074828
 Sum of electronic and thermal Free Energies=         -420.120276

                     E (Thermal)             CV                S
                      KCal/Mol        Cal/Mol-Kelvin    Cal/Mol-Kelvin
 Total                   76.057             32.397             95.654
 Electronic               0.000              0.000              1.377
 Translational            0.889              2.981             40.136
 Rotational               0.889              2.981             28.423
 Vibrational             74.280             26.435             25.718
 Vibration     1          0.601              1.959              3.737
 Vibration     2          0.603              1.951              3.505
 Vibration     3          0.606              1.943              3.302
 Vibration     4          0.627              1.875              2.397
 Vibration     5          0.632              1.860              2.271
 Vibration     6          0.643              1.824              2.036
 Vibration     7          0.652              1.795              1.876
 Vibration     8          0.673              1.732              1.611
 Vibration     9          0.735              1.553              1.118
 Vibration    10          0.768              1.465              0.955
 Vibration    11          0.901              1.148              0.552

 Normal termination of Gaussian 16 at Fri Mar 28 06:46:15 2025.
