 Gaussian 16, Revision A.03,
 Gaussian 16:  ES64L-G16RevA.03 25-Dec-2016

 --------------------------
 # ccsd(t)/6-311++g(d,p) sp
 --------------------------

 -------------------
 Title Card Required
 -------------------
 Symbolic Z-matrix:
 Charge =  0 Multiplicity = 2

                         Standard orientation:
 ---------------------------------------------------------------------
 Center     Atomic      Atomic             Coordinates (Angstroms)
 Number     Number       Type             X           Y           Z
 ---------------------------------------------------------------------
      1          6           0       -2.107948   -1.046847   -0.848286
      2          1           0       -2.775514   -1.767219   -1.265175
      3          6           0       -1.240742   -0.403722   -0.209391
      4          6           0       -0.601789    0.936541    0.041589
      5          8           0       -1.214914    1.842263    0.519628
      6          8           0        0.692060    1.023564   -0.233189
      7          6           0        1.462843   -0.070924   -0.768704
      8          6           0        2.537916   -0.448443    0.225862
      9          1           0        0.818947   -0.920670   -0.992329
     10          1           0        1.888326    0.304264   -1.700633
     11          1           0        3.157482    0.417446    0.463107
     12          1           0        2.080675   -0.828499    1.139029
     13          1           0        3.174018   -1.226699   -0.200959
     14          8           0       -0.415966   -1.394342    0.999162
     15          1           0       -1.135047   -1.550135    1.625731
 ---------------------------------------------------------------------

 SCF Done:  E(UHF) =  -417.970258089     A.U. after   29 cycles
 E2 =    -0.1266168050D+01 EUMP2 =    -0.41923642613947D+03
 CCSD(T)= -0.41935640707D+03

 The electronic state is 2-A.
 Alpha  occ. eigenvalues --  -20.61415 -20.60672 -20.55127 -11.41263 -11.30718
 Alpha  occ. eigenvalues --  -11.29844 -11.29368 -11.22135  -1.47404  -1.37647
 Alpha  occ. eigenvalues --   -1.37209  -1.09304  -1.04572  -0.90944  -0.87550
 Alpha  occ. eigenvalues --   -0.76668  -0.73365  -0.70830  -0.67242  -0.65781
 Alpha  occ. eigenvalues --   -0.64348  -0.60725  -0.56943  -0.55251  -0.54723
 Alpha  occ. eigenvalues --   -0.52399  -0.50535  -0.47850  -0.44927  -0.44654
 Alpha  occ. eigenvalues --   -0.42617
 Alpha virt. eigenvalues --    0.03195   0.04615   0.05461   0.06586   0.06925
 Alpha virt. eigenvalues --    0.08611   0.09425   0.10411   0.11089   0.12341
 Alpha virt. eigenvalues --    0.12761   0.12975   0.14035   0.15646   0.16304

  Beta  occ. eigenvalues --  -20.60615 -20.58777 -20.55534 -11.40891 -11.32924
  Beta  occ. eigenvalues --  -11.29874 -11.26390 -11.22133  -1.47482  -1.38242
  Beta  occ. eigenvalues --   -1.29007  -1.07007  -1.04454  -0.89563  -0.86210
  Beta  occ. eigenvalues --   -0.75796  -0.72326  -0.70404  -0.66866  -0.64506
  Beta  occ. eigenvalues --   -0.62694  -0.57045  -0.56098  -0.53845  -0.51224
  Beta  occ. eigenvalues --   -0.50829  -0.49545  -0.47519  -0.45717  -0.42787
  Beta virt. eigenvalues --    0.03210   0.03553   0.04680   0.06282   0.06760
  Beta virt. eigenvalues --    0.07158   0.08233   0.09917   0.11046   0.11554
  Beta virt. eigenvalues --    0.12567   0.12938   0.13782   0.14875   0.16078

 Mulliken charges and spin densities:
               1          2
     1  C   -0.120034   1.523224
     2  H    0.255255  -0.104372
     3  C    0.097884  -1.072580
     4  C    0.077931   0.172211
     5  O   -0.334549  -0.081700
     6  O   -0.109850  -0.001918
     7  C   -0.303673   0.002801
     8  C   -0.417600  -0.005118
     9  H    0.200640   0.005543
    10  H    0.174676   0.000464
    11  H    0.160239  -0.000459
    12  H    0.167793   0.000553
    13  H    0.121327   0.000004
    14  O   -0.236961   0.582370
    15  H    0.266922  -0.021024
 Sum of Mulliken charges =  -0.00000   1.00000

 Dipole moment (field-independent basis, Debye):
    X=             -0.3088    Y=             -4.3116    Z=             -1.8100  Tot=              4.6863
 Quadrupole moment (field-independent basis, Debye-Ang):
   XX=            -41.1130   YY=            -53.8517   ZZ=            -43.6925
   XY=              8.0393   XZ=              0.4967   YZ=             -1.4447

 74\PMP3-0=-419.2828978\MP4SDQ=-419.2935307\CCSD=-419.3007456\CCSD(T)=-
 Normal termination of Gaussian 16 at Wed May 14 20:07:27 2025.
