 Gaussian 16, Revision A.03,
 Gaussian 16:  ES64L-G16RevA.03 25-Dec-2016

 --------------------------
 # ccsd(t)/6-311++g(d,p) sp
 --------------------------

 -------------------
 Title Card Required
 -------------------
 Symbolic Z-matrix:
 Charge =  0 Multiplicity = 2

                         Standard orientation:
 ---------------------------------------------------------------------
 Center     Atomic      Atomic             Coordinates (Angstroms)
 Number     Number       Type             X           Y           Z
 ---------------------------------------------------------------------
      1          6           0       -2.108322   -1.043415   -0.849197
      2          1           0       -2.773674   -1.769325   -1.260964
      3          6           0       -1.232796   -0.415257   -0.194548
      4          6           0       -0.601164    0.935977    0.038945
      5          8           0       -1.214078    1.844274    0.512585
      6          8           0        0.693321    1.022480   -0.235469
      7          6           0        1.463893   -0.074121   -0.767031
      8          6           0        2.537215   -0.450415    0.229855
      9          1           0        0.820006   -0.923950   -0.990168
     10          1           0        1.891054    0.298316   -1.699281
     11          1           0        3.157389    0.415395    0.465781
     12          1           0        2.078390   -0.827779    1.143331
     13          1           0        3.173057   -1.230373   -0.194251
     14          8           0       -0.424386   -1.383798    0.993230
     15          1           0       -1.138034   -1.542542    1.624635
 ---------------------------------------------------------------------

 SCF Done:  E(UHF) =  -417.972896606     A.U. after   29 cycles
 E2 =    -0.1268600978D+01 EUMP2 =    -0.41924149758340D+03
 CCSD(T)= -0.41935951717D+03

 The electronic state is 2-A.
 Alpha  occ. eigenvalues --  -20.61054 -20.60681 -20.55189 -11.41232 -11.31369
 Alpha  occ. eigenvalues --  -11.29848 -11.29553 -11.22110  -1.47411  -1.37678
 Alpha  occ. eigenvalues --   -1.36856  -1.09454  -1.04559  -0.90983  -0.87569
 Alpha  occ. eigenvalues --   -0.76728  -0.73350  -0.70849  -0.67241  -0.65735
 Alpha  occ. eigenvalues --   -0.64064  -0.60569  -0.56945  -0.55199  -0.54539
 Alpha  occ. eigenvalues --   -0.52283  -0.50529  -0.47926  -0.44972  -0.44757
 Alpha  occ. eigenvalues --   -0.42464
 Alpha virt. eigenvalues --    0.03195   0.04617   0.05466   0.06585   0.06927
 Alpha virt. eigenvalues --    0.08599   0.09434   0.10403   0.11147   0.12326
 Alpha virt. eigenvalues --    0.12764   0.12987   0.14016   0.15646   0.16315

  Beta  occ. eigenvalues --  -20.60628 -20.58710 -20.55558 -11.40874 -11.33536
  Beta  occ. eigenvalues --  -11.29877 -11.26476 -11.22108  -1.47477  -1.38218
  Beta  occ. eigenvalues --   -1.29762  -1.06868  -1.04430  -0.89527  -0.86148
  Beta  occ. eigenvalues --   -0.75805  -0.72261  -0.70479  -0.66840  -0.64628
  Beta  occ. eigenvalues --   -0.62782  -0.57063  -0.56045  -0.53883  -0.51387
  Beta  occ. eigenvalues --   -0.51075  -0.49722  -0.47695  -0.45718  -0.42768
  Beta virt. eigenvalues --    0.03209   0.03527   0.04670   0.06249   0.06747
  Beta virt. eigenvalues --    0.07118   0.08219   0.09960   0.11018   0.11544
  Beta virt. eigenvalues --    0.12637   0.12931   0.13789   0.14878   0.16088

 Mulliken charges and spin densities:
               1          2
     1  C   -0.073248   1.569449
     2  H    0.254766  -0.104523
     3  C    0.059133  -1.053605
     4  C    0.079994   0.166689
     5  O   -0.334367  -0.073455
     6  O   -0.109353  -0.001688
     7  C   -0.299897   0.002522
     8  C   -0.419655  -0.004687
     9  H    0.200039   0.005835
    10  H    0.174697   0.000275
    11  H    0.160194  -0.000484
    12  H    0.169440   0.000350
    13  H    0.120803   0.000057
    14  O   -0.251708   0.511454
    15  H    0.269163  -0.018189
 Sum of Mulliken charges =  -0.00000   1.00000

 Dipole moment (field-independent basis, Debye):
    X=             -0.3522    Y=             -4.2845    Z=             -1.8490  Tot=              4.6797
 Quadrupole moment (field-independent basis, Debye-Ang):
   XX=            -41.0733   YY=            -53.9595   ZZ=            -43.7650
   XY=              8.0258   XZ=              0.4806   YZ=             -1.3222

 0=-419.2858086\MP4SDQ=-419.2976787\CCSD=-419.3039856\CCSD(T)=-419.3595
 Normal termination of Gaussian 16 at Wed May 14 18:18:21 2025.
