 Gaussian 16, Revision A.03,
 Gaussian 16:  ES64L-G16RevA.03 25-Dec-2016

 --------------------------
 # freq 6-311++g(d,p) m062x
 --------------------------

 -------------------
 Title Card Required
 -------------------
 Symbolic Z-matrix:
 Charge =  0 Multiplicity = 2

                         Standard orientation:
 ---------------------------------------------------------------------
 Center     Atomic      Atomic             Coordinates (Angstroms)
 Number     Number       Type             X           Y           Z
 ---------------------------------------------------------------------
      1          6           0       -2.100333   -1.073051   -0.855025
      2          1           0       -2.754636   -1.808618   -1.262475
      3          6           0       -1.335824   -0.268793   -0.383263
      4          6           0       -0.623474    0.939008    0.070386
      5          8           0       -1.227857    1.809496    0.622771
      6          8           0        0.672682    1.039911   -0.195766
      7          6           0        1.446890   -0.018755   -0.789531
      8          6           0        2.547324   -0.414737    0.171049
      9          1           0        0.806408   -0.867259   -1.030499
     10          1           0        1.851037    0.394757   -1.714920
     11          1           0        3.156224    0.452397    0.430094
     12          1           0        2.117336   -0.833863    1.080569
     13          1           0        3.188856   -1.166136   -0.293871
     14          8           0       -0.305988   -1.536100    1.058296
     15          1           0       -1.083421   -1.659772    1.627003
 ---------------------------------------------------------------------

 SCF Done:  E(UM062X) =  -420.199154455     A.U. after   24 cycles

 The electronic state is 2-A.
 Alpha  occ. eigenvalues --  -19.68226 -19.67794 -19.62422 -10.70667 -10.60634
 Alpha  occ. eigenvalues --  -10.59029 -10.58643 -10.53385  -1.24925  -1.16297
 Alpha  occ. eigenvalues --   -1.14108  -0.90408  -0.88078  -0.76414  -0.73765
 Alpha  occ. eigenvalues --   -0.64639  -0.62242  -0.59371  -0.56196  -0.55592
 Alpha  occ. eigenvalues --   -0.53008  -0.50356  -0.47638  -0.47566  -0.44993
 Alpha  occ. eigenvalues --   -0.43172  -0.41834  -0.39995  -0.37605  -0.36422
 Alpha  occ. eigenvalues --   -0.36016
 Alpha virt. eigenvalues --   -0.01468  -0.00745   0.00566   0.00979   0.02209
 Alpha virt. eigenvalues --    0.02437   0.03447   0.04748   0.05698   0.05968
 Alpha virt. eigenvalues --    0.07198   0.07432   0.08646   0.09455   0.10246

  Beta  occ. eigenvalues --  -19.67793 -19.66701 -19.62439 -10.70654 -10.60636
  Beta  occ. eigenvalues --  -10.59022 -10.58510 -10.53383  -1.24923  -1.16327
  Beta  occ. eigenvalues --   -1.07181  -0.89765  -0.88025  -0.76260  -0.73625
  Beta  occ. eigenvalues --   -0.64510  -0.61949  -0.58814  -0.56156  -0.53398
  Beta  occ. eigenvalues --   -0.51927  -0.47894  -0.47583  -0.44743  -0.42012
  Beta  occ. eigenvalues --   -0.40438  -0.39810  -0.39150  -0.37278  -0.35947
  Beta virt. eigenvalues --   -0.10373  -0.00887  -0.00576   0.00613   0.01301
  Beta virt. eigenvalues --    0.02351   0.02547   0.03550   0.04771   0.05823
  Beta virt. eigenvalues --    0.06125   0.07265   0.07521   0.08654   0.09498

 Mulliken charges and spin densities:
               1          2
     1  C   -1.210643   0.196829
     2  H    0.212457  -0.010950
     3  C    1.062782  -0.068683
     4  C    0.117410   0.039171
     5  O   -0.247717  -0.007802
     6  O   -0.024491  -0.001137
     7  C   -0.357720   0.009763
     8  C   -0.444724  -0.002741
     9  H    0.172936  -0.001310
    10  H    0.210280   0.001489
    11  H    0.178399  -0.000328
    12  H    0.175679   0.000100
    13  H    0.154247  -0.000762
    14  O   -0.253836   0.866026
    15  H    0.254940  -0.019665
 Sum of Mulliken charges =  -0.00000   1.00000

 Dipole moment (field-independent basis, Debye):
    X=             -0.0220    Y=             -3.9227    Z=             -1.5876  Tot=              4.2318
 Quadrupole moment (field-independent basis, Debye-Ang):
   XX=            -41.2043   YY=            -52.3223   ZZ=            -43.8885
   XY=              7.8934   XZ=              0.4283   YZ=             -2.0040

  Exact polarizability:  84.809   1.122  70.953   7.035   3.582  64.728
 Approx polarizability:  90.833   4.656  85.871   6.509  10.344  75.505

 ******    1 imaginary frequencies (negative Signs) ******

                      1                      2                      3
                      A                      A                      A
 Frequencies --    -20.9742                72.3278                88.8098
 Red. masses --      6.8749                 9.6170                 5.4348
 Frc consts  --      0.0018                 0.0296                 0.0253
 IR Inten    --      2.3253                 9.6358                 2.9633

                      4                      5                      6
                      A                      A                      A
 Frequencies --    118.9465               132.1715               178.9124
 Red. masses --      2.8773                 5.8701                 2.2859
 Frc consts  --      0.0240                 0.0604                 0.0431
 IR Inten    --      1.6367                10.5229                15.0575

                      7                      8                      9
                      A                      A                      A
 Frequencies --    209.9832               224.7699               260.7965
 Red. masses --      1.8922                 1.3214                 1.6884
 Frc consts  --      0.0492                 0.0393                 0.0677
 IR Inten    --     28.3121                 1.5228                41.3988

                     10                     11                     12
                      A                      A                      A
 Frequencies --    350.5726               399.4695               546.8624
 Red. masses --      2.9073                 3.3496                 5.5430
 Frc consts  --      0.2105                 0.3149                 0.9767
 IR Inten    --      0.5597                 7.2815                16.9460

                     13                     14                     15
                      A                      A                      A
 Frequencies --    603.6138               634.8089               715.8158
 Red. masses --      1.2878                 3.1868                 1.3421
 Frc consts  --      0.2765                 0.7567                 0.4052
 IR Inten    --     83.0994                10.4543                33.8317

                     16                     17                     18
                      A                      A                      A
 Frequencies --    745.1939               752.0893               764.2270
 Red. masses --      6.1402                 1.4313                 4.3373
 Frc consts  --      2.0090                 0.4770                 1.4925
 IR Inten    --     19.9864                31.0458                24.9225

                     19                     20                     21
                      A                      A                      A
 Frequencies --    818.8826               963.6773              1096.5744
 Red. masses --      1.1524                 2.1859                 3.9702
 Frc consts  --      0.4553                 1.1960                 2.8128
 IR Inten    --      7.4318                15.5071                53.4945

                     22                     23                     24
                      A                      A                      A
 Frequencies --   1140.5950              1179.3258              1284.4696
 Red. masses --      2.4577                 1.7844                 2.4901
 Frc consts  --      1.8838                 1.4622                 2.4206
 IR Inten    --     36.6805                48.3734               355.2676

                     25                     26                     27
                      A                      A                      A
 Frequencies --   1361.1186              1403.4982              1435.0327
 Red. masses --      1.4310                 1.2592                 1.3629
 Frc consts  --      1.5620                 1.4614                 1.6537
 IR Inten    --    159.7976                27.5291                13.2662

                     28                     29                     30
                      A                      A                      A
 Frequencies --   1488.4689              1503.4598              1530.4035
 Red. masses --      1.0378                 1.0475                 1.1002
 Frc consts  --      1.3547                 1.3950                 1.5182
 IR Inten    --      5.4270                 4.0004                 4.7370

                     31                     32                     33
                      A                      A                      A
 Frequencies --   1860.0462              2198.3434              3076.0386
 Red. masses --     12.9456                 5.9106                 1.0355
 Frc consts  --     26.3888                16.8296                 5.7728
 IR Inten    --    520.8305                66.5856                11.8935

                     34                     35                     36
                      A                      A                      A
 Frequencies --   3096.6883              3145.2400              3154.6394
 Red. masses --      1.0605                 1.1051                 1.1011
 Frc consts  --      5.9919                 6.4410                 6.4561
 IR Inten    --     20.3255                 4.3393                12.3337

                     37                     38                     39
                      A                      A                      A
 Frequencies --   3171.7682              3479.8083              3803.0637
 Red. masses --      1.1054                 1.1623                 1.0674
 Frc consts  --      6.5517                 8.2927                 9.0957
 IR Inten    --     15.9775                69.9828                44.3896

 - Thermochemistry -
 -------------------
 Temperature   298.150 Kelvin.  Pressure   1.00000 Atm.
 Atom     1 has atomic number  6 and mass  12.00000

 Molecular mass:   115.03952 amu.
 Principal axes and moments of inertia in atomic units:
                           1         2         3
     Eigenvalues --   702.084071089.526051413.78571
           X            0.99976   0.02202   0.00162
           Y           -0.02201   0.99974  -0.00556
           Z           -0.00174   0.00552   0.99998
 This molecule is an asymmetric top.
 Rotational symmetry number  1.
 Warning -- assumption of classical behavior for rotation
           may cause significant error
 Rotational temperatures (Kelvin)      0.12337     0.07950     0.06126
 Rotational constants (GHZ):           2.57055     1.65645     1.27653
    1 imaginary frequencies ignored.
 Zero-point vibrational energy     293028.3 (Joules/Mol)
                                   70.03545 (Kcal/Mol)
 Warning -- explicit consideration of  12 degrees of freedom as
           vibrations may cause significant error
 Vibrational temperatures:    104.06   127.78   171.14   190.17   257.41
          (Kelvin)            302.12   323.39   375.23   504.40   574.75
                              786.81   868.47   913.35  1029.90  1072.17
                             1082.09  1099.55  1178.19  1386.52  1577.73
                             1641.06  1696.79  1848.07  1958.35  2019.32
                             2064.69  2141.57  2163.14  2201.91  2676.19
                             3162.93  4425.73  4455.44  4525.30  4538.82
                             4563.47  5006.67  5471.76

 Zero-point correction=                           0.111609 (Hartree/Particle)
 Thermal correction to Energy=                    0.121272
 Thermal correction to Enthalpy=                  0.122216
 Thermal correction to Gibbs Free Energy=         0.076184
 Sum of electronic and zero-point Energies=           -420.087546
 Sum of electronic and thermal Energies=              -420.077883
 Sum of electronic and thermal Enthalpies=            -420.076939
 Sum of electronic and thermal Free Energies=         -420.122971

                     E (Thermal)             CV                S
                      KCal/Mol        Cal/Mol-Kelvin    Cal/Mol-Kelvin
 Total                   76.099             32.654             96.883
 Electronic               0.000              0.000              1.377
 Translational            0.889              2.981             40.136
 Rotational               0.889              2.981             28.471
 Vibrational             74.322             26.693             26.899
 Vibration     1          0.598              1.967              4.089
 Vibration     2          0.602              1.957              3.686
 Vibration     3          0.609              1.934              3.117
 Vibration     4          0.612              1.921              2.914
 Vibration     5          0.629              1.868              2.340
 Vibration     6          0.642              1.826              2.044
 Vibration     7          0.649              1.803              1.920
 Vibration     8          0.669              1.744              1.656
 Vibration     9          0.727              1.574              1.164
 Vibration    10          0.766              1.471              0.965
 Vibration    11          0.902              1.147              0.551
 Vibration    12          0.962              1.024              0.443

 Normal termination of Gaussian 16 at Fri Mar 28 08:25:15 2025.
