 Gaussian 16, Revision A.03,
 Gaussian 16:  ES64L-G16RevA.03 25-Dec-2016

 --------------------------
 # ccsd(t)/6-311++g(d,p) sp
 --------------------------

 -------------------
 Title Card Required
 -------------------
 Symbolic Z-matrix:
 Charge =  0 Multiplicity = 2

                         Standard orientation:
 ---------------------------------------------------------------------
 Center     Atomic      Atomic             Coordinates (Angstroms)
 Number     Number       Type             X           Y           Z
 ---------------------------------------------------------------------
      1          6           0       -2.099511   -1.077033   -0.859498
      2          1           0       -2.746162   -1.824721   -1.256767
      3          6           0       -1.349302   -0.249864   -0.409397
      4          6           0       -0.630199    0.941489    0.072087
      5          8           0       -1.230540    1.803046    0.643263
      6          8           0        0.667583    1.042723   -0.188253
      7          6           0        1.442538   -0.008723   -0.793283
      8          6           0        2.549203   -0.405997    0.159881
      9          1           0        0.803692   -0.858140   -1.035818
     10          1           0        1.840990    0.411298   -1.718272
     11          1           0        3.155755    0.462093    0.421205
     12          1           0        2.125568   -0.831874    1.069187
     13          1           0        3.191643   -1.152038   -0.312354
     14          8           0       -0.284057   -1.562254    1.068486
     15          1           0       -1.071750   -1.673966    1.626115
 ---------------------------------------------------------------------

 SCF Done:  E(UHF) =  -417.978650003     A.U. after   42 cycles
 E2 =    -0.1262917401D+01 EUMP2 =    -0.41924156740365D+03
 CCSD(T)= -0.41934884091D+03

 The electronic state is 2-A.
 Alpha  occ. eigenvalues --  -20.64390 -20.60655 -20.54967 -11.41473 -11.29870
 Alpha  occ. eigenvalues --  -11.27648 -11.26719 -11.22373  -1.47296  -1.40091
 Alpha  occ. eigenvalues --   -1.37549  -1.07867  -1.04623  -0.90697  -0.87458
 Alpha  occ. eigenvalues --   -0.76044  -0.73323  -0.71009  -0.68169  -0.67517
 Alpha  occ. eigenvalues --   -0.66322  -0.61274  -0.57217  -0.56896  -0.55796
 Alpha  occ. eigenvalues --   -0.52986  -0.50606  -0.47550  -0.45387  -0.43201
 Alpha  occ. eigenvalues --   -0.42667
 Alpha virt. eigenvalues --    0.03185   0.04619   0.05313   0.06594   0.06890
 Alpha virt. eigenvalues --    0.08534   0.09146   0.10130   0.10677   0.12513
 Alpha virt. eigenvalues --    0.12820   0.13128   0.14424   0.15747   0.16098

  Beta  occ. eigenvalues --  -20.60612 -20.60326 -20.55370 -11.41208 -11.29885
  Beta  occ. eigenvalues --  -11.27845 -11.26302 -11.22370  -1.47398  -1.38142
  Beta  occ. eigenvalues --   -1.24972  -1.07509  -1.04569  -0.90166  -0.87092
  Beta  occ. eigenvalues --   -0.75820  -0.72825  -0.69791  -0.67144  -0.64669
  Beta  occ. eigenvalues --   -0.61656  -0.57014  -0.56514  -0.53797  -0.51727
  Beta  occ. eigenvalues --   -0.50601  -0.48554  -0.46187  -0.43729  -0.42573
  Beta virt. eigenvalues --    0.03228   0.04110   0.04804   0.06577   0.06828
  Beta virt. eigenvalues --    0.08061   0.08432   0.09343   0.10723   0.11498
  Beta virt. eigenvalues --    0.12371   0.13101   0.13407   0.14779   0.15922

 Mulliken charges and spin densities:
               1          2
     1  C   -1.924511   0.591199
     2  H    0.225787  -0.046382
     3  C    1.742560  -0.564101
     4  C    0.281537   0.171054
     5  O   -0.339986  -0.084030
     6  O   -0.111262  -0.002278
     7  C   -0.329814   0.003035
     8  C   -0.409238  -0.002420
     9  H    0.184360  -0.000509
    10  H    0.171294   0.001191
    11  H    0.160899   0.000028
    12  H    0.150370   0.001405
    13  H    0.129355  -0.000477
    14  O   -0.190136   0.969242
    15  H    0.258786  -0.036956
 Sum of Mulliken charges =  -0.00000   1.00000

 Dipole moment (field-independent basis, Debye):
    X=              0.1762    Y=             -4.5818    Z=             -1.3709  Tot=              4.7857
 Quadrupole moment (field-independent basis, Debye-Ang):
   XX=            -42.2488   YY=            -52.3474   ZZ=            -43.6361
   XY=              8.4295   XZ=              0.1519   YZ=             -2.9912

 P3-0=-419.2751211\MP4SDQ=-419.294159\CCSD=-419.295448\CCSD(T)=-419.348
 Normal termination of Gaussian 16 at Wed May 14 14:12:51 2025.
