 Gaussian 16, Revision A.03,
 Gaussian 16:  ES64L-G16RevA.03 25-Dec-2016

 --------------------------
 # ccsd(t)/6-311++g(d,p) sp
 --------------------------

 -------------------
 Title Card Required
 -------------------
 Symbolic Z-matrix:
 Charge =  0 Multiplicity = 2

                         Standard orientation:
 ---------------------------------------------------------------------
 Center     Atomic      Atomic             Coordinates (Angstroms)
 Number     Number       Type             X           Y           Z
 ---------------------------------------------------------------------
      1          6           0       -2.100034   -1.075034   -0.857108
      2          1           0       -2.750681   -1.816485   -1.259596
      3          6           0       -1.342714   -0.259098   -0.396460
      4          6           0       -0.626691    0.940160    0.071336
      5          8           0       -1.229100    1.806358    0.632910
      6          8           0        0.670267    1.041308   -0.192058
      7          6           0        1.444820   -0.013799   -0.791411
      8          6           0        2.548247   -0.410590    0.165553
      9          1           0        0.805086   -0.862668   -1.033306
     10          1           0        1.846272    0.402984   -1.716538
     11          1           0        3.156019    0.456961    0.425839
     12          1           0        2.121332   -0.833088    1.074933
     13          1           0        3.190226   -1.159352   -0.302986
     14          8           0       -0.295191   -1.549052    1.063367
     15          1           0       -1.077836   -1.667095    1.626448
 ---------------------------------------------------------------------

 SCF Done:  E(UHF) =  -417.977406503     A.U. after   41 cycles
 E2 =    -0.1262415440D+01 EUMP2 =    -0.41923982194327D+03
 CCSD(T)= -0.41934834775D+03

 The electronic state is 2-A.
 Alpha  occ. eigenvalues --  -20.64313 -20.60647 -20.54941 -11.41452 -11.29863
 Alpha  occ. eigenvalues --  -11.27665 -11.26724 -11.22373  -1.47291  -1.40048
 Alpha  occ. eigenvalues --   -1.37530  -1.07900  -1.04623  -0.90709  -0.87461
 Alpha  occ. eigenvalues --   -0.76048  -0.73321  -0.71030  -0.68076  -0.67509
 Alpha  occ. eigenvalues --   -0.66290  -0.61282  -0.57183  -0.56867  -0.55754
 Alpha  occ. eigenvalues --   -0.52975  -0.50597  -0.47505  -0.45340  -0.43230
 Alpha  occ. eigenvalues --   -0.42675
 Alpha virt. eigenvalues --    0.03191   0.04615   0.05314   0.06595   0.06889
 Alpha virt. eigenvalues --    0.08553   0.09176   0.10165   0.10688   0.12521
 Alpha virt. eigenvalues --    0.12817   0.13102   0.14389   0.15729   0.16137

  Beta  occ. eigenvalues --  -20.60600 -20.60269 -20.55367 -11.41168 -11.29879
  Beta  occ. eigenvalues --  -11.27942 -11.26214 -11.22369  -1.47398  -1.38158
  Beta  occ. eigenvalues --   -1.25072  -1.07510  -1.04565  -0.90133  -0.87055
  Beta  occ. eigenvalues --   -0.75800  -0.72781  -0.69826  -0.67129  -0.64638
  Beta  occ. eigenvalues --   -0.61723  -0.57007  -0.56523  -0.53809  -0.51710
  Beta  occ. eigenvalues --   -0.50588  -0.48586  -0.46206  -0.43815  -0.42566
  Beta virt. eigenvalues --    0.03232   0.04087   0.04800   0.06569   0.06824
  Beta virt. eigenvalues --    0.08032   0.08415   0.09380   0.10804   0.11504
  Beta virt. eigenvalues --    0.12368   0.13086   0.13441   0.14776   0.15915

 Mulliken charges and spin densities:
               1          2
     1  C   -1.826014   0.653576
     2  H    0.228479  -0.050493
     3  C    1.628393  -0.614285
     4  C    0.289014   0.175453
     5  O   -0.339185  -0.088786
     6  O   -0.110894  -0.002461
     7  C   -0.331097   0.004045
     8  C   -0.408041  -0.003118
     9  H    0.186172  -0.000445
    10  H    0.171418   0.001259
    11  H    0.160981  -0.000001
    12  H    0.150651   0.001544
    13  H    0.129005  -0.000491
    14  O   -0.187447   0.960948
    15  H    0.258564  -0.036746
 Sum of Mulliken charges =  -0.00000   1.00000

 Dipole moment (field-independent basis, Debye):
    X=              0.1695    Y=             -4.5871    Z=             -1.3628  Tot=              4.7883
 Quadrupole moment (field-independent basis, Debye-Ang):
   XX=            -42.1831   YY=            -52.4197   ZZ=            -43.5835
   XY=              8.3887   XZ=              0.1674   YZ=             -2.9315

 PMP3-0=-419.2744599\MP4SDQ=-419.2929416\CCSD=-419.2948051\CCSD(T)=-419
 Normal termination of Gaussian 16 at Wed May 14 15:53:23 2025.
