 Gaussian 16, Revision A.03,
 Gaussian 16:  ES64L-G16RevA.03 25-Dec-2016

 --------------------------
 # ccsd(t)/6-311++g(d,p) sp
 --------------------------

 -------------------
 Title Card Required
 -------------------
 Symbolic Z-matrix:
 Charge =  0 Multiplicity = 2

                         Standard orientation:
 ---------------------------------------------------------------------
 Center     Atomic      Atomic             Coordinates (Angstroms)
 Number     Number       Type             X           Y           Z
 ---------------------------------------------------------------------
      1          6           0       -2.107327   -1.049951   -0.847572
      2          1           0       -2.776475   -1.766079   -1.268472
      3          6           0       -1.248824   -0.392162   -0.224352
      4          6           0       -0.602571    0.936907    0.044364
      5          8           0       -1.215846    1.840065    0.526891
      6          8           0        0.690751    1.024723   -0.230746
      7          6           0        1.461797   -0.067478   -0.770359
      8          6           0        2.538624   -0.446345    0.221844
      9          1           0        0.817937   -0.917114   -0.994732
     10          1           0        1.885652    0.310585   -1.701881
     11          1           0        3.157523    0.419613    0.460588
     12          1           0        2.083046   -0.829239    1.134677
     13          1           0        3.175047   -1.222790   -0.207770
     14          8           0       -0.407543   -1.405098    1.004781
     15          1           0       -1.131829   -1.558330    1.626634
 ---------------------------------------------------------------------

 SCF Done:  E(UHF) =  -417.968420506     A.U. after   29 cycles
 E2 =    -0.1263858842D+01 EUMP2 =    -0.41923227934748D+03
 CCSD(T)= -0.41935368250D+03

 The electronic state is 2-A.
 Alpha  occ. eigenvalues --  -20.61789 -20.60659 -20.55063 -11.41282 -11.30070
 Alpha  occ. eigenvalues --  -11.29841 -11.29150 -11.22165  -1.47391  -1.37638
 Alpha  occ. eigenvalues --   -1.37571  -1.09131  -1.04585  -0.90899  -0.87529
 Alpha  occ. eigenvalues --   -0.76593  -0.73364  -0.70840  -0.67257  -0.65844
 Alpha  occ. eigenvalues --   -0.64694  -0.60869  -0.56945  -0.55312  -0.54941
 Alpha  occ. eigenvalues --   -0.52505  -0.50540  -0.47758  -0.44895  -0.44515
 Alpha  occ. eigenvalues --   -0.42733
 Alpha virt. eigenvalues --    0.03197   0.04612   0.05448   0.06586   0.06922
 Alpha virt. eigenvalues --    0.08621   0.09418   0.10420   0.11035   0.12363
 Alpha virt. eigenvalues --    0.12761   0.12970   0.14058   0.15651   0.16295

  Beta  occ. eigenvalues --  -20.60599 -20.58894 -20.55503 -11.40898 -11.32280
  Beta  occ. eigenvalues --  -11.29871 -11.26286 -11.22163  -1.47479  -1.38254
  Beta  occ. eigenvalues --   -1.28363  -1.07117  -1.04474  -0.89598  -0.86269
  Beta  occ. eigenvalues --   -0.75780  -0.72364  -0.70343  -0.66893  -0.64435
  Beta  occ. eigenvalues --   -0.62611  -0.57032  -0.56154  -0.53829  -0.51219
  Beta  occ. eigenvalues --   -0.50627  -0.49384  -0.47273  -0.45687  -0.42780
  Beta virt. eigenvalues --    0.03216   0.03596   0.04691   0.06317   0.06771
  Beta virt. eigenvalues --    0.07208   0.08250   0.09872   0.11078   0.11569
  Beta virt. eigenvalues --    0.12508   0.12945   0.13772   0.14875   0.16068

 Mulliken charges and spin densities:
               1          2
     1  C   -0.179146   1.471270
     2  H    0.255151  -0.103137
     3  C    0.147108  -1.080084
     4  C    0.078892   0.176750
     5  O   -0.334741  -0.088927
     6  O   -0.110208  -0.002155
     7  C   -0.307761   0.003130
     8  C   -0.415352  -0.005465
     9  H    0.200999   0.005177
    10  H    0.174592   0.000645
    11  H    0.160329  -0.000435
    12  H    0.165911   0.000775
    13  H    0.121918  -0.000053
    14  O   -0.222688   0.646145
    15  H    0.264996  -0.023636
 Sum of Mulliken charges =  -0.00000   1.00000

 Dipole moment (field-independent basis, Debye):
    X=             -0.2545    Y=             -4.3469    Z=             -1.7556  Tot=              4.6949
 Quadrupole moment (field-independent basis, Debye-Ang):
   XX=            -41.1855   YY=            -53.7272   ZZ=            -43.6205
   XY=              8.0498   XZ=              0.4909   YZ=             -1.5894

 PMP3-0=-419.2802729\MP4SDQ=-419.2900768\CCSD=-419.2979595\CCSD(T)=-419
 Normal termination of Gaussian 16 at Wed May 14 04:35:13 2025.
