 Gaussian 16, Revision A.03,
 Gaussian 16:  ES64L-G16RevA.03 25-Dec-2016

 --------------------------
 # freq 6-311++g(d,p) m062x
 --------------------------

 -------------------
 Title Card Required
 -------------------
 Symbolic Z-matrix:
 Charge =  0 Multiplicity = 2

                         Standard orientation:
 ---------------------------------------------------------------------
 Center     Atomic      Atomic             Coordinates (Angstroms)
 Number     Number       Type             X           Y           Z
 ---------------------------------------------------------------------
      1          6           0       -2.097364   -1.081069   -0.865513
      2          1           0       -2.735033   -1.841758   -1.252330
      3          6           0       -1.361396   -0.232925   -0.434223
      4          6           0       -0.638151    0.944477    0.073307
      5          8           0       -1.234371    1.795680    0.664521
      6          8           0        0.661268    1.045705   -0.180315
      7          6           0        1.437152    0.001885   -0.796963
      8          6           0        2.551233   -0.395088    0.147905
      9          1           0        0.800594   -0.849270   -1.039753
     10          1           0        1.828492    0.428188   -1.722184
     11          1           0        3.154964    0.474572    0.410528
     12          1           0        2.135021   -0.827698    1.057397
     13          1           0        3.194673   -1.135384   -0.331946
     14          8           0       -0.260643   -1.589649    1.078863
     15          1           0       -1.057591   -1.686221    1.626658
 ---------------------------------------------------------------------

 SCF Done:  E(UM062X) =  -420.201555207     A.U. after   26 cycles

 The electronic state is 2-A.
 Alpha  occ. eigenvalues --  -19.68934 -19.67757 -19.62403 -10.70657 -10.60637
 Alpha  occ. eigenvalues --  -10.58597 -10.58305 -10.53400  -1.24872  -1.16243
 Alpha  occ. eigenvalues --   -1.14622  -0.90134  -0.88061  -0.76323  -0.73704
 Alpha  occ. eigenvalues --   -0.64558  -0.62081  -0.59365  -0.56206  -0.56051
 Alpha  occ. eigenvalues --   -0.52763  -0.50615  -0.47738  -0.47566  -0.45075
 Alpha  occ. eigenvalues --   -0.43599  -0.41856  -0.39907  -0.37764  -0.36743
 Alpha  occ. eigenvalues --   -0.36120
 Alpha virt. eigenvalues --   -0.01683  -0.00759   0.00569   0.00968   0.02223
 Alpha virt. eigenvalues --    0.02454   0.03500   0.04741   0.05703   0.05997
 Alpha virt. eigenvalues --    0.07235   0.07473   0.08715   0.09489   0.10298

  Beta  occ. eigenvalues --  -19.67757 -19.67366 -19.62415 -10.70649 -10.60638
  Beta  occ. eigenvalues --  -10.58564 -10.58231 -10.53398  -1.24872  -1.16264
  Beta  occ. eigenvalues --   -1.07128  -0.89690  -0.88015  -0.76220  -0.73608
  Beta  occ. eigenvalues --   -0.64478  -0.61871  -0.58781  -0.56127  -0.53762
  Beta  occ. eigenvalues --   -0.51770  -0.47918  -0.47560  -0.44725  -0.42027
  Beta  occ. eigenvalues --   -0.40476  -0.39920  -0.39081  -0.37233  -0.35976
  Beta virt. eigenvalues --   -0.10254  -0.01265  -0.00624   0.00613   0.01319
  Beta virt. eigenvalues --    0.02336   0.02552   0.03572   0.04795   0.05843
  Beta virt. eigenvalues --    0.06153   0.07316   0.07576   0.08769   0.09531

 Mulliken charges and spin densities:
               1          2
     1  C   -1.445686   0.148866
     2  H    0.202083  -0.006812
     3  C    1.364556  -0.066435
     4  C    0.065021   0.033515
     5  O   -0.249145  -0.006088
     6  O   -0.025813  -0.001416
     7  C   -0.346529   0.006771
     8  C   -0.451389  -0.001803
     9  H    0.164252  -0.001792
    10  H    0.210356   0.001399
    11  H    0.178575  -0.000234
    12  H    0.174336  -0.000226
    13  H    0.154963  -0.000809
    14  O   -0.254252   0.914908
    15  H    0.258673  -0.019844
 Sum of Mulliken charges =  -0.00000   1.00000

 Dipole moment (field-independent basis, Debye):
    X=              0.0515    Y=             -3.9504    Z=             -1.5308  Tot=              4.2369
 Quadrupole moment (field-independent basis, Debye-Ang):
   XX=            -41.6348   YY=            -51.9820   ZZ=            -44.0081
   XY=              7.9741   XZ=              0.2620   YZ=             -2.3945

  Exact polarizability:  83.209   2.403  70.690   4.712   5.246  62.195
 Approx polarizability:  88.861   6.038  86.617   3.987  11.688  73.243

                      1                      2                      3
                      A                      A                      A
 Frequencies --     51.4731                85.2251               115.1356
 Red. masses --      7.4630                 5.5889                 3.4536
 Frc consts  --      0.0116                 0.0239                 0.0270
 IR Inten    --      3.0709                 1.0089                 3.2796

                      4                      5                      6
                      A                      A                      A
 Frequencies --    119.4535               168.5280               202.8407
 Red. masses --      3.8030                 2.5186                 3.2050
 Frc consts  --      0.0320                 0.0421                 0.0777
 IR Inten    --      4.5967                10.6647                 9.0299

                      7                      8                      9
                      A                      A                      A
 Frequencies --    221.8182               226.8648               285.5159
 Red. masses --      1.5249                 1.4329                 2.8806
 Frc consts  --      0.0442                 0.0434                 0.1384
 IR Inten    --     37.5889                16.4230                18.0588

                     10                     11                     12
                      A                      A                      A
 Frequencies --    345.5767               398.9511               526.5638
 Red. masses --      2.9406                 3.3553                 1.1424
 Frc consts  --      0.2069                 0.3146                 0.1866
 IR Inten    --      0.8466                 6.4723                91.5724

                     13                     14                     15
                      A                      A                      A
 Frequencies --    547.5667               632.1288               724.8407
 Red. masses --      4.4270                 5.7948                 1.3447
 Frc consts  --      0.7821                 1.3643                 0.4163
 IR Inten    --     32.6327                 2.1637                36.6255

                     16                     17                     18
                      A                      A                      A
 Frequencies --    750.7370               762.0223               766.6101
 Red. masses --      5.9749                 2.4557                 1.9315
 Frc consts  --      1.9841                 0.8401                 0.6688
 IR Inten    --     14.6106                 3.1962                51.5653

                     19                     20                     21
                      A                      A                      A
 Frequencies --    818.2056               964.1751              1096.2851
 Red. masses --      1.1544                 2.1786                 3.9268
 Frc consts  --      0.4553                 1.1933                 2.7806
 IR Inten    --      7.4323                15.0888                50.3798

                     22                     23                     24
                      A                      A                      A
 Frequencies --   1141.3069              1178.8604              1285.7413
 Red. masses --      2.4919                 1.7768                 2.4769
 Frc consts  --      1.9124                 1.4548                 2.4125
 IR Inten    --     37.9305                48.3311               368.5033

                     25                     26                     27
                      A                      A                      A
 Frequencies --   1359.8360              1403.1378              1434.8999
 Red. masses --      1.4434                 1.2573                 1.3623
 Frc consts  --      1.5725                 1.4585                 1.6526
 IR Inten    --    167.0256                27.3197                11.4779

                     28                     29                     30
                      A                      A                      A
 Frequencies --   1488.4074              1503.2502              1528.4011
 Red. masses --      1.0379                 1.0475                 1.1001
 Frc consts  --      1.3547                 1.3946                 1.5141
 IR Inten    --      5.3208                 3.5868                 4.2230

                     31                     32                     33
                      A                      A                      A
 Frequencies --   1856.4598              2223.0936              3076.2387
 Red. masses --     12.9521                 5.8233                 1.0356
 Frc consts  --     26.3004                16.9566                 5.7739
 IR Inten    --    510.0032                54.0156                12.0793

                     34                     35                     36
                      A                      A                      A
 Frequencies --   3094.8964              3144.2231              3154.3532
 Red. masses --      1.0603                 1.1054                 1.1012
 Frc consts  --      5.9836                 6.4385                 6.4555
 IR Inten    --     20.4048                 4.2633                12.8723

                     37                     38                     39
                      A                      A                      A
 Frequencies --   3171.6933              3482.6141              3795.3337
 Red. masses --      1.1051                 1.1658                 1.0673
 Frc consts  --      6.5501                 8.3308                 9.0578
 IR Inten    --     15.7093                69.0412                38.8310

 - Thermochemistry -
 -------------------
 Temperature   298.150 Kelvin.  Pressure   1.00000 Atm.
 Atom     1 has atomic number  6 and mass  12.00000

 Molecular mass:   115.03952 amu.
 Principal axes and moments of inertia in atomic units:
                           1         2         3
     Eigenvalues --   717.616041098.376971422.32987
           X            0.99969   0.02494   0.00058
           Y           -0.02493   0.99967  -0.00588
           Z           -0.00073   0.00587   0.99998
 This molecule is an asymmetric top.
 Rotational symmetry number  1.
 Warning -- assumption of classical behavior for rotation
           may cause significant error
 Rotational temperatures (Kelvin)      0.12070     0.07886     0.06090
 Rotational constants (GHZ):           2.51491     1.64310     1.26886
 Zero-point vibrational energy     293882.2 (Joules/Mol)
                                   70.23953 (Kcal/Mol)
 Warning -- explicit consideration of  13 degrees of freedom as
           vibrations may cause significant error
 Vibrational temperatures:     74.06   122.62   165.65   171.87   242.47
          (Kelvin)            291.84   319.15   326.41   410.79   497.21
                              574.00   757.61   787.83   909.49  1042.88
                             1080.14  1096.38  1102.98  1177.22  1387.23
                             1577.31  1642.09  1696.12  1849.89  1956.50
                             2018.80  2064.50  2141.49  2162.84  2199.03
                             2671.03  3198.54  4426.02  4452.87  4523.84
                             4538.41  4563.36  5010.70  5460.64

 Zero-point correction=                           0.111934 (Hartree/Particle)
 Thermal correction to Energy=                    0.122241
 Thermal correction to Enthalpy=                  0.123186
 Thermal correction to Gibbs Free Energy=         0.075659
 Sum of electronic and zero-point Energies=           -420.089621
 Sum of electronic and thermal Energies=              -420.079314
 Sum of electronic and thermal Enthalpies=            -420.078370
 Sum of electronic and thermal Free Energies=         -420.125896

                     E (Thermal)             CV                S
                      KCal/Mol        Cal/Mol-Kelvin    Cal/Mol-Kelvin
 Total                   76.708             34.600            100.028
 Electronic               0.000              0.000              1.377
 Translational            0.889              2.981             40.136
 Rotational               0.889              2.981             28.507
 Vibrational             74.930             28.639             30.007
 Vibration     1          0.596              1.977              4.760
 Vibration     2          0.601              1.959              3.767
 Vibration     3          0.608              1.937              3.180
 Vibration     4          0.609              1.933              3.109
 Vibration     5          0.625              1.881              2.452
 Vibration     6          0.639              1.836              2.107
 Vibration     7          0.648              1.808              1.944
 Vibration     8          0.651              1.800              1.904
 Vibration     9          0.683              1.701              1.500
 Vibration    10          0.724              1.584              1.186
 Vibration    11          0.765              1.472              0.967
 Vibration    12          0.882              1.191              0.595
 Vibration    13          0.903              1.145              0.549

 Normal termination of Gaussian 16 at Fri Mar 28 09:16:46 2025.
