 Gaussian 16, Revision A.03,
 Gaussian 16:  ES64L-G16RevA.03 25-Dec-2016

 --------------------------
 # freq 6-311++g(d,p) m062x
 --------------------------

 -------------------
 Title Card Required
 -------------------
 Symbolic Z-matrix:
 Charge =  0 Multiplicity = 2

                         Standard orientation:
 ---------------------------------------------------------------------
 Center     Atomic      Atomic             Coordinates (Angstroms)
 Number     Number       Type             X           Y           Z
 ---------------------------------------------------------------------
      1          6           0       -2.108205   -1.035445   -0.851640
      2          1           0       -2.766997   -1.776453   -1.249562
      3          6           0       -1.217390   -0.438189   -0.165354
      4          6           0       -0.600366    0.934168    0.034182
      5          8           0       -1.212761    1.847639    0.499186
      6          8           0        0.695669    1.020555   -0.239492
      7          6           0        1.466037   -0.079686   -0.763622
      8          6           0        2.535837   -0.453953    0.237792
      9          1           0        0.822331   -0.929595   -0.986660
     10          1           0        1.896742    0.287715   -1.696212
     11          1           0        3.157023    0.411660    0.471699
     12          1           0        2.074044   -0.826445    1.151765
     13          1           0        3.171367   -1.236960   -0.181153
     14          8           0       -0.441242   -1.363426    0.980343
     15          1           0       -1.143320   -1.529434    1.621687
 ---------------------------------------------------------------------

 SCF Done:  E(UM062X) =  -420.218575062     A.U. after   18 cycles

 The electronic state is 2-A.
 Alpha  occ. eigenvalues --  -19.67834 -19.65701 -19.62644 -10.70295 -10.64340
 Alpha  occ. eigenvalues --  -10.60641 -10.60386 -10.53216  -1.24988  -1.16337
 Alpha  occ. eigenvalues --   -1.13321  -0.91087  -0.88046  -0.76497  -0.73826
 Alpha  occ. eigenvalues --   -0.65055  -0.62182  -0.60196  -0.56445  -0.55362
 Alpha  occ. eigenvalues --   -0.53369  -0.49644  -0.47680  -0.46859  -0.44968
 Alpha  occ. eigenvalues --   -0.42101  -0.41368  -0.39913  -0.37497  -0.36366
 Alpha  occ. eigenvalues --   -0.31972
 Alpha virt. eigenvalues --   -0.00774  -0.00456   0.00560   0.00739   0.02334
 Alpha virt. eigenvalues --    0.02752   0.03453   0.04701   0.05463   0.05879
 Alpha virt. eigenvalues --    0.07340   0.07392   0.08689   0.09346   0.09852

  Beta  occ. eigenvalues --  -19.67823 -19.65211 -19.62651 -10.70244 -10.64490
  Beta  occ. eigenvalues --  -10.60645 -10.59717 -10.53215  -1.24939  -1.16333
  Beta  occ. eigenvalues --   -1.11609  -0.89015  -0.87833  -0.75803  -0.73008
  Beta  occ. eigenvalues --   -0.64532  -0.61413  -0.59549  -0.56120  -0.54717
  Beta  occ. eigenvalues --   -0.53101  -0.48032  -0.47260  -0.45590  -0.44806
  Beta  occ. eigenvalues --   -0.41934  -0.40305  -0.39039  -0.37504  -0.35053
  Beta virt. eigenvalues --   -0.09174  -0.00766  -0.00080   0.00709   0.01408
  Beta virt. eigenvalues --    0.02404   0.02876   0.03743   0.04649   0.05729
  Beta virt. eigenvalues --    0.05943   0.07233   0.07337   0.08541   0.09376

 Mulliken charges and spin densities:
               1          2
     1  C   -0.004573   1.003996
     2  H    0.229628  -0.029772
     3  C   -0.059163  -0.259625
     4  C    0.008530   0.047463
     5  O   -0.248647  -0.000391
     6  O   -0.024896   0.002944
     7  C   -0.346827   0.007897
     8  C   -0.450878  -0.003445
     9  H    0.191669   0.004802
    10  H    0.210664   0.000009
    11  H    0.178162  -0.000340
    12  H    0.186983   0.000218
    13  H    0.148002   0.000126
    14  O   -0.290983   0.224150
    15  H    0.272330   0.001968
 Sum of Mulliken charges =  -0.00000   1.00000

 Dipole moment (field-independent basis, Debye):
    X=             -0.2694    Y=             -3.8063    Z=             -1.7230  Tot=              4.1868
 Quadrupole moment (field-independent basis, Debye-Ang):
   XX=            -40.9736   YY=            -53.3722   ZZ=            -44.1813
   XY=              7.4547   XZ=              0.2981   YZ=             -0.9131

  Exact polarizability:  83.135   0.266  67.879   6.215   3.261  62.641
 Approx polarizability:  89.645  -0.967  80.127   7.736   5.713  77.140

 ******    2 imaginary frequencies (negative Signs) ******

                      1                      2                      3
                      A                      A                      A
 Frequencies --   -392.7304               -28.6180                87.7994
 Red. masses --      3.2671                 1.1955                 5.0691
 Frc consts  --      0.2969                 0.0006                 0.0230
 IR Inten    --    121.0180                60.4138                 1.1194

                      4                      5                      6
                      A                      A                      A
 Frequencies --    107.8176               142.0165               207.5313
 Red. masses --      2.6118                 4.4408                 1.4073
 Frc consts  --      0.0179                 0.0528                 0.0357
 IR Inten    --      0.1855                13.3117                18.1947

                      7                      8                      9
                      A                      A                      A
 Frequencies --    223.8887               263.7709               269.6005
 Red. masses --      1.2516                 3.3671                 4.2954
 Frc consts  --      0.0370                 0.1380                 0.1839
 IR Inten    --      8.5711                 2.1686                 1.1208

                     10                     11                     12
                      A                      A                      A
 Frequencies --    357.4178               398.8510               424.1708
 Red. masses --      5.7543                 3.6647                 3.6906
 Frc consts  --      0.4331                 0.3435                 0.3912
 IR Inten    --      0.8395                 3.2536                 6.5647

                     13                     14                     15
                      A                      A                      A
 Frequencies --    573.3218               649.3686               706.4938
 Red. masses --      5.9517                 3.9354                 1.4188
 Frc consts  --      1.1526                 0.9777                 0.4172
 IR Inten    --     26.0051                 3.5895                39.3077

                     16                     17                     18
                      A                      A                      A
 Frequencies --    755.4548               768.8247               815.6388
 Red. masses --      5.4414                 7.8711                 1.1563
 Frc consts  --      1.8297                 2.7412                 0.4532
 IR Inten    --      2.7217                 7.5208                 8.0276

                     19                     20                     21
                      A                      A                      A
 Frequencies --    959.7957              1086.5046              1098.4118
 Red. masses --      2.1879                 2.0945                 1.6414
 Frc consts  --      1.1875                 1.4568                 1.1668
 IR Inten    --     15.7009                38.5700                71.6695

                     22                     23                     24
                      A                      A                      A
 Frequencies --   1139.9243              1178.4328              1276.8275
 Red. masses --      2.3011                 1.8107                 2.5477
 Frc consts  --      1.7617                 1.4816                 2.4471
 IR Inten    --     29.2647                56.7708               342.7117

                     25                     26                     27
                      A                      A                      A
 Frequencies --   1358.9861              1400.9710              1432.2916
 Red. masses --      1.3996                 1.2563                 1.3672
 Frc consts  --      1.5230                 1.4528                 1.6526
 IR Inten    --    147.8974                22.0680                14.4905

                     28                     29                     30
                      A                      A                      A
 Frequencies --   1489.3602              1504.2780              1534.6368
 Red. masses --      1.0380                 1.0452                 1.0973
 Frc consts  --      1.3565                 1.3935                 1.5225
 IR Inten    --      5.3965                 4.0934                 3.9600

                     31                     32                     33
                      A                      A                      A
 Frequencies --   1789.6585              1869.3827              3074.8671
 Red. masses --      7.1324                12.8127                 1.0355
 Frc consts  --     13.4593                26.3807                 5.7686
 IR Inten    --     21.1585               497.7309                13.1236

                     34                     35                     36
                      A                      A                      A
 Frequencies --   3100.1696              3146.4106              3156.4791
 Red. masses --      1.0620                 1.1038                 1.1007
 Frc consts  --      6.0140                 6.4383                 6.4611
 IR Inten    --     21.4691                 6.9682                10.8918

                     37                     38                     39
                      A                      A                      A
 Frequencies --   3174.2485              3421.3193              3863.7674
 Red. masses --      1.1057                 1.1219                 1.0676
 Frc consts  --      6.5638                 7.7371                 9.3903
 IR Inten    --     13.0628                74.1483                73.2692

 - Thermochemistry -
 -------------------
 Temperature   298.150 Kelvin.  Pressure   1.00000 Atm.
 Atom     1 has atomic number  6 and mass  12.00000

 Molecular mass:   115.03952 amu.
 Principal axes and moments of inertia in atomic units:
                           1         2         3
     Eigenvalues --   658.761091060.283091385.61139
           X            0.99987   0.01552   0.00396
           Y           -0.01551   0.99987  -0.00348
           Z           -0.00401   0.00342   0.99999
 This molecule is an asymmetric top.
 Rotational symmetry number  1.
 Warning -- assumption of classical behavior for rotation
           may cause significant error
 Rotational temperatures (Kelvin)      0.13148     0.08169     0.06251
 Rotational constants (GHZ):           2.73960     1.70213     1.30249
    2 imaginary frequencies ignored.
 Zero-point vibrational energy     291940.8 (Joules/Mol)
                                   69.77553 (Kcal/Mol)
 Warning -- explicit consideration of  11 degrees of freedom as
           vibrations may cause significant error
 Vibrational temperatures:    126.32   155.13   204.33   298.59   322.13
          (Kelvin)            379.51   387.90   514.24   573.86   610.29
                              824.88   934.30  1016.49  1086.93  1106.17
                             1173.52  1380.93  1563.24  1580.37  1640.10
                             1695.50  1837.07  1955.28  2015.68  2060.75
                             2142.86  2164.32  2208.00  2574.92  2689.62
                             4424.05  4460.45  4526.98  4541.47  4567.04
                             4922.52  5559.10

 Zero-point correction=                           0.111194 (Hartree/Particle)
 Thermal correction to Energy=                    0.119973
 Thermal correction to Enthalpy=                  0.120917
 Thermal correction to Gibbs Free Energy=         0.077119
 Sum of electronic and zero-point Energies=           -420.107381
 Sum of electronic and thermal Energies=              -420.098602
 Sum of electronic and thermal Enthalpies=            -420.097658
 Sum of electronic and thermal Free Energies=         -420.141456

                     E (Thermal)             CV                S
                      KCal/Mol        Cal/Mol-Kelvin    Cal/Mol-Kelvin
 Total                   75.284             30.426             92.179
 Electronic               0.000              0.000              1.377
 Translational            0.889              2.981             40.136
 Rotational               0.889              2.981             28.361
 Vibrational             73.507             24.464             22.305
 Vibration     1          0.601              1.958              3.709
 Vibration     2          0.606              1.943              3.308
 Vibration     3          0.615              1.911              2.777
 Vibration     4          0.641              1.829              2.065
 Vibration     5          0.649              1.805              1.927
 Vibration     6          0.670              1.739              1.637
 Vibration     7          0.674              1.729              1.599
 Vibration     8          0.733              1.560              1.133
 Vibration     9          0.765              1.473              0.967
 Vibration    10          0.786              1.418              0.878
 Vibration    11          0.930              1.089              0.498

 Normal termination of Gaussian 16 at Fri Mar 28 04:52:45 2025.
