 Gaussian 16, Revision A.03,
 Gaussian 16:  ES64L-G16RevA.03 25-Dec-2016

 --------------------------
 # ccsd(t)/6-311++g(d,p) sp
 --------------------------

 -------------------
 Title Card Required
 -------------------
 Symbolic Z-matrix:
 Charge =  0 Multiplicity = 2

                         Standard orientation:
 ---------------------------------------------------------------------
 Center     Atomic      Atomic             Coordinates (Angstroms)
 Number     Number       Type             X           Y           Z
 ---------------------------------------------------------------------
      1          6           0       -2.100511   -1.071107   -0.853184
      2          1           0       -2.758131   -1.801226   -1.265220
      3          6           0       -1.328692   -0.278920   -0.369822
      4          6           0       -0.620531    0.938068    0.069180
      5          8           0       -1.226739    1.812514    0.612849
      6          8           0        0.674864    1.038518   -0.199392
      7          6           0        1.448775   -0.023621   -0.787656
      8          6           0        2.546432   -0.418512    0.176383
      9          1           0        0.807671   -0.871921   -1.027429
     10          1           0        1.855356    0.386598   -1.713416
     11          1           0        3.156391    0.448307    0.433998
     12          1           0        2.113538   -0.834268    1.086093
     13          1           0        3.187520   -1.172476   -0.284991
     14          8           0       -0.316447   -1.523340    1.053281
     15          1           0       -1.088601   -1.651992    1.627650
 ---------------------------------------------------------------------

 SCF Done:  E(UHF) =  -417.974734913     A.U. after   40 cycles
 E2 =    -0.1261303979D+01 EUMP2 =    -0.41923603889211D+03
 CCSD(T)= -0.41934737683D+03

 The electronic state is 2-A.
 Alpha  occ. eigenvalues --  -20.64122 -20.60631 -20.54895 -11.41413 -11.29852
 Alpha  occ. eigenvalues --  -11.27730 -11.26793 -11.22366  -1.47286  -1.39921
 Alpha  occ. eigenvalues --   -1.37498  -1.07992  -1.04624  -0.90726  -0.87462
 Alpha  occ. eigenvalues --   -0.76067  -0.73318  -0.71059  -0.67832  -0.67485
 Alpha  occ. eigenvalues --   -0.66223  -0.61290  -0.57117  -0.56776  -0.55668
 Alpha  occ. eigenvalues --   -0.52946  -0.50582  -0.47427  -0.45238  -0.43317
 Alpha  occ. eigenvalues --   -0.42711
 Alpha virt. eigenvalues --    0.03202   0.04608   0.05320   0.06596   0.06890
 Alpha virt. eigenvalues --    0.08584   0.09236   0.10248   0.10708   0.12528
 Alpha virt. eigenvalues --    0.12809   0.13050   0.14327   0.15704   0.16196

  Beta  occ. eigenvalues --  -20.60578 -20.60133 -20.55362 -11.41093 -11.29870
  Beta  occ. eigenvalues --  -11.28208 -11.26056 -11.22363  -1.47401  -1.38186
  Beta  occ. eigenvalues --   -1.25316  -1.07510  -1.04560  -0.90054  -0.86961
  Beta  occ. eigenvalues --   -0.75762  -0.72689  -0.69901  -0.67098  -0.64574
  Beta  occ. eigenvalues --   -0.61860  -0.56998  -0.56522  -0.53829  -0.51663
  Beta  occ. eigenvalues --   -0.50563  -0.48653  -0.46247  -0.44037  -0.42566
  Beta virt. eigenvalues --    0.03241   0.04035   0.04792   0.06547   0.06818
  Beta virt. eigenvalues --    0.07937   0.08388   0.09454   0.10966   0.11514
  Beta virt. eigenvalues --    0.12358   0.13051   0.13509   0.14784   0.15915

 Mulliken charges and spin densities:
               1          2
     1  C   -1.530963   0.787313
     2  H    0.234964  -0.059393
     3  C    1.334203  -0.715977
     4  C    0.270639   0.179890
     5  O   -0.337707  -0.096962
     6  O   -0.110452  -0.002783
     7  C   -0.332551   0.005501
     8  C   -0.405921  -0.004399
     9  H    0.189846  -0.000054
    10  H    0.171786   0.001363
    11  H    0.161082  -0.000079
    12  H    0.151596   0.001788
    13  H    0.128126  -0.000483
    14  O   -0.182910   0.940359
    15  H    0.258262  -0.036083
 Sum of Mulliken charges =  -0.00000   1.00000

 Dipole moment (field-independent basis, Debye):
    X=              0.1481    Y=             -4.5876    Z=             -1.3612  Tot=              4.7876
 Quadrupole moment (field-independent basis, Debye-Ang):
   XX=            -42.0530   YY=            -52.5776   ZZ=            -43.4896
   XY=              8.3060   XZ=              0.2070   YZ=             -2.7952

 3-0=-419.2732216\MP4SDQ=-419.2903326\CCSD=-419.2934842\CCSD(T)=-419.34
 Normal termination of Gaussian 16 at Wed May 14 05:34:13 2025.
