 Gaussian 16, Revision A.03,
 Gaussian 16:  ES64L-G16RevA.03 25-Dec-2016

 --------------------------
 # freq 6-311++g(d,p) m062x
 --------------------------

 -------------------
 Title Card Required
 -------------------
 Symbolic Z-matrix:
 Charge =  0 Multiplicity = 2

                         Standard orientation:
 ---------------------------------------------------------------------
 Center     Atomic      Atomic             Coordinates (Angstroms)
 Number     Number       Type             X           Y           Z
 ---------------------------------------------------------------------
      1          6           0       -2.105473   -1.055264   -0.846738
      2          1           0       -2.776064   -1.766574   -1.272611
      3          6           0       -1.265323   -0.369031   -0.254462
      4          6           0       -0.604628    0.937124    0.050180
      5          8           0       -1.217953    1.835166    0.542083
      6          8           0        0.687998    1.027240   -0.225396
      7          6           0        1.459688   -0.059884   -0.773634
      8          6           0        2.540068   -0.441767    0.213685
      9          1           0        0.816020   -0.909221   -1.000219
     10          1           0        1.880398    0.324243   -1.704124
     11          1           0        3.157457    0.424295    0.455923
     12          1           0        2.088091   -0.830733    1.125799
     13          1           0        3.177295   -1.214289   -0.221732
     14          8           0       -0.390605   -1.427218    1.015166
     15          1           0       -1.124702   -1.576295    1.627957
 ---------------------------------------------------------------------

 SCF Done:  E(UM062X) =  -420.200184804     A.U. after   22 cycles

 The electronic state is 2-A.
 Alpha  occ. eigenvalues --  -19.67991 -19.65510 -19.62756 -10.70819 -10.62635
 Alpha  occ. eigenvalues --  -10.60659 -10.60491 -10.53190  -1.25205  -1.16568
 Alpha  occ. eigenvalues --   -1.11895  -0.91657  -0.88117  -0.76743  -0.73975
 Alpha  occ. eigenvalues --   -0.65251  -0.62789  -0.59396  -0.56395  -0.54308
 Alpha  occ. eigenvalues --   -0.53361  -0.49426  -0.47649  -0.47060  -0.44788
 Alpha  occ. eigenvalues --   -0.42132  -0.40872  -0.40522  -0.37575  -0.36813
 Alpha  occ. eigenvalues --   -0.33225
 Alpha virt. eigenvalues --   -0.01011  -0.00779   0.00519   0.00974   0.02077
 Alpha virt. eigenvalues --    0.02444   0.03152   0.04636   0.05484   0.05923
 Alpha virt. eigenvalues --    0.07105   0.07383   0.08583   0.09376   0.09906

  Beta  occ. eigenvalues --  -19.67983 -19.64489 -19.62779 -10.70781 -10.62758
  Beta  occ. eigenvalues --  -10.60663 -10.60056 -10.53189  -1.25182  -1.16600
  Beta  occ. eigenvalues --   -1.08218  -0.89946  -0.88028  -0.76210  -0.73543
  Beta  occ. eigenvalues --   -0.64777  -0.62280  -0.58958  -0.56308  -0.52899
  Beta  occ. eigenvalues --   -0.52475  -0.47857  -0.47480  -0.44703  -0.42385
  Beta  occ. eigenvalues --   -0.41876  -0.39897  -0.38743  -0.37547  -0.35754
  Beta virt. eigenvalues --   -0.10837  -0.00700  -0.00149   0.00624   0.01335
  Beta virt. eigenvalues --    0.02309   0.02641   0.03415   0.04531   0.05715
  Beta virt. eigenvalues --    0.06009   0.07082   0.07388   0.08483   0.09438

 Mulliken charges and spin densities:
               1          2
     1  C   -0.171786   0.704066
     2  H    0.240977  -0.028503
     3  C    0.127741  -0.228360
     4  C    0.000060   0.040662
     5  O   -0.245847  -0.009478
     6  O   -0.023340   0.000441
     7  C   -0.355647   0.008267
     8  C   -0.444770  -0.005256
     9  H    0.191029   0.004798
    10  H    0.210514   0.000863
    11  H    0.177130  -0.000467
    12  H    0.187316   0.000696
    13  H    0.149435  -0.000177
    14  O   -0.295433   0.520415
    15  H    0.252620  -0.007970
 Sum of Mulliken charges =  -0.00000   1.00000

 Dipole moment (field-independent basis, Debye):
    X=             -0.4224    Y=             -3.6272    Z=             -2.0633  Tot=              4.1943
 Quadrupole moment (field-independent basis, Debye-Ang):
   XX=            -40.1682   YY=            -53.2998   ZZ=            -44.1128
   XY=              7.7217   XZ=              0.9190   YZ=             -0.7269

  Exact polarizability:  85.722  -0.622  69.998   8.999   1.735  66.484
 Approx polarizability:  93.528  -0.456  83.532  11.178   5.516  80.839

 ******    1 imaginary frequencies (negative Signs) ******

                      1                      2                      3
                      A                      A                      A
 Frequencies --   -665.8989                87.2605               105.9627
 Red. masses --     12.5352                 5.7712                 2.6291
 Frc consts  --      3.2749                 0.0259                 0.0174
 IR Inten    --      3.5033                 0.3090                 0.6219

                      4                      5                      6
                      A                      A                      A
 Frequencies --    117.1533               184.7190               208.2760
 Red. masses --      4.3853                 1.2788                 1.6094
 Frc consts  --      0.0355                 0.0257                 0.0411
 IR Inten    --      4.7253                75.8625                11.0359

                      7                      8                      9
                      A                      A                      A
 Frequencies --    212.3935               239.1309               286.9070
 Red. masses --      5.5080                 1.8680                 2.7397
 Frc consts  --      0.1464                 0.0629                 0.1329
 IR Inten    --      0.6817                 2.2573                 8.0648

                     10                     11                     12
                      A                      A                      A
 Frequencies --    371.8370               406.2032               507.0495
 Red. masses --      2.9236                 3.4266                 1.4346
 Frc consts  --      0.2382                 0.3331                 0.2173
 IR Inten    --      1.6087                 6.5711                37.3270

                     13                     14                     15
                      A                      A                      A
 Frequencies --    553.1492               627.9315               722.2715
 Red. masses --      5.3986                 4.9840                 1.3935
 Frc consts  --      0.9732                 1.1579                 0.4283
 IR Inten    --     19.2695                 4.4051                33.0059

                     16                     17                     18
                      A                      A                      A
 Frequencies --    737.5709               755.8349               816.6459
 Red. masses --      4.8891                 7.3932                 1.1435
 Frc consts  --      1.5670                 2.4885                 0.4493
 IR Inten    --     20.4885                 7.3713                 8.4681

                     19                     20                     21
                      A                      A                      A
 Frequencies --    925.0278               961.0782              1092.2134
 Red. masses --      1.1519                 2.1741                 4.1946
 Frc consts  --      0.5807                 1.1832                 2.9482
 IR Inten    --     64.9405                19.9378                60.6291

                     22                     23                     24
                      A                      A                      A
 Frequencies --   1139.4560              1178.9866              1279.1950
 Red. masses --      2.3025                 1.8142                 2.5468
 Frc consts  --      1.7613                 1.4858                 2.4553
 IR Inten    --     28.1949                51.5648               333.2360

                     25                     26                     27
                      A                      A                      A
 Frequencies --   1362.3221              1402.1435              1433.9711
 Red. masses --      1.4038                 1.2576                 1.3629
 Frc consts  --      1.5350                 1.4567                 1.6512
 IR Inten    --    144.6573                24.3637                16.5470

                     28                     29                     30
                      A                      A                      A
 Frequencies --   1488.6773              1503.6564              1532.4747
 Red. masses --      1.0378                 1.0462                 1.0996
 Frc consts  --      1.3551                 1.3937                 1.5215
 IR Inten    --      5.5009                 4.8843                 4.8077

                     31                     32                     33
                      A                      A                      A
 Frequencies --   1867.1293              1961.0284              3075.0035
 Red. masses --     12.6707                 6.8123                 1.0354
 Frc consts  --     26.0254                15.4352                 5.7685
 IR Inten    --    532.7832                47.3588                12.9371

                     34                     35                     36
                      A                      A                      A
 Frequencies --   3099.2047              3146.5762              3156.1057
 Red. masses --      1.0615                 1.1041                 1.1010
 Frc consts  --      6.0070                 6.4407                 6.4616
 IR Inten    --     21.3210                 6.5299                10.4834

                     37                     38                     39
                      A                      A                      A
 Frequencies --   3173.5274              3453.9818              3838.8045
 Red. masses --      1.1058                 1.1343                 1.0678
 Frc consts  --      6.5618                 7.9727                 9.2712
 IR Inten    --     13.0037                78.9019                64.6706

 - Thermochemistry -
 -------------------
 Temperature   298.150 Kelvin.  Pressure   1.00000 Atm.
 Atom     1 has atomic number  6 and mass  12.00000

 Molecular mass:   115.03952 amu.
 Principal axes and moments of inertia in atomic units:
                           1         2         3
     Eigenvalues --   674.232681070.991981395.97630
           X            0.99984   0.01737   0.00340
           Y           -0.01736   0.99984  -0.00418
           Z           -0.00347   0.00412   0.99999
 This molecule is an asymmetric top.
 Rotational symmetry number  1.
 Warning -- assumption of classical behavior for rotation
           may cause significant error
 Rotational temperatures (Kelvin)      0.12846     0.08087     0.06205
 Rotational constants (GHZ):           2.67673     1.68511     1.29282
    1 imaginary frequencies ignored.
 Zero-point vibrational energy     293150.0 (Joules/Mol)
                                   70.06454 (Kcal/Mol)
 Warning -- explicit consideration of  12 degrees of freedom as
           vibrations may cause significant error
 Vibrational temperatures:    125.55   152.46   168.56   265.77   299.66
          (Kelvin)            305.59   344.06   412.80   534.99   584.44
                              729.53   795.86   903.45  1039.19  1061.20
                             1087.48  1174.97  1330.91  1382.78  1571.45
                             1639.42  1696.30  1840.48  1960.08  2017.37
                             2063.16  2141.87  2163.43  2204.89  2686.38
                             2821.48  4424.24  4459.06  4527.22  4540.93
                             4566.00  4969.51  5523.18

 Zero-point correction=                           0.111655 (Hartree/Particle)
 Thermal correction to Energy=                    0.121055
 Thermal correction to Enthalpy=                  0.121999
 Thermal correction to Gibbs Free Energy=         0.076914
 Sum of electronic and zero-point Energies=           -420.088530
 Sum of electronic and thermal Energies=              -420.079130
 Sum of electronic and thermal Enthalpies=            -420.078186
 Sum of electronic and thermal Free Energies=         -420.123270

                     E (Thermal)             CV                S
                      KCal/Mol        Cal/Mol-Kelvin    Cal/Mol-Kelvin
 Total                   75.963             32.385             94.888
 Electronic               0.000              0.000              1.377
 Translational            0.889              2.981             40.136
 Rotational               0.889              2.981             28.402
 Vibrational             74.186             26.423             24.974
 Vibration     1          0.601              1.958              3.721
 Vibration     2          0.605              1.944              3.342
 Vibration     3          0.608              1.935              3.147
 Vibration     4          0.631              1.861              2.280
 Vibration     5          0.642              1.828              2.059
 Vibration     6          0.643              1.822              2.023
 Vibration     7          0.657              1.781              1.809
 Vibration     8          0.684              1.698              1.492
 Vibration     9          0.744              1.530              1.072
 Vibration    10          0.771              1.457              0.940
 Vibration    11          0.862              1.234              0.641
 Vibration    12          0.909              1.133              0.538

 Normal termination of Gaussian 16 at Fri Mar 28 06:08:06 2025.
