 Gaussian 16, Revision A.03,
 Gaussian 16:  ES64L-G16RevA.03 25-Dec-2016

 --------------------------
 # ccsd(t)/6-311++g(d,p) sp
 --------------------------

 -------------------
 Title Card Required
 -------------------
 Symbolic Z-matrix:
 Charge =  0 Multiplicity = 2

                         Standard orientation:
 ---------------------------------------------------------------------
 Center     Atomic      Atomic             Coordinates (Angstroms)
 Number     Number       Type             X           Y           Z
 ---------------------------------------------------------------------
      1          6           0       -2.106485   -1.052744   -0.847053
      2          1           0       -2.776627   -1.765874   -1.270926
      3          6           0       -1.257027   -0.380596   -0.239392
      4          6           0       -0.603515    0.937094    0.047238
      5          8           0       -1.216863    1.837692    0.534376
      6          8           0        0.689396    1.025950   -0.228144
      7          6           0        1.460750   -0.063792   -0.772001
      8          6           0        2.539341   -0.444119    0.217790
      9          1           0        0.816965   -0.913290   -0.997367
     10          1           0        1.883018    0.317256   -1.703039
     11          1           0        3.157513    0.421896    0.458206
     12          1           0        2.085514   -0.829988    1.130269
     13          1           0        3.176141   -1.218651   -0.214690
     14          8           0       -0.399097   -1.416059    1.010104
     15          1           0       -1.128383   -1.567072    1.627365
 ---------------------------------------------------------------------

 SCF Done:  E(UHF) =  -417.967321231     A.U. after   30 cycles
 E2 =    -0.1261944245D+01 EUMP2 =    -0.41922926547594D+03
 CCSD(T)= -0.41935139484D+03

 The electronic state is 2-A.
 Alpha  occ. eigenvalues --  -20.62152 -20.60644 -20.55003 -11.41295 -11.29839
 Alpha  occ. eigenvalues --  -11.29472 -11.28911 -11.22197  -1.47376  -1.37992
 Alpha  occ. eigenvalues --   -1.37568  -1.08956  -1.04596  -0.90856  -0.87508
 Alpha  occ. eigenvalues --   -0.76514  -0.73356  -0.70869  -0.67280  -0.65920
 Alpha  occ. eigenvalues --   -0.65072  -0.60988  -0.56951  -0.55404  -0.55146
 Alpha  occ. eigenvalues --   -0.52595  -0.50544  -0.47663  -0.44879  -0.44358
 Alpha  occ. eigenvalues --   -0.42810
 Alpha virt. eigenvalues --    0.03202   0.04609   0.05432   0.06586   0.06918
 Alpha virt. eigenvalues --    0.08628   0.09410   0.10429   0.10983   0.12390
 Alpha virt. eigenvalues --    0.12763   0.12967   0.14085   0.15657   0.16289

  Beta  occ. eigenvalues --  -20.60583 -20.59037 -20.55470 -11.40903 -11.31644
  Beta  occ. eigenvalues --  -11.29868 -11.26179 -11.22194  -1.47472  -1.38259
  Beta  occ. eigenvalues --   -1.27816  -1.07207  -1.04493  -0.89634  -0.86330
  Beta  occ. eigenvalues --   -0.75760  -0.72389  -0.70289  -0.66919  -0.64400
  Beta  occ. eigenvalues --   -0.62530  -0.57023  -0.56210  -0.53826  -0.51247
  Beta  occ. eigenvalues --   -0.50528  -0.49247  -0.47009  -0.45619  -0.42759
  Beta virt. eigenvalues --    0.03223   0.03649   0.04703   0.06350   0.06780
  Beta virt. eigenvalues --    0.07267   0.08268   0.09826   0.11111   0.11585
  Beta virt. eigenvalues --    0.12458   0.12952   0.13758   0.14874   0.16054

 Mulliken charges and spin densities:
               1          2
     1  C   -0.251418   1.413799
     2  H    0.254594  -0.100886
     3  C    0.208052  -1.075240
     4  C    0.083485   0.180079
     5  O   -0.334917  -0.094851
     6  O   -0.110428  -0.002380
     7  C   -0.311964   0.003514
     8  C   -0.413064  -0.005731
     9  H    0.201062   0.004731
    10  H    0.174440   0.000813
    11  H    0.160444  -0.000410
    12  H    0.163949   0.001004
    13  H    0.122552  -0.000112
    14  O   -0.210141   0.701623
    15  H    0.263355  -0.025954
 Sum of Mulliken charges =  -0.00000   1.00000

 Dipole moment (field-independent basis, Debye):
    X=             -0.1957    Y=             -4.3851    Z=             -1.6944  Tot=              4.7052
 Quadrupole moment (field-independent basis, Debye-Ang):
   XX=            -41.2762   YY=            -53.5947   ZZ=            -43.5549
   XY=              8.0600   XZ=              0.4713   YZ=             -1.7427

 PMP3-0=-419.2779746\MP4SDQ=-419.2874652\CCSD=-419.2956841\CCSD(T)=-419
 Normal termination of Gaussian 16 at Wed May 14 07:15:20 2025.
