 Gaussian 16, Revision A.03,
 Gaussian 16:  ES64L-G16RevA.03 25-Dec-2016

 --------------------------
 # ccsd(t)/6-311++g(d,p) sp
 --------------------------

 -------------------
 Title Card Required
 -------------------
 Symbolic Z-matrix:
 Charge =  0 Multiplicity = 2

                         Standard orientation:
 ---------------------------------------------------------------------
 Center     Atomic      Atomic             Coordinates (Angstroms)
 Number     Number       Type             X           Y           Z
 ---------------------------------------------------------------------
      1          6           0       -2.098655   -1.079045   -0.862275
      2          1           0       -2.740971   -1.833214   -1.254224
      3          6           0       -1.355528   -0.241134   -0.422016
      4          6           0       -0.634018    0.942956    0.072701
      5          8           0       -1.232258    1.799513    0.653810
      6          8           0        0.664595    1.044178   -0.184341
      7          6           0        1.439992   -0.003511   -0.795135
      8          6           0        2.550195   -0.400866    0.154009
      9          1           0        0.802199   -0.853682   -1.037978
     10          1           0        1.835091    0.419685   -1.720149
     11          1           0        3.155411    0.467917    0.416122
     12          1           0        2.130111   -0.830113    1.063345
     13          1           0        3.193116   -1.144091   -0.321995
     14          8           0       -0.272566   -1.575762    1.073658
     15          1           0       -1.065049   -1.680332    1.626160
 ---------------------------------------------------------------------

 SCF Done:  E(UHF) =  -417.979816299     A.U. after   40 cycles
 E2 =    -0.1263366123D+01 EUMP2 =    -0.41924318242226D+03
 CCSD(T)= -0.41934931847D+03

 The electronic state is 2-A.
 Alpha  occ. eigenvalues --  -20.64456 -20.60663 -20.54995 -11.41494 -11.29876
 Alpha  occ. eigenvalues --  -11.27638 -11.26726 -11.22372  -1.47303  -1.40123
 Alpha  occ. eigenvalues --   -1.37570  -1.07841  -1.04624  -0.90683  -0.87454
 Alpha  occ. eigenvalues --   -0.76045  -0.73326  -0.70984  -0.68248  -0.67523
 Alpha  occ. eigenvalues --   -0.66352  -0.61264  -0.57248  -0.56917  -0.55837
 Alpha  occ. eigenvalues --   -0.52995  -0.50615  -0.47597  -0.45432  -0.43180
 Alpha  occ. eigenvalues --   -0.42667
 Alpha virt. eigenvalues --    0.03180   0.04623   0.05314   0.06592   0.06891
 Alpha virt. eigenvalues --    0.08513   0.09118   0.10098   0.10667   0.12503
 Alpha virt. eigenvalues --    0.12823   0.13149   0.14460   0.15767   0.16055

  Beta  occ. eigenvalues --  -20.60623 -20.60378 -20.55373 -11.41247 -11.29890
  Beta  occ. eigenvalues --  -11.27765 -11.26392 -11.22369  -1.47400  -1.38126
  Beta  occ. eigenvalues --   -1.24884  -1.07510  -1.04572  -0.90196  -0.87125
  Beta  occ. eigenvalues --   -0.75841  -0.72869  -0.69757  -0.67159  -0.64701
  Beta  occ. eigenvalues --   -0.61592  -0.57022  -0.56500  -0.53784  -0.51739
  Beta  occ. eigenvalues --   -0.50614  -0.48523  -0.46169  -0.43657  -0.42585
  Beta virt. eigenvalues --    0.03223   0.04132   0.04808   0.06584   0.06833
  Beta virt. eigenvalues --    0.08079   0.08452   0.09307   0.10644   0.11491
  Beta virt. eigenvalues --    0.12373   0.13114   0.13374   0.14786   0.15932

 Mulliken charges and spin densities:
               1          2
     1  C   -1.978706   0.533141
     2  H    0.223801  -0.042498
     3  C    1.823373  -0.515329
     4  C    0.262216   0.164771
     5  O   -0.340765  -0.078981
     6  O   -0.111712  -0.002095
     7  C   -0.328282   0.001894
     8  C   -0.410438  -0.001716
     9  H    0.182585  -0.000499
    10  H    0.171198   0.001120
    11  H    0.160801   0.000045
    12  H    0.150191   0.001266
    13  H    0.129642  -0.000452
    14  O   -0.192902   0.976447
    15  H    0.258997  -0.037114
 Sum of Mulliken charges =  -0.00000   1.00000

 Dipole moment (field-independent basis, Debye):
    X=              0.1811    Y=             -4.5731    Z=             -1.3829  Tot=              4.7810
 Quadrupole moment (field-independent basis, Debye-Ang):
   XX=            -42.3171   YY=            -52.2800   ZZ=            -43.6895
   XY=              8.4688   XZ=              0.1400   YZ=             -3.0456

 PMP3-0=-419.2757758\MP4SDQ=-419.2952928\CCSD=-419.2960599\CCSD(T)=-419
 Normal termination of Gaussian 16 at Wed May 14 08:06:22 2025.
