 Gaussian 16, Revision A.03,
 Gaussian 16:  ES64L-G16RevA.03 25-Dec-2016

 --------------------------
 # freq 6-311++g(d,p) m062x
 --------------------------

 -------------------
 Title Card Required
 -------------------
 Symbolic Z-matrix:
 Charge =  0 Multiplicity = 2

                         Standard orientation:
 ---------------------------------------------------------------------
 Center     Atomic      Atomic             Coordinates (Angstroms)
 Number     Number       Type             X           Y           Z
 ---------------------------------------------------------------------
      1          6           0       -2.108322   -1.043415   -0.849197
      2          1           0       -2.773674   -1.769325   -1.260964
      3          6           0       -1.232796   -0.415257   -0.194548
      4          6           0       -0.601164    0.935977    0.038945
      5          8           0       -1.214078    1.844274    0.512585
      6          8           0        0.693321    1.022480   -0.235469
      7          6           0        1.463893   -0.074121   -0.767031
      8          6           0        2.537215   -0.450415    0.229855
      9          1           0        0.820006   -0.923950   -0.990168
     10          1           0        1.891054    0.298316   -1.699281
     11          1           0        3.157389    0.415395    0.465781
     12          1           0        2.078390   -0.827779    1.143331
     13          1           0        3.173057   -1.230373   -0.194251
     14          8           0       -0.424386   -1.383798    0.993230
     15          1           0       -1.138034   -1.542542    1.624635
 ---------------------------------------------------------------------

 SCF Done:  E(UM062X) =  -420.211068139     A.U. after   19 cycles

 The electronic state is 2-A.
 Alpha  occ. eigenvalues --  -19.67919 -19.65411 -19.62724 -10.70523 -10.64027
 Alpha  occ. eigenvalues --  -10.60653 -10.60567 -10.53185  -1.25104  -1.16461
 Alpha  occ. eigenvalues --   -1.12441  -0.91434  -0.88080  -0.76631  -0.73906
 Alpha  occ. eigenvalues --   -0.65184  -0.62493  -0.59753  -0.56374  -0.54989
 Alpha  occ. eigenvalues --   -0.53329  -0.49438  -0.47661  -0.46903  -0.44868
 Alpha  occ. eigenvalues --   -0.42106  -0.41037  -0.40229  -0.37543  -0.36595
 Alpha  occ. eigenvalues --   -0.32170
 Alpha virt. eigenvalues --   -0.00776  -0.00616   0.00537   0.00804   0.02299
 Alpha virt. eigenvalues --    0.02603   0.03225   0.04643   0.05448   0.05897
 Alpha virt. eigenvalues --    0.07230   0.07388   0.08657   0.09345   0.09848

  Beta  occ. eigenvalues --  -19.67908 -19.64766 -19.62737 -10.70475 -10.64178
  Beta  occ. eigenvalues --  -10.60657 -10.59969 -10.53184  -1.25063  -1.16469
  Beta  occ. eigenvalues --   -1.10183  -0.89390  -0.87931  -0.75947  -0.73221
  Beta  occ. eigenvalues --   -0.64650  -0.61824  -0.59217  -0.56182  -0.53873
  Beta  occ. eigenvalues --   -0.53024  -0.47914  -0.47324  -0.44850  -0.44348
  Beta  occ. eigenvalues --   -0.41944  -0.39642  -0.39414  -0.37554  -0.35360
  Beta virt. eigenvalues --   -0.09765  -0.00734  -0.00114   0.00679   0.01393
  Beta virt. eigenvalues --    0.02377   0.02790   0.03560   0.04569   0.05717
  Beta virt. eigenvalues --    0.05960   0.07195   0.07304   0.08507   0.09399

 Mulliken charges and spin densities:
               1          2
     1  C   -0.021407   0.927967
     2  H    0.236981  -0.031422
     3  C   -0.028709  -0.261417
     4  C    0.001068   0.047704
     5  O   -0.247559  -0.003480
     6  O   -0.024914   0.002179
     7  C   -0.347665   0.007878
     8  C   -0.450026  -0.004343
     9  H    0.191727   0.005051
    10  H    0.210705   0.000263
    11  H    0.177607  -0.000379
    12  H    0.188267   0.000403
    13  H    0.148218   0.000068
    14  O   -0.298837   0.309676
    15  H    0.264545  -0.000148
 Sum of Mulliken charges =  -0.00000   1.00000

 Dipole moment (field-independent basis, Debye):
    X=             -0.3692    Y=             -3.7023    Z=             -1.9122  Tot=              4.1832
 Quadrupole moment (field-independent basis, Debye-Ang):
   XX=            -40.5665   YY=            -53.4254   ZZ=            -44.1888
   XY=              7.5492   XZ=              0.5947   YZ=             -0.7430

  Exact polarizability:  83.820  -0.005  68.527   6.958   2.780  63.711
 Approx polarizability:  91.001  -1.101  81.323   9.031   5.304  78.608

 ******    1 imaginary frequencies (negative Signs) ******

                      1                      2                      3
                      A                      A                      A
 Frequencies --   -534.6064                85.0929               105.2251
 Red. masses --      7.7774                 4.7057                 2.4113
 Frc consts  --      1.3097                 0.0201                 0.0157
 IR Inten    --     58.8807                 3.5367                 8.0378

                      4                      5                      6
                      A                      A                      A
 Frequencies --    111.9258               141.4856               212.9436
 Red. masses --      1.4859                 2.6719                 1.3080
 Frc consts  --      0.0110                 0.0315                 0.0349
 IR Inten    --     30.7774                38.8936                 6.8065

                      7                      8                      9
                      A                      A                      A
 Frequencies --    234.6559               250.9297               259.0291
 Red. masses --      1.3854                 4.5355                 2.2171
 Frc consts  --      0.0449                 0.1683                 0.0876
 IR Inten    --     32.0765                 3.6845                 2.0373

                     10                     11                     12
                      A                      A                      A
 Frequencies --    349.8093               391.6446               416.7938
 Red. masses --      5.8660                 3.4451                 3.5664
 Frc consts  --      0.4229                 0.3113                 0.3650
 IR Inten    --      3.4614                 1.6211                 8.4385

                     13                     14                     15
                      A                      A                      A
 Frequencies --    563.8103               641.2759               711.0627
 Red. masses --      5.9923                 4.3093                 1.3910
 Frc consts  --      1.1223                 1.0441                 0.4144
 IR Inten    --     24.2409                 3.5520                38.5910

                     16                     17                     18
                      A                      A                      A
 Frequencies --    749.9003               760.2832               815.7317
 Red. masses --      4.7931                 9.9266                 1.1469
 Frc consts  --      1.5881                 3.3807                 0.4497
 IR Inten    --      2.2812                11.0784                 8.2601

                     19                     20                     21
                      A                      A                      A
 Frequencies --    959.6406              1045.3058              1091.6521
 Red. masses --      2.1753                 1.1742                 4.1189
 Frc consts  --      1.1803                 0.7559                 2.8920
 IR Inten    --     16.5933                54.0058                58.5318

                     22                     23                     24
                      A                      A                      A
 Frequencies --   1139.6290              1178.5444              1277.9258
 Red. masses --      2.2946                 1.8148                 2.5393
 Frc consts  --      1.7558                 1.4851                 2.4433
 IR Inten    --     27.4511                55.5680               338.5801

                     25                     26                     27
                      A                      A                      A
 Frequencies --   1360.5286              1401.3160              1432.8686
 Red. masses --      1.4042                 1.2572                 1.3658
 Frc consts  --      1.5314                 1.4546                 1.6522
 IR Inten    --    147.6357                23.0986                15.0766

                     28                     29                     30
                      A                      A                      A
 Frequencies --   1489.0699              1504.0927              1533.6178
 Red. masses --      1.0379                 1.0455                 1.0982
 Frc consts  --      1.3559                 1.3936                 1.5218
 IR Inten    --      5.3807                 4.3843                 4.2714

                     31                     32                     33
                      A                      A                      A
 Frequencies --   1836.6137              1873.4308              3074.8864
 Red. masses --      7.3574                11.8892                 1.0355
 Frc consts  --     14.6222                24.5855                 5.7685
 IR Inten    --     85.4311               442.5662                13.2065

                     34                     35                     36
                      A                      A                      A
 Frequencies --   3099.8796              3146.5064              3156.5701
 Red. masses --      1.0619                 1.1038                 1.1008
 Frc consts  --      6.0120                 6.4389                 6.4623
 IR Inten    --     21.5626                 7.0139                10.6476

                     37                     38                     39
                      A                      A                      A
 Frequencies --   3174.2650              3436.1519              3857.0745
 Red. masses --      1.1057                 1.1252                 1.0677
 Frc consts  --      6.5642                 7.8279                 9.3589
 IR Inten    --     12.6633                81.1215                68.5735

 - Thermochemistry -
 -------------------
 Temperature   298.150 Kelvin.  Pressure   1.00000 Atm.
 Atom     1 has atomic number  6 and mass  12.00000

 Molecular mass:   115.03952 amu.
 Principal axes and moments of inertia in atomic units:
                           1         2         3
     Eigenvalues --   663.911351063.868501389.15569
           X            0.99986   0.01602   0.00383
           Y           -0.01601   0.99987  -0.00364
           Z           -0.00389   0.00358   0.99999
 This molecule is an asymmetric top.
 Rotational symmetry number  1.
 Warning -- assumption of classical behavior for rotation
           may cause significant error
 Rotational temperatures (Kelvin)      0.13046     0.08141     0.06235
 Rotational constants (GHZ):           2.71835     1.69639     1.29916
    1 imaginary frequencies ignored.
 Zero-point vibrational energy     292314.5 (Joules/Mol)
                                   69.86484 (Kcal/Mol)
 Warning -- explicit consideration of  12 degrees of freedom as
           vibrations may cause significant error
 Vibrational temperatures:    122.43   151.40   161.04   203.57   306.38
          (Kelvin)            337.62   361.03   372.69   503.30   563.49
                              599.67   811.20   922.65  1023.06  1078.94
                             1093.88  1173.66  1380.71  1503.96  1570.64
                             1639.67  1695.66  1838.65  1957.50  2016.18
                             2061.58  2142.44  2164.05  2206.53  2642.48
                             2695.45  4424.08  4460.04  4527.12  4541.60
                             4567.06  4943.86  5549.47

 Zero-point correction=                           0.111337 (Hartree/Particle)
 Thermal correction to Energy=                    0.120886
 Thermal correction to Enthalpy=                  0.121830
 Thermal correction to Gibbs Free Energy=         0.076357
 Sum of electronic and zero-point Energies=           -420.099731
 Sum of electronic and thermal Energies=              -420.090182
 Sum of electronic and thermal Enthalpies=            -420.089238
 Sum of electronic and thermal Free Energies=         -420.134711

                     E (Thermal)             CV                S
                      KCal/Mol        Cal/Mol-Kelvin    Cal/Mol-Kelvin
 Total                   75.857             32.525             95.706
 Electronic               0.000              0.000              1.377
 Translational            0.889              2.981             40.136
 Rotational               0.889              2.981             28.375
 Vibrational             74.080             26.563             25.819
 Vibration     1          0.601              1.960              3.770
 Vibration     2          0.605              1.945              3.355
 Vibration     3          0.607              1.940              3.235
 Vibration     4          0.615              1.912              2.784
 Vibration     5          0.644              1.821              2.018
 Vibration     6          0.654              1.788              1.843
 Vibration     7          0.663              1.761              1.724
 Vibration     8          0.668              1.747              1.668
 Vibration     9          0.727              1.576              1.167
 Vibration    10          0.759              1.488              0.994
 Vibration    11          0.780              1.434              0.903
 Vibration    12          0.920              1.110              0.516

 Normal termination of Gaussian 16 at Fri Mar 28 05:17:35 2025.
