 Gaussian 16, Revision A.03,
 Gaussian 16:  ES64L-G16RevA.03 25-Dec-2016

 --------------------------
 # ccsd(t)/6-311++g(d,p) sp
 --------------------------

 -------------------
 Title Card Required
 -------------------
 Symbolic Z-matrix:
 Charge =  0 Multiplicity = 2

                         Standard orientation:
 ---------------------------------------------------------------------
 Center     Atomic      Atomic             Coordinates (Angstroms)
 Number     Number       Type             X           Y           Z
 ---------------------------------------------------------------------
      1          6           0       -2.102525   -1.061653   -0.847298
      2          1           0       -2.771251   -1.774039   -1.273559
      3          6           0       -1.290097   -0.334250   -0.299182
      4          6           0       -0.609093    0.936724    0.058808
      5          8           0       -1.221345    1.826999    0.566701
      6          8           0        0.683606    1.031376   -0.216390
      7          6           0        1.456241   -0.047098   -0.778647
      8          6           0        2.542309   -0.434052    0.200780
      9          1           0        0.813153   -0.895845   -1.009956
     10          1           0        1.872273    0.346618   -1.707262
     11          1           0        3.157053    0.432152    0.449065
     12          1           0        2.096585   -0.832813    1.111853
     13          1           0        3.181035   -1.200044   -0.243806
     14          8           0       -0.364488   -1.461888    1.029398
     15          1           0       -1.112046   -1.605954    1.629217
 ---------------------------------------------------------------------

 SCF Done:  E(UHF) =  -417.968286970     A.U. after   35 cycles
 E2 =    -0.1259126391D+01 EUMP2 =    -0.41922741336163D+03
 CCSD(T)= -0.41934667830D+03

 The electronic state is 2-A.
 Alpha  occ. eigenvalues --  -20.63309 -20.60613 -20.54866 -11.41340 -11.29837
 Alpha  occ. eigenvalues --  -11.28218 -11.27598 -11.22305  -1.47320  -1.39200
 Alpha  occ. eigenvalues --   -1.37484  -1.08397  -1.04625  -0.90751  -0.87460
 Alpha  occ. eigenvalues --   -0.76235  -0.73321  -0.71017  -0.67397  -0.66721
 Alpha  occ. eigenvalues --   -0.65992  -0.61232  -0.57001  -0.56183  -0.55448
 Alpha  occ. eigenvalues --   -0.52816  -0.50558  -0.47401  -0.44971  -0.43758
 Alpha  occ. eigenvalues --   -0.42854
 Alpha virt. eigenvalues --    0.03215   0.04602   0.05365   0.06589   0.06901
 Alpha virt. eigenvalues --    0.08630   0.09359   0.10431   0.10801   0.12483
 Alpha virt. eigenvalues --    0.12783   0.12976   0.14196   0.15679   0.16266

  Beta  occ. eigenvalues --  -20.60551 -20.59623 -20.55380 -11.40954 -11.29863
  Beta  occ. eigenvalues --  -11.29560 -11.25904 -11.22302  -1.47434  -1.38242
  Beta  occ. eigenvalues --   -1.26305  -1.07433  -1.04544  -0.89810  -0.86619
  Beta  occ. eigenvalues --   -0.75714  -0.72483  -0.70107  -0.67010  -0.64431
  Beta  occ. eigenvalues --   -0.62223  -0.57003  -0.56403  -0.53844  -0.51451
  Beta  occ. eigenvalues --   -0.50501  -0.48887  -0.46416  -0.44920  -0.42646
  Beta virt. eigenvalues --    0.03243   0.03856   0.04753   0.06460   0.06803
  Beta virt. eigenvalues --    0.07566   0.08334   0.09650   0.11186   0.11582
  Beta virt. eigenvalues --    0.12348   0.12985   0.13670   0.14845   0.15984

 Mulliken charges and spin densities:
               1          2
     1  C   -0.692120   1.144510
     2  H    0.248982  -0.084488
     3  C    0.587111  -0.957644
     4  C    0.143763   0.183280
     5  O   -0.335562  -0.105615
     6  O   -0.110455  -0.002967
     7  C   -0.326554   0.005375
     8  C   -0.405933  -0.006043
     9  H    0.198139   0.002387
    10  H    0.173311   0.001287
    11  H    0.160906  -0.000289
    12  H    0.156846   0.001754
    13  H    0.125194  -0.000325
    14  O   -0.182970   0.851156
    15  H    0.259342  -0.032379
 Sum of Mulliken charges =  -0.00000   1.00000

 Dipole moment (field-independent basis, Debye):
    X=              0.0149    Y=             -4.5175    Z=             -1.4746  Tot=              4.7521
 Quadrupole moment (field-independent basis, Debye-Ang):
   XX=            -41.6686   YY=            -53.0771   ZZ=            -43.4044
   XY=              8.1311   XZ=              0.3448   YZ=             -2.3097

 3-0=-419.2726305\MP4SDQ=-419.2848131\CCSD=-419.2916341\CCSD(T)=-419.34
 Normal termination of Gaussian 16 at Wed May 14 00:25:40 2025.
