 Gaussian 16, Revision A.03,
 Gaussian 16:  ES64L-G16RevA.03 25-Dec-2016

 --------------------------
 # freq 6-311++g(d,p) m062x
 --------------------------

 -------------------
 Title Card Required
 -------------------
 Symbolic Z-matrix:
 Charge =  0 Multiplicity = 2

                         Standard orientation:
 ---------------------------------------------------------------------
 Center     Atomic      Atomic             Coordinates (Angstroms)
 Number     Number       Type             X           Y           Z
 ---------------------------------------------------------------------
      1          6           0       -2.107948   -1.046847   -0.848286
      2          1           0       -2.775514   -1.767219   -1.265175
      3          6           0       -1.240742   -0.403722   -0.209391
      4          6           0       -0.601789    0.936541    0.041589
      5          8           0       -1.214914    1.842263    0.519628
      6          8           0        0.692060    1.023564   -0.233189
      7          6           0        1.462843   -0.070924   -0.768704
      8          6           0        2.537916   -0.448443    0.225862
      9          1           0        0.818947   -0.920670   -0.992329
     10          1           0        1.888326    0.304264   -1.700633
     11          1           0        3.157482    0.417446    0.463107
     12          1           0        2.080675   -0.828499    1.139029
     13          1           0        3.174018   -1.226699   -0.200959
     14          8           0       -0.415966   -1.394342    0.999162
     15          1           0       -1.135047   -1.550135    1.625731
 ---------------------------------------------------------------------

 SCF Done:  E(UM062X) =  -420.207730823     A.U. after   19 cycles

 The electronic state is 2-A.
 Alpha  occ. eigenvalues --  -19.67950 -19.65336 -19.62750 -10.70622 -10.63778
 Alpha  occ. eigenvalues --  -10.60657 -10.60615 -10.53176  -1.25148  -1.16508
 Alpha  occ. eigenvalues --   -1.12148  -0.91559  -0.88093  -0.76684  -0.73937
 Alpha  occ. eigenvalues --   -0.65232  -0.62610  -0.59614  -0.56376  -0.54773
 Alpha  occ. eigenvalues --   -0.53324  -0.49386  -0.47655  -0.46930  -0.44833
 Alpha  occ. eigenvalues --   -0.42114  -0.40915  -0.40348  -0.37558  -0.36682
 Alpha  occ. eigenvalues --   -0.32352
 Alpha virt. eigenvalues --   -0.00779  -0.00710   0.00527   0.00844   0.02255
 Alpha virt. eigenvalues --    0.02528   0.03171   0.04629   0.05448   0.05905
 Alpha virt. eigenvalues --    0.07185   0.07386   0.08637   0.09350   0.09852

  Beta  occ. eigenvalues --  -19.67940 -19.64603 -19.62766 -10.70575 -10.63926
  Beta  occ. eigenvalues --  -10.60661 -10.60056 -10.53175  -1.25112  -1.16522
  Beta  occ. eigenvalues --   -1.09572  -0.89564  -0.87964  -0.76021  -0.73319
  Beta  occ. eigenvalues --   -0.64700  -0.61990  -0.59118  -0.56224  -0.53452
  Beta  occ. eigenvalues --   -0.52989  -0.47885  -0.47366  -0.44774  -0.43822
  Beta  occ. eigenvalues --   -0.41945  -0.39575  -0.39347  -0.37568  -0.35483
  Beta virt. eigenvalues --   -0.10060  -0.00723  -0.00126   0.00664   0.01382
  Beta virt. eigenvalues --    0.02359   0.02744   0.03496   0.04543   0.05713
  Beta virt. eigenvalues --    0.05971   0.07153   0.07323   0.08495   0.09410

 Mulliken charges and spin densities:
               1          2
     1  C   -0.041824   0.880665
     2  H    0.239426  -0.031457
     3  C   -0.003228  -0.258386
     4  C   -0.001659   0.046930
     5  O   -0.247046  -0.005173
     6  O   -0.024675   0.001740
     7  C   -0.348929   0.007912
     8  C   -0.449148  -0.004730
     9  H    0.191732   0.005123
    10  H    0.210692   0.000408
    11  H    0.177394  -0.000402
    12  H    0.188522   0.000492
    13  H    0.148414   0.000024
    14  O   -0.300693   0.358558
    15  H    0.261022  -0.001704
 Sum of Mulliken charges =  -0.00000   1.00000

 Dipole moment (field-independent basis, Debye):
    X=             -0.4041    Y=             -3.6645    Z=             -1.9828  Tot=              4.1860
 Quadrupole moment (field-independent basis, Debye-Ang):
   XX=            -40.4060   YY=            -53.4254   ZZ=            -44.1830
   XY=              7.5964   XZ=              0.7150   YZ=             -0.6921

  Exact polarizability:  84.229  -0.150  68.877   7.397   2.530  64.320
 Approx polarizability:  91.704  -1.079  81.919   9.679   5.198  79.318

 ******    1 imaginary frequencies (negative Signs) ******

                      1                      2                      3
                      A                      A                      A
 Frequencies --   -584.4247                86.2254               105.7919
 Red. masses --      9.8945                 5.4214                 2.6300
 Frc consts  --      1.9911                 0.0237                 0.0173
 IR Inten    --     30.5801                 0.9030                 0.9412

                      4                      5                      6
                      A                      A                      A
 Frequencies --    123.6111               153.0578               212.9083
 Red. masses --      2.6109                 1.3717                 1.3371
 Frc consts  --      0.0235                 0.0189                 0.0357
 IR Inten    --      8.6103                76.5705                 2.7040

                      7                      8                      9
                      A                      A                      A
 Frequencies --    238.7212               250.4880               274.3369
 Red. masses --      6.6288                 2.3899                 1.3382
 Frc consts  --      0.2226                 0.0884                 0.0593
 IR Inten    --      6.1914                 7.6483                21.2477

                     10                     11                     12
                      A                      A                      A
 Frequencies --    357.2265               390.1496               413.9890
 Red. masses --      3.5437                 3.4007                 3.5354
 Frc consts  --      0.2664                 0.3050                 0.3570
 IR Inten    --     10.1230                 1.4277                 9.9514

                     13                     14                     15
                      A                      A                      A
 Frequencies --    559.7824               637.4250               713.6099
 Red. masses --      6.0225                 4.4848                 1.3818
 Frc consts  --      1.1119                 1.0736                 0.4146
 IR Inten    --     23.3598                 3.6489                38.0123

                     16                     17                     18
                      A                      A                      A
 Frequencies --    746.5850               757.8543               815.8912
 Red. masses --      4.8207                 9.6330                 1.1449
 Frc consts  --      1.5831                 3.2598                 0.4490
 IR Inten    --      5.3555                10.4971                 8.3456

                     19                     20                     21
                      A                      A                      A
 Frequencies --    959.5217              1018.4906              1091.5475
 Red. masses --      2.1611                 1.1678                 4.1867
 Frc consts  --      1.1723                 0.7137                 2.9391
 IR Inten    --     17.1186                56.5230                58.4874

                     22                     23                     24
                      A                      A                      A
 Frequencies --   1139.5633              1178.6622              1278.3241
 Red. masses --      2.2929                 1.8151                 2.5389
 Frc consts  --      1.7544                 1.4857                 2.4445
 IR Inten    --     27.3202                54.5073               336.6865

                     25                     26                     27
                      A                      A                      A
 Frequencies --   1361.1678              1401.5053              1433.1598
 Red. masses --      1.4049                 1.2574                 1.3650
 Frc consts  --      1.5336                 1.4552                 1.6519
 IR Inten    --    147.0243                23.4693                15.4466

                     28                     29                     30
                      A                      A                      A
 Frequencies --   1488.9446              1503.9963              1533.3004
 Red. masses --      1.0379                 1.0457                 1.0986
 Frc consts  --      1.3557                 1.3936                 1.5218
 IR Inten    --      5.3915                 4.5222                 4.4087

                     31                     32                     33
                      A                      A                      A
 Frequencies --   1856.0323              1880.6900              3074.9029
 Red. masses --      8.7345                 9.3858                 1.0355
 Frc consts  --     17.7279                19.5593                 5.7684
 IR Inten    --    276.4101               259.4135                13.2025

                     34                     35                     36
                      A                      A                      A
 Frequencies --   3099.7231              3146.5448              3156.5410
 Red. masses --      1.0618                 1.1039                 1.1009
 Frc consts  --      6.0109                 6.4392                 6.4625
 IR Inten    --     21.5633                 6.9743                10.5526

                     37                     38                     39
                      A                      A                      A
 Frequencies --   3174.1766              3441.7873              3853.1649
 Red. masses --      1.1058                 1.1271                 1.0678
 Frc consts  --      6.5640                 7.8663                 9.3403
 IR Inten    --     12.5988                82.3853                67.1254

 - Thermochemistry -
 -------------------
 Temperature   298.150 Kelvin.  Pressure   1.00000 Atm.
 Atom     1 has atomic number  6 and mass  12.00000

 Molecular mass:   115.03952 amu.
 Principal axes and moments of inertia in atomic units:
                           1         2         3
     Eigenvalues --   666.474821065.647091390.88032
           X            0.99986   0.01632   0.00375
           Y           -0.01630   0.99986  -0.00375
           Z           -0.00381   0.00369   0.99999
 This molecule is an asymmetric top.
 Rotational symmetry number  1.
 Warning -- assumption of classical behavior for rotation
           may cause significant error
 Rotational temperatures (Kelvin)      0.12996     0.08128     0.06227
 Rotational constants (GHZ):           2.70789     1.69356     1.29755
    1 imaginary frequencies ignored.
 Zero-point vibrational energy     292543.2 (Joules/Mol)
                                   69.91950 (Kcal/Mol)
 Warning -- explicit consideration of  12 degrees of freedom as
           vibrations may cause significant error
 Vibrational temperatures:    124.06   152.21   177.85   220.22   306.33
          (Kelvin)            343.47   360.40   394.71   513.97   561.34
                              595.64   805.40   917.11  1026.73  1074.17
                             1090.38  1173.89  1380.54  1465.38  1570.49
                             1639.58  1695.83  1839.22  1958.42  2016.45
                             2062.00  2142.26  2163.92  2206.08  2670.42
                             2705.89  4424.10  4459.81  4527.18  4541.56
                             4566.93  4951.96  5543.84

 Zero-point correction=                           0.111424 (Hartree/Particle)
 Thermal correction to Energy=                    0.120906
 Thermal correction to Enthalpy=                  0.121851
 Thermal correction to Gibbs Free Energy=         0.076611
 Sum of electronic and zero-point Energies=           -420.096307
 Sum of electronic and thermal Energies=              -420.086825
 Sum of electronic and thermal Enthalpies=            -420.085880
 Sum of electronic and thermal Free Energies=         -420.131120

                     E (Thermal)             CV                S
                      KCal/Mol        Cal/Mol-Kelvin    Cal/Mol-Kelvin
 Total                   75.870             32.509             95.215
 Electronic               0.000              0.000              1.377
 Translational            0.889              2.981             40.136
 Rotational               0.889              2.981             28.381
 Vibrational             74.092             26.547             25.321
 Vibration     1          0.601              1.959              3.744
 Vibration     2          0.605              1.945              3.345
 Vibration     3          0.610              1.929              3.043
 Vibration     4          0.619              1.899              2.634
 Vibration     5          0.644              1.821              2.019
 Vibration     6          0.657              1.781              1.812
 Vibration     7          0.663              1.762              1.727
 Vibration     8          0.677              1.721              1.569
 Vibration     9          0.732              1.560              1.134
 Vibration    10          0.758              1.491              1.000
 Vibration    11          0.778              1.440              0.913
 Vibration    12          0.915              1.118              0.524

 Normal termination of Gaussian 16 at Fri Mar 28 05:30:01 2025.
