 Gaussian 16, Revision A.03,
 Gaussian 16:  ES64L-G16RevA.03 25-Dec-2016

 --------------------------
 # freq 6-311++g(d,p) m062x
 --------------------------

 -------------------
 Title Card Required
 -------------------
 Symbolic Z-matrix:
 Charge =  0 Multiplicity = 2

                         Standard orientation:
 ---------------------------------------------------------------------
 Center     Atomic      Atomic             Coordinates (Angstroms)
 Number     Number       Type             X           Y           Z
 ---------------------------------------------------------------------
      1          6           0       -2.098655   -1.079045   -0.862275
      2          1           0       -2.740971   -1.833214   -1.254224
      3          6           0       -1.355528   -0.241134   -0.422016
      4          6           0       -0.634018    0.942956    0.072701
      5          8           0       -1.232258    1.799513    0.653810
      6          8           0        0.664595    1.044178   -0.184341
      7          6           0        1.439992   -0.003511   -0.795135
      8          6           0        2.550195   -0.400866    0.154009
      9          1           0        0.802199   -0.853682   -1.037978
     10          1           0        1.835091    0.419685   -1.720149
     11          1           0        3.155411    0.467917    0.416122
     12          1           0        2.130111   -0.830113    1.063345
     13          1           0        3.193116   -1.144091   -0.321995
     14          8           0       -0.272566   -1.575762    1.073658
     15          1           0       -1.065049   -1.680332    1.626160
 ---------------------------------------------------------------------

 SCF Done:  E(UM062X) =  -420.201031221     A.U. after   27 cycles

 The electronic state is 2-A.
 Alpha  occ. eigenvalues --  -19.68787 -19.67762 -19.62402 -10.70654 -10.60636
 Alpha  occ. eigenvalues --  -10.58668 -10.58364 -10.53399  -1.24879  -1.16252
 Alpha  occ. eigenvalues --   -1.14521  -0.90185  -0.88063  -0.76343  -0.73717
 Alpha  occ. eigenvalues --   -0.64570  -0.62111  -0.59370  -0.56183  -0.55969
 Alpha  occ. eigenvalues --   -0.52824  -0.50559  -0.47706  -0.47578  -0.45056
 Alpha  occ. eigenvalues --   -0.43517  -0.41851  -0.39921  -0.37717  -0.36663
 Alpha  occ. eigenvalues --   -0.36113
 Alpha virt. eigenvalues --   -0.01630  -0.00755   0.00569   0.00969   0.02223
 Alpha virt. eigenvalues --    0.02449   0.03491   0.04744   0.05705   0.05990
 Alpha virt. eigenvalues --    0.07234   0.07463   0.08699   0.09483   0.10290

  Beta  occ. eigenvalues --  -19.67762 -19.67226 -19.62415 -10.70645 -10.60637
  Beta  occ. eigenvalues --  -10.58640 -10.58279 -10.53397  -1.24879  -1.16275
  Beta  occ. eigenvalues --   -1.07134  -0.89700  -0.88016  -0.76230  -0.73612
  Beta  occ. eigenvalues --   -0.64481  -0.61883  -0.58788  -0.56130  -0.53680
  Beta  occ. eigenvalues --   -0.51806  -0.47910  -0.47569  -0.44731  -0.42023
  Beta  occ. eigenvalues --   -0.40442  -0.39906  -0.39105  -0.37241  -0.35964
  Beta virt. eigenvalues --   -0.10251  -0.01173  -0.00617   0.00613   0.01314
  Beta virt. eigenvalues --    0.02341   0.02550   0.03568   0.04792   0.05840
  Beta virt. eigenvalues --    0.06146   0.07313   0.07563   0.08742   0.09524

 Mulliken charges and spin densities:
               1          2
     1  C   -1.434928   0.154721
     2  H    0.203737  -0.007649
     3  C    1.325231  -0.064901
     4  C    0.090981   0.036122
     5  O   -0.248838  -0.006499
     6  O   -0.025534  -0.001347
     7  C   -0.349354   0.007592
     8  C   -0.449926  -0.002061
     9  H    0.166225  -0.001764
    10  H    0.210360   0.001422
    11  H    0.178544  -0.000248
    12  H    0.174514  -0.000174
    13  H    0.154887  -0.000812
    14  O   -0.253830   0.905425
    15  H    0.257931  -0.019827
 Sum of Mulliken charges =  -0.00000   1.00000

 Dipole moment (field-independent basis, Debye):
    X=              0.0376    Y=             -3.9511    Z=             -1.5359  Tot=              4.2393
 Quadrupole moment (field-independent basis, Debye-Ang):
   XX=            -41.5305   YY=            -52.0572   ZZ=            -43.9751
   XY=              7.9552   XZ=              0.2933   YZ=             -2.3119

  Exact polarizability:  83.546   2.145  70.736   5.189   4.903  62.676
 Approx polarizability:  89.308   5.760  86.444   4.534  11.405  73.686

                      1                      2                      3
                      A                      A                      A
 Frequencies --     50.9152                85.6665               115.6110
 Red. masses --      7.3570                 5.5707                 3.3550
 Frc consts  --      0.0112                 0.0241                 0.0264
 IR Inten    --      3.0400                 0.9877                 2.9800

                      4                      5                      6
                      A                      A                      A
 Frequencies --    121.3552               168.4649               204.5473
 Red. masses --      4.0340                 2.5791                 3.5851
 Frc consts  --      0.0350                 0.0431                 0.0884
 IR Inten    --      4.7477                10.3107                 6.1165

                      7                      8                      9
                      A                      A                      A
 Frequencies --    219.2956               225.4065               278.5469
 Red. masses --      1.7246                 1.3255                 2.4376
 Frc consts  --      0.0489                 0.0397                 0.1114
 IR Inten    --     48.7915                 2.8387                24.5782

                     10                     11                     12
                      A                      A                      A
 Frequencies --    346.8725               399.0605               539.3826
 Red. masses --      2.9292                 3.3521                 1.6585
 Frc consts  --      0.2077                 0.3145                 0.2843
 IR Inten    --      0.7470                 6.6834                52.6866

                     13                     14                     15
                      A                      A                      A
 Frequencies --    551.8773               631.8242               723.2627
 Red. masses --      2.0206                 5.6857                 1.3449
 Frc consts  --      0.3626                 1.3373                 0.4145
 IR Inten    --     67.9345                 2.0919                36.4064

                     16                     17                     18
                      A                      A                      A
 Frequencies --    749.8781               759.6128               765.6649
 Red. masses --      6.3585                 1.7422                 2.7714
 Frc consts  --      2.1066                 0.5923                 0.9572
 IR Inten    --     16.5170                10.2483                43.4429

                     19                     20                     21
                      A                      A                      A
 Frequencies --    818.4667               964.0913              1096.4785
 Red. masses --      1.1538                 2.1805                 3.9310
 Frc consts  --      0.4554                 1.1941                 2.7846
 IR Inten    --      7.3881                15.0710                50.8921

                     22                     23                     24
                      A                      A                      A
 Frequencies --   1141.1492              1179.0717              1285.5639
 Red. masses --      2.4876                 1.7781                 2.4765
 Frc consts  --      1.9086                 1.4565                 2.4115
 IR Inten    --     37.8148                48.3581               365.5462

                     25                     26                     27
                      A                      A                      A
 Frequencies --   1360.2637              1403.2758              1434.9517
 Red. masses --      1.4414                 1.2579                 1.3625
 Frc consts  --      1.5714                 1.4594                 1.6529
 IR Inten    --    165.9325                27.4646                11.8343

                     28                     29                     30
                      A                      A                      A
 Frequencies --   1488.4265              1503.3513              1529.1045
 Red. masses --      1.0379                 1.0475                 1.1001
 Frc consts  --      1.3547                 1.3948                 1.5155
 IR Inten    --      5.3403                 3.6485                 4.3423

                     31                     32                     33
                      A                      A                      A
 Frequencies --   1857.2627              2219.2725              3076.2666
 Red. masses --     12.9515                 5.8371                 1.0356
 Frc consts  --     26.3218                16.9381                 5.7740
 IR Inten    --    512.0635                55.8788                12.0224

                     34                     35                     36
                      A                      A                      A
 Frequencies --   3095.3634              3144.4714              3154.4445
 Red. masses --      1.0603                 1.1053                 1.1012
 Frc consts  --      5.9856                 6.4392                 6.4558
 IR Inten    --     20.3641                 4.2798                12.7734

                     37                     38                     39
                      A                      A                      A
 Frequencies --   3171.8193              3482.0334              3797.3748
 Red. masses --      1.1052                 1.1653                 1.0673
 Frc consts  --      6.5507                 8.3242                 9.0678
 IR Inten    --     15.8270                69.3447                39.9904

 - Thermochemistry -
 -------------------
 Temperature   298.150 Kelvin.  Pressure   1.00000 Atm.
 Atom     1 has atomic number  6 and mass  12.00000

 Molecular mass:   115.03952 amu.
 Principal axes and moments of inertia in atomic units:
                           1         2         3
     Eigenvalues --   713.565241096.215431420.29113
           X            0.99971   0.02415   0.00084
           Y           -0.02414   0.99969  -0.00582
           Z           -0.00098   0.00580   0.99998
 This molecule is an asymmetric top.
 Rotational symmetry number  1.
 Warning -- assumption of classical behavior for rotation
           may cause significant error
 Rotational temperatures (Kelvin)      0.12138     0.07901     0.06098
 Rotational constants (GHZ):           2.52919     1.64634     1.27068
 Zero-point vibrational energy     293921.0 (Joules/Mol)
                                   70.24880 (Kcal/Mol)
 Warning -- explicit consideration of  13 degrees of freedom as
           vibrations may cause significant error
 Vibrational temperatures:     73.26   123.26   166.34   174.60   242.38
          (Kelvin)            294.30   315.52   324.31   400.77   499.07
                              574.16   776.05   794.03   909.05  1040.61
                             1078.91  1092.91  1101.62  1177.59  1387.11
                             1577.59  1641.86  1696.42  1849.64  1957.12
                             2019.00  2064.58  2141.51  2162.99  2200.04
                             2672.19  3193.04  4426.06  4453.54  4524.19
                             4538.54  4563.54  5009.87  5463.58

 Zero-point correction=                           0.111949 (Hartree/Particle)
 Thermal correction to Energy=                    0.122254
 Thermal correction to Enthalpy=                  0.123198
 Thermal correction to Gibbs Free Energy=         0.075678
 Sum of electronic and zero-point Energies=           -420.089083
 Sum of electronic and thermal Energies=              -420.078778
 Sum of electronic and thermal Enthalpies=            -420.077833
 Sum of electronic and thermal Free Energies=         -420.125353

                     E (Thermal)             CV                S
                      KCal/Mol        Cal/Mol-Kelvin    Cal/Mol-Kelvin
 Total                   76.715             34.584            100.014
 Electronic               0.000              0.000              1.377
 Translational            0.889              2.981             40.136
 Rotational               0.889              2.981             28.498
 Vibrational             74.938             28.623             30.002
 Vibration     1          0.595              1.977              4.782
 Vibration     2          0.601              1.959              3.757
 Vibration     3          0.608              1.936              3.172
 Vibration     4          0.609              1.931              3.079
 Vibration     5          0.625              1.881              2.453
 Vibration     6          0.640              1.833              2.092
 Vibration     7          0.647              1.812              1.965
 Vibration     8          0.650              1.802              1.915
 Vibration     9          0.679              1.713              1.543
 Vibration    10          0.725              1.582              1.180
 Vibration    11          0.765              1.472              0.966
 Vibration    12          0.894              1.163              0.567
 Vibration    13          0.907              1.136              0.540

 Normal termination of Gaussian 16 at Fri Mar 28 09:03:57 2025.
