 Gaussian 16, Revision A.03,
 Gaussian 16:  ES64L-G16RevA.03 25-Dec-2016

 --------------------------
 # ccsd(t)/6-311++g(d,p) sp
 --------------------------

 -------------------
 Title Card Required
 -------------------
 Symbolic Z-matrix:
 Charge =  0 Multiplicity = 2

                         Standard orientation:
 ---------------------------------------------------------------------
 Center     Atomic      Atomic             Coordinates (Angstroms)
 Number     Number       Type             X           Y           Z
 ---------------------------------------------------------------------
      1          6           0       -2.104387   -1.057559   -0.846644
      2          1           0       -2.774903   -1.768161   -1.273575
      3          6           0       -1.273652   -0.357446   -0.269509
      4          6           0       -0.605911    0.937034    0.053143
      5          8           0       -1.219087    1.832517    0.550022
      6          8           0        0.686565    1.028584   -0.222513
      7          6           0        1.458596   -0.055781   -0.775272
      8          6           0        2.540804   -0.439302    0.209507
      9          1           0        0.815080   -0.904933   -1.003269
     10          1           0        1.877760    0.331498   -1.705165
     11          1           0        3.157363    0.426797    0.453689
     12          1           0        2.090786   -0.831469    1.121256
     13          1           0        3.178494   -1.209728   -0.228914
     14          8           0       -0.382045   -1.438569    1.020013
     15          1           0       -1.120755   -1.585939    1.628452
 ---------------------------------------------------------------------

 SCF Done:  E(UHF) =  -417.966940998     A.U. after   32 cycles
 E2 =    -0.1259658930D+01 EUMP2 =    -0.41922659992819D+03
 CCSD(T)= -0.41934819001D+03

 The electronic state is 2-A.
 Alpha  occ. eigenvalues --  -20.62795 -20.60623 -20.54913 -11.41318 -11.29837
 Alpha  occ. eigenvalues --  -11.28628 -11.28284 -11.22257  -1.47347  -1.38674
 Alpha  occ. eigenvalues --   -1.37516  -1.08647  -1.04615  -0.90786  -0.87475
 Alpha  occ. eigenvalues --   -0.76361  -0.73336  -0.70947  -0.67338  -0.66177
 Alpha  occ. eigenvalues --   -0.65733  -0.61148  -0.56972  -0.55782  -0.55348
 Alpha  occ. eigenvalues --   -0.52727  -0.50552  -0.47500  -0.44899  -0.44039
 Alpha  occ. eigenvalues --   -0.42871
 Alpha virt. eigenvalues --    0.03211   0.04604   0.05396   0.06587   0.06909
 Alpha virt. eigenvalues --    0.08634   0.09390   0.10442   0.10886   0.12442
 Alpha virt. eigenvalues --    0.12772   0.12968   0.14141   0.15670   0.16278

  Beta  occ. eigenvalues --  -20.60560 -20.59342 -20.55415 -11.40922 -11.30487
  Beta  occ. eigenvalues --  -11.29865 -11.25997 -11.22254  -1.47454  -1.38256
  Beta  occ. eigenvalues --   -1.26946  -1.07343  -1.04525  -0.89716  -0.86466
  Beta  occ. eigenvalues --   -0.75728  -0.72430  -0.70194  -0.66968  -0.64394
  Beta  occ. eigenvalues --   -0.62374  -0.57011  -0.56314  -0.53835  -0.51341
  Beta  occ. eigenvalues --   -0.50483  -0.49037  -0.46608  -0.45336  -0.42701
  Beta virt. eigenvalues --    0.03235   0.03758   0.04729   0.06410   0.06794
  Beta virt. eigenvalues --    0.07407   0.08304   0.09736   0.11165   0.11602
  Beta virt. eigenvalues --    0.12385   0.12968   0.13720   0.14865   0.16022

 Mulliken charges and spin densities:
               1          2
     1  C   -0.439946   1.284596
     2  H    0.252413  -0.093805
     3  C    0.369387  -1.031989
     4  C    0.105144   0.183192
     5  O   -0.335222  -0.102588
     6  O   -0.110533  -0.002745
     7  C   -0.320011   0.004436
     8  C   -0.408885  -0.006039
     9  H    0.200216   0.003626
    10  H    0.173953   0.001094
    11  H    0.160690  -0.000354
    12  H    0.160151   0.001433
    13  H    0.123877  -0.000226
    14  O   -0.192103   0.789059
    15  H    0.260869  -0.029690
 Sum of Mulliken charges =  -0.00000   1.00000

 Dipole moment (field-independent basis, Debye):
    X=             -0.0808    Y=             -4.4580    Z=             -1.5740  Tot=              4.7284
 Quadrupole moment (field-independent basis, Debye-Ang):
   XX=            -41.4751   YY=            -53.3275   ZZ=            -43.4546
   XY=              8.0876   XZ=              0.4116   YZ=             -2.0426

 P3-0=-419.2745003\MP4SDQ=-419.2847826\CCSD=-419.2927162\CCSD(T)=-419.3
 Normal termination of Gaussian 16 at Tue May 13 22:05:00 2025.
