 Gaussian 16, Revision A.03,
 Gaussian 16:  ES64L-G16RevA.03 25-Dec-2016

 --------------------------
 # freq 6-311++g(d,p) m062x
 --------------------------

 -------------------
 Title Card Required
 -------------------
 Symbolic Z-matrix:
 Charge =  0 Multiplicity = 2

                         Standard orientation:
 ---------------------------------------------------------------------
 Center     Atomic      Atomic             Coordinates (Angstroms)
 Number     Number       Type             X           Y           Z
 ---------------------------------------------------------------------
      1          6           0       -2.104387   -1.057559   -0.846644
      2          1           0       -2.774903   -1.768161   -1.273575
      3          6           0       -1.273652   -0.357446   -0.269509
      4          6           0       -0.605911    0.937034    0.053143
      5          8           0       -1.219087    1.832517    0.550022
      6          8           0        0.686565    1.028584   -0.222513
      7          6           0        1.458596   -0.055781   -0.775272
      8          6           0        2.540804   -0.439302    0.209507
      9          1           0        0.815080   -0.904933   -1.003269
     10          1           0        1.877760    0.331498   -1.705165
     11          1           0        3.157363    0.426797    0.453689
     12          1           0        2.090786   -0.831469    1.121256
     13          1           0        3.178494   -1.209728   -0.228914
     14          8           0       -0.382045   -1.438569    1.020013
     15          1           0       -1.120755   -1.585939    1.628452
 ---------------------------------------------------------------------

 SCF Done:  E(UM062X) =  -420.198628116     A.U. after   21 cycles

 The electronic state is 2-A.
 Alpha  occ. eigenvalues --  -19.67986 -19.65715 -19.62731 -10.70845 -10.62142
 Alpha  occ. eigenvalues --  -10.60657 -10.60341 -10.53209  -1.25197  -1.16560
 Alpha  occ. eigenvalues --   -1.12012  -0.91588  -0.88121  -0.76726  -0.73967
 Alpha  occ. eigenvalues --   -0.65204  -0.62788  -0.59363  -0.56388  -0.54270
 Alpha  occ. eigenvalues --   -0.53374  -0.49494  -0.47649  -0.47119  -0.44792
 Alpha  occ. eigenvalues --   -0.42139  -0.40990  -0.40512  -0.37573  -0.36803
 Alpha  occ. eigenvalues --   -0.33611
 Alpha virt. eigenvalues --   -0.01096  -0.00775   0.00524   0.01007   0.02052
 Alpha virt. eigenvalues --    0.02437   0.03174   0.04649   0.05509   0.05926
 Alpha virt. eigenvalues --    0.07095   0.07383   0.08574   0.09385   0.09939

  Beta  occ. eigenvalues --  -19.67978 -19.64597 -19.62755 -10.70811 -10.62249
  Beta  occ. eigenvalues --  -10.60661 -10.59950 -10.53207  -1.25178  -1.16596
  Beta  occ. eigenvalues --   -1.07925  -0.90010  -0.88039  -0.76253  -0.73590
  Beta  occ. eigenvalues --   -0.64770  -0.62303  -0.58928  -0.56314  -0.52874
  Beta  occ. eigenvalues --   -0.52287  -0.47859  -0.47509  -0.44698  -0.42138
  Beta  occ. eigenvalues --   -0.41712  -0.39940  -0.38658  -0.37520  -0.35821
  Beta virt. eigenvalues --   -0.11011  -0.00693  -0.00164   0.00614   0.01322
  Beta virt. eigenvalues --    0.02303   0.02620   0.03416   0.04549   0.05723
  Beta virt. eigenvalues --    0.06023   0.07080   0.07408   0.08488   0.09446

 Mulliken charges and spin densities:
               1          2
     1  C   -0.243736   0.635075
     2  H    0.239488  -0.026654
     3  C    0.193933  -0.210391
     4  C    0.005754   0.037509
     5  O   -0.245651  -0.010242
     6  O   -0.022916   0.000103
     7  C   -0.358417   0.008511
     8  C   -0.443012  -0.005109
     9  H    0.190300   0.004390
    10  H    0.210428   0.001006
    11  H    0.177184  -0.000481
    12  H    0.186215   0.000725
    13  H    0.149927  -0.000262
    14  O   -0.290346   0.576169
    15  H    0.250849  -0.010348
 Sum of Mulliken charges =  -0.00000   1.00000

 Dipole moment (field-independent basis, Debye):
    X=             -0.3962    Y=             -3.6425    Z=             -2.0416  Tot=              4.1944
 Quadrupole moment (field-independent basis, Debye-Ang):
   XX=            -40.1844   YY=            -53.2161   ZZ=            -44.0718
   XY=              7.7533   XZ=              0.9267   YZ=             -0.8098

  Exact polarizability:  86.238  -0.769  70.370   9.556   1.480  67.243
 Approx polarizability:  93.893  -0.025  83.965  11.369   5.876  80.970

 ******    1 imaginary frequencies (negative Signs) ******

                      1                      2                      3
                      A                      A                      A
 Frequencies --   -665.3555                87.3360               105.9543
 Red. masses --     12.4809                 5.8976                 2.7210
 Frc consts  --      3.2554                 0.0265                 0.0180
 IR Inten    --     17.9967                 0.2997                 0.9755

                      4                      5                      6
                      A                      A                      A
 Frequencies --    112.6767               187.0337               200.7304
 Red. masses --      4.3199                 1.5389                 5.5774
 Frc consts  --      0.0323                 0.0317                 0.1324
 IR Inten    --      4.7669                61.2683                 1.6265

                      7                      8                      9
                      A                      A                      A
 Frequencies --    209.4898               235.6746               280.3913
 Red. masses --      1.4551                 1.6992                 2.7761
 Frc consts  --      0.0376                 0.0556                 0.1286
 IR Inten    --     21.7318                 1.5072                 9.2725

                     10                     11                     12
                      A                      A                      A
 Frequencies --    368.4002               404.6440               542.8378
 Red. masses --      2.9436                 3.4174                 3.0691
 Frc consts  --      0.2354                 0.3297                 0.5328
 IR Inten    --      0.9095                 7.1778                30.8066

                     13                     14                     15
                      A                      A                      A
 Frequencies --    568.5506               625.7095               725.3248
 Red. masses --      1.6952                 5.1445                 1.4481
 Frc consts  --      0.3229                 1.1867                 0.4489
 IR Inten    --     24.7100                 4.6432                28.3558

                     16                     17                     18
                      A                      A                      A
 Frequencies --    736.2099               756.2472               816.8481
 Red. masses --      4.3015                 6.9285                 1.1448
 Frc consts  --      1.3736                 2.3346                 0.4500
 IR Inten    --     27.5954                 6.9938                 8.4367

                     19                     20                     21
                      A                      A                      A
 Frequencies --    890.4890               961.0059              1092.6908
 Red. masses --      1.1471                 2.1909                 4.1813
 Frc consts  --      0.5359                 1.1921                 2.9414
 IR Inten    --     70.4058                19.0765                61.0980

                     22                     23                     24
                      A                      A                      A
 Frequencies --   1139.4564              1179.0016              1279.5201
 Red. masses --      2.3120                 1.8126                 2.5497
 Frc consts  --      1.7686                 1.4845                 2.4594
 IR Inten    --     28.8897                50.6334               333.1718

                     25                     26                     27
                      A                      A                      A
 Frequencies --   1362.3921              1402.3708              1434.1983
 Red. masses --      1.4033                 1.2577                 1.3625
 Frc consts  --      1.5346                 1.4573                 1.6513
 IR Inten    --    144.1331                24.7099                16.7785

                     28                     29                     30
                      A                      A                      A
 Frequencies --   1488.6204              1503.4984              1531.8366
 Red. masses --      1.0378                 1.0465                 1.0999
 Frc consts  --      1.3550                 1.3938                 1.5207
 IR Inten    --      5.5527                 4.9890                 4.9703

                     31                     32                     33
                      A                      A                      A
 Frequencies --   1867.1206              1997.0844              3075.0650
 Red. masses --     12.7926                 6.6648                 1.0354
 Frc consts  --     26.2757                15.6613                 5.7686
 IR Inten    --    537.1090                62.8818                12.7622

                     34                     35                     36
                      A                      A                      A
 Frequencies --   3098.9852              3146.5386              3155.8451
 Red. masses --      1.0613                 1.1042                 1.1010
 Frc consts  --      6.0053                 6.4412                 6.4608
 IR Inten    --     21.1679                 6.2386                10.5896

                     37                     38                     39
                      A                      A                      A
 Frequencies --   3173.1909              3457.4464              3833.4133
 Red. masses --      1.1058                 1.1377                 1.0678
 Frc consts  --      6.5604                 8.0129                 9.2450
 IR Inten    --     13.3285                76.6027                63.4034

 - Thermochemistry -
 -------------------
 Temperature   298.150 Kelvin.  Pressure   1.00000 Atm.
 Atom     1 has atomic number  6 and mass  12.00000

 Molecular mass:   115.03952 amu.
 Principal axes and moments of inertia in atomic units:
                           1         2         3
     Eigenvalues --   676.886921072.810181397.69245
           X            0.99984   0.01778   0.00325
           Y           -0.01776   0.99983  -0.00435
           Z           -0.00333   0.00429   0.99999
 This molecule is an asymmetric top.
 Rotational symmetry number  1.
 Warning -- assumption of classical behavior for rotation
           may cause significant error
 Rotational temperatures (Kelvin)      0.12796     0.08074     0.06197
 Rotational constants (GHZ):           2.66624     1.68226     1.29123
    1 imaginary frequencies ignored.
 Zero-point vibrational energy     293287.4 (Joules/Mol)
                                   70.09738 (Kcal/Mol)
 Warning -- explicit consideration of  12 degrees of freedom as
           vibrations may cause significant error
 Vibrational temperatures:    125.66   152.44   162.12   269.10   288.81
          (Kelvin)            301.41   339.08   403.42   530.05   582.19
                              781.02   818.02   900.26  1043.58  1059.24
                             1088.07  1175.26  1281.21  1382.67  1572.14
                             1639.42  1696.32  1840.94  1960.18  2017.70
                             2063.49  2141.79  2163.20  2203.97  2686.37
                             2873.36  4424.33  4458.75  4527.17  4540.56
                             4565.51  4974.49  5515.43

 Zero-point correction=                           0.111707 (Hartree/Particle)
 Thermal correction to Energy=                    0.121119
 Thermal correction to Enthalpy=                  0.122063
 Thermal correction to Gibbs Free Energy=         0.076911
 Sum of electronic and zero-point Energies=           -420.086921
 Sum of electronic and thermal Energies=              -420.077509
 Sum of electronic and thermal Enthalpies=            -420.076565
 Sum of electronic and thermal Free Energies=         -420.121717

                     E (Thermal)             CV                S
                      KCal/Mol        Cal/Mol-Kelvin    Cal/Mol-Kelvin
 Total                   76.003             32.361             95.031
 Electronic               0.000              0.000              1.377
 Translational            0.889              2.981             40.136
 Rotational               0.889              2.981             28.408
 Vibrational             74.226             26.399             25.109
 Vibration     1          0.601              1.958              3.719
 Vibration     2          0.605              1.944              3.342
 Vibration     3          0.607              1.939              3.222
 Vibration     4          0.632              1.858              2.257
 Vibration     5          0.638              1.839              2.126
 Vibration     6          0.642              1.826              2.048
 Vibration     7          0.655              1.786              1.835
 Vibration     8          0.680              1.710              1.531
 Vibration     9          0.741              1.537              1.086
 Vibration    10          0.770              1.460              0.946
 Vibration    11          0.898              1.155              0.559
 Vibration    12          0.925              1.099              0.507

 Normal termination of Gaussian 16 at Fri Mar 28 06:20:45 2025.
