 Gaussian 16, Revision A.03,
 Gaussian 16:  ES64L-G16RevA.03 25-Dec-2016

 --------------------------
 # ccsd(t)/6-311++g(d,p) sp
 --------------------------

 -------------------
 Title Card Required
 -------------------
 Symbolic Z-matrix:
 Charge =  0 Multiplicity = 2

                         Standard orientation:
 ---------------------------------------------------------------------
 Center     Atomic      Atomic             Coordinates (Angstroms)
 Number     Number       Type             X           Y           Z
 ---------------------------------------------------------------------
      1          6           0       -2.101264   -1.065425   -0.848943
      2          1           0       -2.766594   -1.782843   -1.271500
      3          6           0       -1.306074   -0.311403   -0.328110
      4          6           0       -0.613042    0.936686    0.063794
      5          8           0       -1.223584    1.821236    0.584430
      6          8           0        0.680411    1.034259   -0.209826
      7          6           0        1.453593   -0.037890   -0.782154
      8          6           0        2.543893   -0.428324    0.191485
      9          1           0        0.811119   -0.886276   -1.017086
     10          1           0        1.866249    0.362425   -1.709488
     11          1           0        3.156759    0.438004    0.443878
     12          1           0        2.102953   -0.833917    1.101918
     13          1           0        3.183629   -1.189624   -0.259626
     14          8           0       -0.346041   -1.485984    1.038723
     15          1           0       -1.103033   -1.625721    1.628858
 ---------------------------------------------------------------------

 SCF Done:  E(UHF) =  -417.970617061     A.U. after   37 cycles
 E2 =    -0.1259687061D+01 EUMP2 =    -0.41923030412141D+03
 CCSD(T)= -0.41934642398D+03

 The electronic state is 2-A.
 Alpha  occ. eigenvalues --  -20.63705 -20.60614 -20.54857 -11.41365 -11.29841
 Alpha  occ. eigenvalues --  -11.27949 -11.27131 -11.22340  -1.47300  -1.39578
 Alpha  occ. eigenvalues --   -1.37477  -1.08202  -1.04627  -0.90737  -0.87458
 Alpha  occ. eigenvalues --   -0.76144  -0.73316  -0.71059  -0.67456  -0.67245
 Alpha  occ. eigenvalues --   -0.66105  -0.61274  -0.57039  -0.56493  -0.55538
 Alpha  occ. eigenvalues --   -0.52881  -0.50566  -0.47371  -0.45074  -0.43536
 Alpha  occ. eigenvalues --   -0.42800
 Alpha virt. eigenvalues --    0.03214   0.04603   0.05341   0.06593   0.06895
 Alpha virt. eigenvalues --    0.08617   0.09317   0.10377   0.10747   0.12512
 Alpha virt. eigenvalues --    0.12794   0.12994   0.14248   0.15686   0.16247

  Beta  occ. eigenvalues --  -20.60555 -20.59860 -20.55364 -11.41000 -11.29864
  Beta  occ. eigenvalues --  -11.28869 -11.25905 -11.22336  -1.47418  -1.38223
  Beta  occ. eigenvalues --   -1.25827  -1.07485  -1.04554  -0.89911  -0.86771
  Beta  occ. eigenvalues --   -0.75722  -0.72557  -0.70023  -0.67048  -0.64485
  Beta  occ. eigenvalues --   -0.62075  -0.56998  -0.56470  -0.53845  -0.51553
  Beta  occ. eigenvalues --   -0.50526  -0.48776  -0.46326  -0.44512  -0.42602
  Beta virt. eigenvalues --    0.03246   0.03938   0.04772   0.06501   0.06810
  Beta virt. eigenvalues --    0.07727   0.08358   0.09569   0.11148   0.11545
  Beta virt. eigenvalues --    0.12343   0.13007   0.13610   0.14819   0.15948

 Mulliken charges and spin densities:
               1          2
     1  C   -1.005801   0.999986
     2  H    0.244255  -0.074241
     3  C    0.859939  -0.865660
     4  C    0.195716   0.182110
     5  O   -0.336140  -0.104537
     6  O   -0.110352  -0.003020
     7  C   -0.330820   0.005983
     8  C   -0.404696  -0.005691
     9  H    0.195159   0.001213
    10  H    0.172637   0.001386
    11  H    0.161049  -0.000211
    12  H    0.154214   0.001906
    13  H    0.126457  -0.000406
    14  O   -0.180115   0.895460
    15  H    0.258499  -0.034278
 Sum of Mulliken charges =  -0.00000   1.00000

 Dipole moment (field-independent basis, Debye):
    X=              0.0856    Y=             -4.5590    Z=             -1.4065  Tot=              4.7718
 Quadrupole moment (field-independent basis, Debye-Ang):
   XX=            -41.8386   YY=            -52.8544   ZZ=            -43.4070
   XY=              8.1923   XZ=              0.2832   YZ=             -2.5335

 \PMP3-0=-419.2721708\MP4SDQ=-419.2865207\CCSD=-419.2918729\CCSD(T)=-41
 Normal termination of Gaussian 16 at Wed May 14 03:48:11 2025.
