 Gaussian 16, Revision A.03,
 Gaussian 16:  ES64L-G16RevA.03 25-Dec-2016

 --------------------------
 # ccsd(t)/6-311++g(d,p) sp
 --------------------------

 -------------------
 Title Card Required
 -------------------
 Symbolic Z-matrix:
 Charge =  0 Multiplicity = 2

                         Standard orientation:
 ---------------------------------------------------------------------
 Center     Atomic      Atomic             Coordinates (Angstroms)
 Number     Number       Type             X           Y           Z
 ---------------------------------------------------------------------
      1          6           0       -2.100655   -1.069183   -0.851559
      2          1           0       -2.761238   -1.794400   -1.267722
      3          6           0       -1.321369   -0.289423   -0.356145
      4          6           0       -0.617818    0.937339    0.067721
      5          8           0       -1.225706    1.815434    0.603143
      6          8           0        0.676851    1.037124   -0.202941
      7          6           0        1.450516   -0.028407   -0.785795
      8          6           0        2.545567   -0.421987    0.181566
      9          1           0        0.808883   -0.876637   -1.024141
     10          1           0        1.859303    0.378523   -1.712008
     11          1           0        3.156533    0.444599    0.437597
     12          1           0        2.109889   -0.834378    1.091490
     13          1           0        3.186212   -1.178444   -0.276334
     14          8           0       -0.326583   -1.510752    1.048319
     15          1           0       -1.093526   -1.643744    1.628218
 ---------------------------------------------------------------------

 SCF Done:  E(UHF) =  -417.973345198     A.U. after   38 cycles
 E2 =    -0.1260734243D+01 EUMP2 =    -0.41923407944095D+03
 CCSD(T)= -0.41934695140D+03

 The electronic state is 2-A.
 Alpha  occ. eigenvalues --  -20.64004 -20.60624 -20.54877 -11.41395 -11.29847
 Alpha  occ. eigenvalues --  -11.27782 -11.26867 -11.22360  -1.47288  -1.39830
 Alpha  occ. eigenvalues --   -1.37487  -1.08053  -1.04625  -0.90731  -0.87461
 Alpha  occ. eigenvalues --   -0.76085  -0.73316  -0.71066  -0.67678  -0.67465
 Alpha  occ. eigenvalues --   -0.66187  -0.61289  -0.57087  -0.56704  -0.55625
 Alpha  occ. eigenvalues --   -0.52927  -0.50576  -0.47398  -0.45185  -0.43376
 Alpha  occ. eigenvalues --   -0.42737
 Alpha virt. eigenvalues --    0.03207   0.04606   0.05325   0.06595   0.06891
 Alpha virt. eigenvalues --    0.08597   0.09265   0.10293   0.10719   0.12527
 Alpha virt. eigenvalues --    0.12804   0.13027   0.14300   0.15696   0.16217

  Beta  occ. eigenvalues --  -20.60569 -20.60053 -20.55361 -11.41059 -11.29867
  Beta  occ. eigenvalues --  -11.28386 -11.25990 -11.22356  -1.47405  -1.38199
  Beta  occ. eigenvalues --   -1.25463  -1.07507  -1.04558  -0.90009  -0.86905
  Beta  occ. eigenvalues --   -0.75746  -0.72644  -0.69940  -0.67081  -0.64543
  Beta  occ. eigenvalues --   -0.61930  -0.56997  -0.56512  -0.53837  -0.51632
  Beta  occ. eigenvalues --   -0.50551  -0.48690  -0.46270  -0.44175  -0.42574
  Beta virt. eigenvalues --    0.03243   0.04006   0.04787   0.06533   0.06815
  Beta virt. eigenvalues --    0.07874   0.08378   0.09491   0.11039   0.11520
  Beta virt. eigenvalues --    0.12353   0.13035   0.13543   0.14794   0.15922

 Mulliken charges and spin densities:
               1          2
     1  C   -1.357191   0.856883
     2  H    0.238271  -0.064157
     3  C    1.173322  -0.766398
     4  C    0.249148   0.180832
     5  O   -0.337084  -0.100178
     6  O   -0.110364  -0.002900
     7  C   -0.332558   0.005890
     8  C   -0.405168  -0.004929
     9  H    0.191667   0.000281
    10  H    0.172035   0.001391
    11  H    0.161097  -0.000123
    12  H    0.152293   0.001869
    13  H    0.127608  -0.000465
    14  O   -0.181311   0.927609
    15  H    0.258236  -0.035604
 Sum of Mulliken charges =  -0.00000   1.00000

 Dipole moment (field-independent basis, Debye):
    X=              0.1322    Y=             -4.5823    Z=             -1.3691  Tot=              4.7843
 Quadrupole moment (field-independent basis, Debye-Ang):
   XX=            -41.9857   YY=            -52.6638   ZZ=            -43.4524
   XY=              8.2660   XZ=              0.2303   YZ=             -2.7168

 9\PMP3-0=-419.2727146\MP4SDQ=-419.2890019\CCSD=-419.292857\CCSD(T)=-41
 Normal termination of Gaussian 16 at Wed May 14 19:17:41 2025.
