 Gaussian 16, Revision A.03,
 Gaussian 16:  ES64L-G16RevA.03 25-Dec-2016

 --------------------------
 # ccsd(t)/6-311++g(d,p) sp
 --------------------------

 -------------------
 Title Card Required
 -------------------
 Symbolic Z-matrix:
 Charge =  0 Multiplicity = 2

                         Standard orientation:
 ---------------------------------------------------------------------
 Center     Atomic      Atomic             Coordinates (Angstroms)
 Number     Number       Type             X           Y           Z
 ---------------------------------------------------------------------
      1          6           0       -2.095566   -1.083075   -0.869278
      2          1           0       -2.728291   -1.850176   -1.251441
      3          6           0       -1.366935   -0.225210   -0.445919
      4          6           0       -0.642575    0.945949    0.074072
      5          8           0       -1.237001    1.791466    0.675360
      6          8           0        0.657588    1.047349   -0.176160
      7          6           0        1.434014    0.007523   -0.798766
      8          6           0        2.552329   -0.388578    0.141548
      9          1           0        0.798884   -0.844848   -1.041140
     10          1           0        1.821157    0.436878   -1.724377
     11          1           0        3.154402    0.482158    0.404400
     12          1           0        2.140340   -0.824552    1.051326
     13          1           0        3.196335   -1.125817   -0.342232
     14          8           0       -0.248229   -1.604008    1.084046
     15          1           0       -1.049297   -1.691757    1.627557
 ---------------------------------------------------------------------

 SCF Done:  E(UHF) =  -417.981906108     A.U. after   40 cycles
 E2 =    -0.1264080291D+01 EUMP2 =    -0.41924598639890D+03
 CCSD(T)= -0.41935018032D+03

 The electronic state is 2-A.
 Alpha  occ. eigenvalues --  -20.64566 -20.60680 -20.55053 -11.41533 -11.29888
 Alpha  occ. eigenvalues --  -11.27634 -11.26766 -11.22367  -1.47323  -1.40164
 Alpha  occ. eigenvalues --   -1.37616  -1.07812  -1.04627  -0.90653  -0.87445
 Alpha  occ. eigenvalues --   -0.76054  -0.73335  -0.70928  -0.68371  -0.67533
 Alpha  occ. eigenvalues --   -0.66410  -0.61237  -0.57303  -0.56952  -0.55914
 Alpha  occ. eigenvalues --   -0.53008  -0.50636  -0.47692  -0.45516  -0.43156
 Alpha  occ. eigenvalues --   -0.42685
 Alpha virt. eigenvalues --    0.03171   0.04632   0.05318   0.06587   0.06894
 Alpha virt. eigenvalues --    0.08466   0.09068   0.10047   0.10649   0.12482
 Alpha virt. eigenvalues --    0.12825   0.13176   0.14532   0.15813   0.15963

  Beta  occ. eigenvalues --  -20.60645 -20.60468 -20.55379 -11.41324 -11.29899
  Beta  occ. eigenvalues --  -11.27643 -11.26571 -11.22365  -1.47408  -1.38096
  Beta  occ. eigenvalues --   -1.24736  -1.07519  -1.04581  -0.90246  -0.87179
  Beta  occ. eigenvalues --   -0.75886  -0.72954  -0.69694  -0.67189  -0.64764
  Beta  occ. eigenvalues --   -0.61469  -0.57045  -0.56463  -0.53759  -0.51756
  Beta  occ. eigenvalues --   -0.50642  -0.48466  -0.46136  -0.43550  -0.42619
  Beta virt. eigenvalues --    0.03214   0.04171   0.04818   0.06593   0.06844
  Beta virt. eigenvalues --    0.08081   0.08496   0.09238   0.10501   0.11474
  Beta virt. eigenvalues --    0.12376   0.13121   0.13315   0.14810   0.15962

 Mulliken charges and spin densities:
               1          2
     1  C   -1.955174   0.431505
     2  H    0.222357  -0.035319
     3  C    1.876986  -0.423992
     4  C    0.196004   0.146621
     5  O   -0.341958  -0.068339
     6  O   -0.112794  -0.001753
     7  C   -0.324766  -0.000614
     8  C   -0.412736  -0.000333
     9  H    0.179183  -0.000323
    10  H    0.171045   0.000978
    11  H    0.160572   0.000050
    12  H    0.150055   0.001007
    13  H    0.130062  -0.000372
    14  O   -0.198031   0.988280
    15  H    0.259195  -0.037395
 Sum of Mulliken charges =  -0.00000   1.00000

 Dipole moment (field-independent basis, Debye):
    X=              0.1886    Y=             -4.5455    Z=             -1.4162  Tot=              4.7648
 Quadrupole moment (field-independent basis, Debye-Ang):
   XX=            -42.4676   YY=            -52.1614   ZZ=            -43.7902
   XY=              8.5400   XZ=              0.1310   YZ=             -3.1369

 \PMP3-0=-419.2769994\MP4SDQ=-419.2972786\CCSD=-419.2971524\CCSD(T)=-41
 Normal termination of Gaussian 16 at Wed May 14 17:30:59 2025.
