 Gaussian 16, Revision A.03,
 Gaussian 16:  ES64L-G16RevA.03 25-Dec-2016

 --------------------------
 # ccsd(t)/6-311++g(d,p) sp
 --------------------------

 -------------------
 Title Card Required
 -------------------
 Symbolic Z-matrix:
 Charge =  0 Multiplicity = 2

                         Standard orientation:
 ---------------------------------------------------------------------
 Center     Atomic      Atomic             Coordinates (Angstroms)
 Number     Number       Type             X           Y           Z
 ---------------------------------------------------------------------
      1          6           0       -2.108205   -1.035445   -0.851640
      2          1           0       -2.766997   -1.776453   -1.249562
      3          6           0       -1.217390   -0.438189   -0.165354
      4          6           0       -0.600366    0.934168    0.034182
      5          8           0       -1.212761    1.847639    0.499186
      6          8           0        0.695669    1.020555   -0.239492
      7          6           0        1.466037   -0.079686   -0.763622
      8          6           0        2.535837   -0.453953    0.237792
      9          1           0        0.822331   -0.929595   -0.986660
     10          1           0        1.896742    0.287715   -1.696212
     11          1           0        3.157023    0.411660    0.471699
     12          1           0        2.074044   -0.826445    1.151765
     13          1           0        3.171367   -1.236960   -0.181153
     14          8           0       -0.441242   -1.363426    0.980343
     15          1           0       -1.143320   -1.529434    1.621687
 ---------------------------------------------------------------------

 SCF Done:  E(UHF) =  -417.980479126     A.U. after   29 cycles
 E2 =    -0.1272200054D+01 EUMP2 =    -0.41925267917964D+03
 CCSD(T)= -0.41936654959D+03

 The electronic state is 2-A.
 Alpha  occ. eigenvalues --  -20.60667 -20.60521 -20.55267 -11.41108 -11.32442
 Alpha  occ. eigenvalues --  -11.29851 -11.29757 -11.22088  -1.47381  -1.37698
 Alpha  occ. eigenvalues --   -1.36502  -1.09570  -1.04533  -0.91000  -0.87584
 Alpha  occ. eigenvalues --   -0.76768  -0.73228  -0.71043  -0.67310  -0.65711
 Alpha  occ. eigenvalues --   -0.63747  -0.60344  -0.56962  -0.55100  -0.54367
 Alpha  occ. eigenvalues --   -0.52097  -0.50513  -0.47964  -0.45066  -0.44788
 Alpha  occ. eigenvalues --   -0.42124
 Alpha virt. eigenvalues --    0.03216   0.04620   0.05440   0.06577   0.06929
 Alpha virt. eigenvalues --    0.08582   0.09465   0.10393   0.11285   0.12340
 Alpha virt. eigenvalues --    0.12776   0.13044   0.14001   0.15669   0.16345

  Beta  occ. eigenvalues --  -20.60622 -20.58813 -20.55556 -11.40780 -11.34457
  Beta  occ. eigenvalues --  -11.29880 -11.26512 -11.22086  -1.47424  -1.38122
  Beta  occ. eigenvalues --   -1.31619  -1.06483  -1.04373  -0.89440  -0.85983
  Beta  occ. eigenvalues --   -0.75776  -0.71997  -0.70715  -0.66818  -0.65042
  Beta  occ. eigenvalues --   -0.62978  -0.57133  -0.55995  -0.54125  -0.52601
  Beta  occ. eigenvalues --   -0.51257  -0.50075  -0.47751  -0.45663  -0.42597
  Beta virt. eigenvalues --    0.03240   0.03561   0.04658   0.06195   0.06712
  Beta virt. eigenvalues --    0.07065   0.08206   0.10033   0.11001   0.11550
  Beta virt. eigenvalues --    0.12826   0.12921   0.13790   0.14899   0.16108

 Mulliken charges and spin densities:
               1          2
     1  C   -0.014068   1.644475
     2  H    0.251260  -0.101454
     3  C    0.007177  -0.995271
     4  C    0.090094   0.154587
     5  O   -0.334229  -0.056338
     6  O   -0.107991  -0.001303
     7  C   -0.294086   0.002099
     8  C   -0.422580  -0.003637
     9  H    0.198423   0.006249
    10  H    0.174607  -0.000091
    11  H    0.160346  -0.000532
    12  H    0.171303   0.000033
    13  H    0.120049   0.000139
    14  O   -0.275032   0.363700
    15  H    0.274727  -0.012657
 Sum of Mulliken charges =  -0.00000   1.00000

 Dipole moment (field-independent basis, Debye):
    X=             -0.3785    Y=             -4.2804    Z=             -1.8410  Tot=              4.6748
 Quadrupole moment (field-independent basis, Debye-Ang):
   XX=            -41.1568   YY=            -54.0850   ZZ=            -43.8797
   XY=              7.9797   XZ=              0.3508   YZ=             -1.2068

 18\PMP3-0=-419.2923627\MP4SDQ=-419.3069519\CCSD=-419.3114527\CCSD(T)=-
 Normal termination of Gaussian 16 at Wed May 14 14:58:08 2025.
