 Gaussian 16, Revision A.03,
 Gaussian 16:  ES64L-G16RevA.03 25-Dec-2016

 --------------------------
 # freq 6-311++g(d,p) m062x
 --------------------------

 -------------------
 Title Card Required
 -------------------
 Symbolic Z-matrix:
 Charge =  0 Multiplicity = 2

                         Standard orientation:
 ---------------------------------------------------------------------
 Center     Atomic      Atomic             Coordinates (Angstroms)
 Number     Number       Type             X           Y           Z
 ---------------------------------------------------------------------
      1          6           0       -2.095566   -1.083075   -0.869278
      2          1           0       -2.728291   -1.850176   -1.251441
      3          6           0       -1.366935   -0.225210   -0.445919
      4          6           0       -0.642575    0.945949    0.074072
      5          8           0       -1.237001    1.791466    0.675360
      6          8           0        0.657588    1.047349   -0.176160
      7          6           0        1.434014    0.007523   -0.798766
      8          6           0        2.552329   -0.388578    0.141548
      9          1           0        0.798884   -0.844848   -1.041140
     10          1           0        1.821157    0.436878   -1.724377
     11          1           0        3.154402    0.482158    0.404400
     12          1           0        2.140340   -0.824552    1.051326
     13          1           0        3.196335   -1.125817   -0.342232
     14          8           0       -0.248229   -1.604008    1.084046
     15          1           0       -1.049297   -1.691757    1.627557
 ---------------------------------------------------------------------

 SCF Done:  E(UM062X) =  -420.202014760     A.U. after   27 cycles

 The electronic state is 2-A.
 Alpha  occ. eigenvalues --  -19.69068 -19.67753 -19.62407 -10.70661 -10.60639
 Alpha  occ. eigenvalues --  -10.58540 -10.58256 -10.53400  -1.24868  -1.16237
 Alpha  occ. eigenvalues --   -1.14711  -0.90092  -0.88059  -0.76304  -0.73693
 Alpha  occ. eigenvalues --   -0.64550  -0.62056  -0.59358  -0.56263  -0.56094
 Alpha  occ. eigenvalues --   -0.52703  -0.50668  -0.47770  -0.47554  -0.45096
 Alpha  occ. eigenvalues --   -0.43669  -0.41863  -0.39897  -0.37816  -0.36812
 Alpha  occ. eigenvalues --   -0.36126
 Alpha virt. eigenvalues --   -0.01734  -0.00764   0.00569   0.00966   0.02222
 Alpha virt. eigenvalues --    0.02458   0.03507   0.04738   0.05700   0.06004
 Alpha virt. eigenvalues --    0.07231   0.07483   0.08729   0.09492   0.10305

  Beta  occ. eigenvalues --  -19.67754 -19.67494 -19.62418 -10.70654 -10.60639
  Beta  occ. eigenvalues --  -10.58505 -10.58191 -10.53398  -1.24868  -1.16257
  Beta  occ. eigenvalues --   -1.07124  -0.89683  -0.88016  -0.76211  -0.73604
  Beta  occ. eigenvalues --   -0.64478  -0.61862  -0.58775  -0.56125  -0.53838
  Beta  occ. eigenvalues --   -0.51738  -0.47928  -0.47551  -0.44720  -0.42033
  Beta  occ. eigenvalues --   -0.40517  -0.39926  -0.39057  -0.37228  -0.35990
  Beta virt. eigenvalues --   -0.10272  -0.01351  -0.00630   0.00614   0.01323
  Beta virt. eigenvalues --    0.02329   0.02555   0.03574   0.04798   0.05844
  Beta virt. eigenvalues --    0.06160   0.07313   0.07588   0.08792   0.09537

 Mulliken charges and spin densities:
               1          2
     1  C   -1.426247   0.144816
     2  H    0.201153  -0.006083
     3  C    1.378418  -0.068211
     4  C    0.033349   0.030632
     5  O   -0.249363  -0.005696
     6  O   -0.026045  -0.001480
     7  C   -0.343786   0.005967
     8  C   -0.452725  -0.001553
     9  H    0.162405  -0.001795
    10  H    0.210326   0.001379
    11  H    0.178602  -0.000226
    12  H    0.174226  -0.000258
    13  H    0.154993  -0.000797
    14  O   -0.254568   0.923171
    15  H    0.259259  -0.019867
 Sum of Mulliken charges =  -0.00000   1.00000

 Dipole moment (field-independent basis, Debye):
    X=              0.0642    Y=             -3.9453    Z=             -1.5299  Tot=              4.2321
 Quadrupole moment (field-independent basis, Debye-Ang):
   XX=            -41.7411   YY=            -51.9134   ZZ=            -44.0395
   XY=              7.9915   XZ=              0.2378   YZ=             -2.4684

  Exact polarizability:  82.896   2.631  70.650   4.286   5.558  61.789
 Approx polarizability:  88.432   6.279  86.777   3.486  11.949  72.868

                      1                      2                      3
                      A                      A                      A
 Frequencies --     52.0732                84.5987               114.1488
 Red. masses --      7.5530                 5.5922                 3.6797
 Frc consts  --      0.0121                 0.0236                 0.0282
 IR Inten    --      3.0545                 1.0186                 3.8960

                      4                      5                      6
                      A                      A                      A
 Frequencies --    117.7697               167.5511               199.1564
 Red. masses --      3.4824                 2.5510                 3.4802
 Frc consts  --      0.0285                 0.0422                 0.0813
 IR Inten    --      4.2527                11.0118                 6.6250

                      7                      8                      9
                      A                      A                      A
 Frequencies --    219.9558               226.0446               287.5973
 Red. masses --      1.5311                 1.3408                 3.0478
 Frc consts  --      0.0436                 0.0404                 0.1485
 IR Inten    --     51.3266                 6.7247                15.5010

                     10                     11                     12
                      A                      A                      A
 Frequencies --    344.3113               398.8138               512.8246
 Red. masses --      2.9433                 3.3583                 1.0867
 Frc consts  --      0.2056                 0.3147                 0.1684
 IR Inten    --      0.9557                 6.2259               102.9932

                     13                     14                     15
                      A                      A                      A
 Frequencies --    546.1255               632.4116               726.1708
 Red. masses --      5.4707                 5.8606                 1.3437
 Frc consts  --      0.9613                 1.3810                 0.4175
 IR Inten    --     24.6943                 2.2140                36.7303

                     16                     17                     18
                      A                      A                      A
 Frequencies --    751.1907               763.5194               768.3088
 Red. masses --      5.7099                 4.3782                 1.4512
 Frc consts  --      1.8983                 1.5038                 0.5047
 IR Inten    --     12.4924                 4.8725                51.3955

                     19                     20                     21
                      A                      A                      A
 Frequencies --    818.0065               964.2735              1096.0671
 Red. masses --      1.1546                 2.1767                 3.9260
 Frc consts  --      0.4552                 1.1925                 2.7789
 IR Inten    --      7.4848                15.1364                49.9882

                     22                     23                     24
                      A                      A                      A
 Frequencies --   1141.4584              1178.6737              1285.8988
 Red. masses --      2.4946                 1.7752                 2.4761
 Frc consts  --      1.9150                 1.4531                 2.4123
 IR Inten    --     37.9820                48.3361               370.9180

                     25                     26                     27
                      A                      A                      A
 Frequencies --   1359.3791              1402.9874              1434.8306
 Red. masses --      1.4455                 1.2569                 1.3623
 Frc consts  --      1.5738                 1.4576                 1.6524
 IR Inten    --    168.0631                27.2077                11.1608

                     28                     29                     30
                      A                      A                      A
 Frequencies --   1488.3918              1503.1820              1527.8781
 Red. masses --      1.0379                 1.0474                 1.1001
 Frc consts  --      1.3547                 1.3944                 1.5130
 IR Inten    --      5.2971                 3.5342                 4.0795

                     31                     32                     33
                      A                      A                      A
 Frequencies --   1855.8140              2226.1933              3076.1794
 Red. masses --     12.9525                 5.8120                 1.0356
 Frc consts  --     26.2828                16.9709                 5.7737
 IR Inten    --    508.2602                52.5534                12.1374

                     34                     35                     36
                      A                      A                      A
 Frequencies --   3094.4639              3144.0474              3154.2864
 Red. masses --      1.0603                 1.1054                 1.1012
 Frc consts  --      5.9819                 6.4378                 6.4553
 IR Inten    --     20.4631                 4.2369                12.9310

                     37                     38                     39
                      A                      A                      A
 Frequencies --   3171.5178              3483.1902              3793.1200
 Red. masses --      1.1052                 1.1662                 1.0672
 Frc consts  --      6.5496                 8.3367                 9.0471
 IR Inten    --     15.5868                68.7365                37.7882

 - Thermochemistry -
 -------------------
 Temperature   298.150 Kelvin.  Pressure   1.00000 Atm.
 Atom     1 has atomic number  6 and mass  12.00000

 Molecular mass:   115.03952 amu.
 Principal axes and moments of inertia in atomic units:
                           1         2         3
     Eigenvalues --   721.761231100.500671424.28938
           X            0.99967   0.02577   0.00032
           Y           -0.02577   0.99965  -0.00593
           Z           -0.00047   0.00592   0.99998
 This molecule is an asymmetric top.
 Rotational symmetry number  1.
 Warning -- assumption of classical behavior for rotation
           may cause significant error
 Rotational temperatures (Kelvin)      0.12000     0.07870     0.06081
 Rotational constants (GHZ):           2.50047     1.63993     1.26712
 Zero-point vibrational energy     293757.5 (Joules/Mol)
                                   70.20972 (Kcal/Mol)
 Warning -- explicit consideration of  13 degrees of freedom as
           vibrations may cause significant error
 Vibrational temperatures:     74.92   121.72   164.23   169.44   241.07
          (Kelvin)            286.54   316.47   325.23   413.79   495.39
                              573.80   737.84   785.75   909.90  1044.80
                             1080.80  1098.53  1105.43  1176.93  1387.37
                             1577.00  1642.30  1695.85  1850.12  1955.84
                             2018.59  2064.40  2141.46  2162.74  2198.28
                             2670.10  3203.00  4425.94  4452.24  4523.58
                             4538.31  4563.11  5011.53  5457.45

 Zero-point correction=                           0.111886 (Hartree/Particle)
 Thermal correction to Energy=                    0.122218
 Thermal correction to Enthalpy=                  0.123162
 Thermal correction to Gibbs Free Energy=         0.075572
 Sum of electronic and zero-point Energies=           -420.090128
 Sum of electronic and thermal Energies=              -420.079797
 Sum of electronic and thermal Enthalpies=            -420.078853
 Sum of electronic and thermal Free Energies=         -420.126443

                     E (Thermal)             CV                S
                      KCal/Mol        Cal/Mol-Kelvin    Cal/Mol-Kelvin
 Total                   76.693             34.637            100.163
 Electronic               0.000              0.000              1.377
 Translational            0.889              2.981             40.136
 Rotational               0.889              2.981             28.516
 Vibrational             74.915             28.676             30.133
 Vibration     1          0.596              1.977              4.737
 Vibration     2          0.601              1.960              3.781
 Vibration     3          0.607              1.938              3.197
 Vibration     4          0.608              1.935              3.137
 Vibration     5          0.624              1.882              2.463
 Vibration     6          0.637              1.841              2.141
 Vibration     7          0.647              1.811              1.959
 Vibration     8          0.650              1.801              1.910
 Vibration     9          0.685              1.697              1.488
 Vibration    10          0.723              1.587              1.192
 Vibration    11          0.765              1.473              0.967
 Vibration    12          0.868              1.222              0.627
 Vibration    13          0.901              1.148              0.552

 Normal termination of Gaussian 16 at Fri Mar 28 09:29:39 2025.
