 Gaussian 16, Revision A.03,
 Gaussian 16:  ES64L-G16RevA.03 25-Dec-2016

 --------------------------
 # ccsd(t)/6-311++g(d,p) sp
 --------------------------

 -------------------
 Title Card Required
 -------------------
 Symbolic Z-matrix:
 Charge =  0 Multiplicity = 2

                         Standard orientation:
 ---------------------------------------------------------------------
 Center     Atomic      Atomic             Coordinates (Angstroms)
 Number     Number       Type             X           Y           Z
 ---------------------------------------------------------------------
      1          6           0        1.797432   -0.030729    0.991230
      2          1           0        2.600364   -0.386565    1.597854
      3          6           0        0.776367    0.528399    0.626115
      4          6           0       -0.352888    1.170615   -0.046770
      5          8           0       -0.222399    2.226202   -0.596354
      6          8           0       -1.522407    0.533846   -0.009530
      7          6           0       -1.619888   -0.798226    0.532598
      8          6           0       -1.138574   -1.833802   -0.463923
      9          1           0       -1.067127   -0.849811    1.473294
     10          1           0       -2.680687   -0.911972    0.749185
     11          1           0       -1.696111   -1.743303   -1.397424
     12          1           0       -0.072200   -1.722217   -0.671456
     13          1           0       -1.303859   -2.834099   -0.058028
     14          8           0        2.366595   -0.957699   -0.677765
     15          1           0        2.470609   -0.188372   -1.259739
 ---------------------------------------------------------------------

 SCF Done:  E(UHF) =  -417.971237714     A.U. after   35 cycles
 E2 =    -0.1256287180D+01 EUMP2 =    -0.41922752489449D+03
 CCSD(T)= -0.41934749394D+03

 The electronic state is 2-A.
 Alpha  occ. eigenvalues --  -20.63235 -20.61105 -20.56621 -11.41243 -11.30629
 Alpha  occ. eigenvalues --  -11.28246 -11.27682 -11.22963  -1.48040  -1.39166
 Alpha  occ. eigenvalues --   -1.38933  -1.09222  -1.04987  -0.91591  -0.87516
 Alpha  occ. eigenvalues --   -0.76059  -0.73359  -0.70240  -0.68044  -0.67568
 Alpha  occ. eigenvalues --   -0.65251  -0.63616  -0.58932  -0.56438  -0.56217
 Alpha  occ. eigenvalues --   -0.54146  -0.51129  -0.49345  -0.47403  -0.43700
 Alpha  occ. eigenvalues --   -0.43106
 Alpha virt. eigenvalues --    0.03556   0.04576   0.05282   0.06374   0.07144
 Alpha virt. eigenvalues --    0.08167   0.09925   0.10741   0.11350   0.11690
 Alpha virt. eigenvalues --    0.13364   0.13767   0.14477   0.15193   0.15870

  Beta  occ. eigenvalues --  -20.61202 -20.59519 -20.55667 -11.41805 -11.30612
  Beta  occ. eigenvalues --  -11.29632 -11.25992 -11.22967  -1.47716  -1.37755
  Beta  occ. eigenvalues --   -1.25712  -1.07098  -1.04971  -0.92032  -0.87615
  Beta  occ. eigenvalues --   -0.75857  -0.73278  -0.69390  -0.66880  -0.64640
  Beta  occ. eigenvalues --   -0.63109  -0.58073  -0.55029  -0.54799  -0.51751
  Beta  occ. eigenvalues --   -0.50526  -0.47828  -0.46452  -0.43790  -0.43637
  Beta virt. eigenvalues --    0.03366   0.03993   0.04589   0.06150   0.06431
  Beta virt. eigenvalues --    0.07168   0.08420   0.10206   0.10771   0.11869
  Beta virt. eigenvalues --    0.12560   0.13881   0.14353   0.14478   0.15459

 Mulliken charges and spin densities:
               1          2
     1  C   -0.694377  -0.888147
     2  H    0.279349   0.068137
     3  C    0.817673   0.996678
     4  C   -0.083185  -0.218456
     5  O   -0.332463   0.205829
     6  O   -0.136009  -0.002706
     7  C   -0.244554  -0.002662
     8  C   -0.435331   0.000573
     9  H    0.135065  -0.000523
    10  H    0.183994  -0.001211
    11  H    0.164099  -0.000562
    12  H    0.179835   0.000208
    13  H    0.127021   0.000889
    14  O   -0.201503   0.871280
    15  H    0.240384  -0.029327
 Sum of Mulliken charges =  -0.00000   1.00000

 Dipole moment (field-independent basis, Debye):
    X=              0.9531    Y=             -3.2710    Z=              1.7315  Tot=              3.8218
 Quadrupole moment (field-independent basis, Debye-Ang):
   XX=            -43.3231   YY=            -56.8071   ZZ=            -43.8417
   XY=              5.7232   XZ=             -1.0112   YZ=              0.8173

 Normal termination of Gaussian 16 at Sat May 10 09:03:04 2025.
