 Gaussian 16, Revision A.03,
 Gaussian 16:  ES64L-G16RevA.03 25-Dec-2016

 --------------------------
 # freq 6-311++g(d,p) m062x
 --------------------------

 -------------------
 Title Card Required
 -------------------
 Symbolic Z-matrix:
 Charge =  0 Multiplicity = 2

                         Standard orientation:
 ---------------------------------------------------------------------
 Center     Atomic      Atomic             Coordinates (Angstroms)
 Number     Number       Type             X           Y           Z
 ---------------------------------------------------------------------
      1          6           0        1.804268   -0.045047    0.971421
      2          1           0        2.596851   -0.390417    1.599579
      3          6           0        0.776989    0.526563    0.627517
      4          6           0       -0.350987    1.170979   -0.043727
      5          8           0       -0.219089    2.227903   -0.591175
      6          8           0       -1.521615    0.536270   -0.006928
      7          6           0       -1.620719   -0.796885    0.532164
      8          6           0       -1.141747   -1.830938   -0.467020
      9          1           0       -1.067424   -0.851437    1.472465
     10          1           0       -2.681504   -0.909425    0.749428
     11          1           0       -1.699932   -1.737547   -1.399842
     12          1           0       -0.075276   -1.720537   -0.675275
     13          1           0       -1.308206   -2.831874   -0.063181
     14          8           0        2.360763   -0.954030   -0.670609
     15          1           0        2.468197   -0.187940   -1.255603
 ---------------------------------------------------------------------

 SCF Done:  E(UM062X) =  -420.198836041     A.U. after   22 cycles

 The electronic state is 2-A.
 Alpha  occ. eigenvalues --  -19.68651 -19.66427 -19.63645 -10.71458 -10.61610
 Alpha  occ. eigenvalues --  -10.61585 -10.60135 -10.54079  -1.25847  -1.17378
 Alpha  occ. eigenvalues --   -1.12370  -0.91700  -0.88625  -0.78196  -0.74631
 Alpha  occ. eigenvalues --   -0.64921  -0.62702  -0.58922  -0.57740  -0.54976
 Alpha  occ. eigenvalues --   -0.53464  -0.50822  -0.49189  -0.47393  -0.46056
 Alpha  occ. eigenvalues --   -0.43027  -0.41557  -0.40547  -0.38870  -0.37320
 Alpha  occ. eigenvalues --   -0.34251
 Alpha virt. eigenvalues --   -0.01580  -0.00758   0.00554   0.01022   0.01489
 Alpha virt. eigenvalues --    0.02278   0.03369   0.04257   0.05410   0.05894
 Alpha virt. eigenvalues --    0.07122   0.07992   0.08218   0.08916   0.09779

  Beta  occ. eigenvalues --  -19.68653 -19.65202 -19.63480 -10.71508 -10.61724
  Beta  occ. eigenvalues --  -10.61583 -10.59800 -10.54080  -1.25722  -1.17059
  Beta  occ. eigenvalues --   -1.07607  -0.90339  -0.88615  -0.77993  -0.74393
  Beta  occ. eigenvalues --   -0.64756  -0.62456  -0.58675  -0.57159  -0.53377
  Beta  occ. eigenvalues --   -0.52561  -0.49561  -0.47256  -0.45928  -0.42659
  Beta  occ. eigenvalues --   -0.42145  -0.39788  -0.38693  -0.38005  -0.36502
  Beta virt. eigenvalues --   -0.12130  -0.00711   0.00017   0.00655   0.01628
  Beta virt. eigenvalues --    0.01933   0.02556   0.03590   0.04359   0.05417
  Beta virt. eigenvalues --    0.06166   0.07082   0.08109   0.08361   0.09172

 Mulliken charges and spin densities:
               1          2
     1  C   -0.411309  -0.184587
     2  H    0.258558   0.018939
     3  C    0.585274   0.447798
     4  C   -0.214470  -0.022534
     5  O   -0.248557   0.087214
     6  O   -0.026729   0.003320
     7  C   -0.379943  -0.002105
     8  C   -0.407841  -0.001012
     9  H    0.156780   0.002447
    10  H    0.209751  -0.001025
    11  H    0.179373  -0.000159
    12  H    0.187492   0.002659
    13  H    0.158348   0.000107
    14  O   -0.283643   0.663065
    15  H    0.236915  -0.014127
 Sum of Mulliken charges =  -0.00000   1.00000

 Dipole moment (field-independent basis, Debye):
    X=              0.2882    Y=             -2.5907    Z=              2.1411  Tot=              3.3733
 Quadrupole moment (field-independent basis, Debye-Ang):
   XX=            -44.5970   YY=            -55.9464   ZZ=            -43.9746
   XY=              6.3797   XZ=              0.4375   YZ=              0.3118

  Exact polarizability:  85.433 -10.195  78.796  -4.650   1.732  64.999
 Approx polarizability:  94.519 -15.555  92.829  -1.410  -4.293  76.036

 ******    1 imaginary frequencies (negative Signs) ******

                      1                      2                      3
                      A                      A                      A
 Frequencies --   -720.6794                82.5571                90.9158
 Red. masses --     10.9033                 5.6460                 5.1484
 Frc consts  --      3.3365                 0.0227                 0.0251
 IR Inten    --     80.1421                 0.9499                 6.0651

                      4                      5                      6
                      A                      A                      A
 Frequencies --    113.4236               138.0318               185.6537
 Red. masses --      7.7991                 3.3950                 1.9231
 Frc consts  --      0.0591                 0.0381                 0.0391
 IR Inten    --      7.2161                 1.6188                18.3956

                      7                      8                      9
                      A                      A                      A
 Frequencies --    232.9745               248.9248               327.3794
 Red. masses --      1.4587                 1.1558                 4.1635
 Frc consts  --      0.0466                 0.0422                 0.2629
 IR Inten    --     63.5711                13.6932                 3.2577

                     10                     11                     12
                      A                      A                      A
 Frequencies --    357.1728               417.2701               557.4507
 Red. masses --      2.7770                 3.7402                 5.0451
 Frc consts  --      0.2087                 0.3837                 0.9237
 IR Inten    --      5.0374                 3.0664                18.5054

                     13                     14                     15
                      A                      A                      A
 Frequencies --    633.1302               732.1758               743.6118
 Red. masses --      5.8572                 1.2965                 9.8917
 Frc consts  --      1.3833                 0.4095                 3.2227
 IR Inten    --      1.0821                41.6494                21.2726

                     16                     17                     18
                      A                      A                      A
 Frequencies --    759.2505               817.2282               828.7568
 Red. masses --      4.6216                 1.1461                 1.1866
 Frc consts  --      1.5697                 0.4510                 0.4802
 IR Inten    --      2.8464                23.5313               119.4112

                     19                     20                     21
                      A                      A                      A
 Frequencies --    872.0083               949.4563              1106.0280
 Red. masses --      1.0871                 2.2488                 3.7991
 Frc consts  --      0.4870                 1.1944                 2.7382
 IR Inten    --      2.2937                10.4440                63.2103

                     22                     23                     24
                      A                      A                      A
 Frequencies --   1131.9336              1183.4606              1259.2800
 Red. masses --      2.4072                 1.9002                 2.9030
 Frc consts  --      1.8172                 1.5680                 2.7124
 IR Inten    --     40.3947                60.0645               379.4248

                     25                     26                     27
                      A                      A                      A
 Frequencies --   1347.1546              1408.8316              1434.6126
 Red. masses --      1.2511                 1.2797                 1.3465
 Frc consts  --      1.3377                 1.4965                 1.6327
 IR Inten    --    115.9103                23.5622                18.4847

                     28                     29                     30
                      A                      A                      A
 Frequencies --   1496.8047              1509.2328              1528.0804
 Red. masses --      1.0430                 1.0481                 1.0979
 Frc consts  --      1.3767                 1.4065                 1.5105
 IR Inten    --      3.1500                 4.5635                18.1294

                     31                     32                     33
                      A                      A                      A
 Frequencies --   1832.6731              2042.5293              3066.5301
 Red. masses --     12.9555                 6.4848                 1.0356
 Frc consts  --     25.6375                15.9398                 5.7377
 IR Inten    --    454.8269                62.0313                10.2394

                     34                     35                     36
                      A                      A                      A
 Frequencies --   3092.6856              3141.6082              3148.0696
 Red. masses --      1.0650                 1.1039                 1.1006
 Frc consts  --      6.0014                 6.4190                 6.4262
 IR Inten    --     17.5435                 1.6394                12.5438

                     37                     38                     39
                      A                      A                      A
 Frequencies --   3164.7707              3426.2602              3816.8083
 Red. masses --      1.1047                 1.1404                 1.0678
 Frc consts  --      6.5187                 7.8874                 9.1648
 IR Inten    --     16.7491                58.9101                62.4854

 - Thermochemistry -
 -------------------
 Temperature   298.150 Kelvin.  Pressure   1.00000 Atm.
 Atom     1 has atomic number  6 and mass  12.00000

 Molecular mass:   115.03952 amu.
 Principal axes and moments of inertia in atomic units:
                           1         2         3
     Eigenvalues --   801.831871046.954201533.01018
           X            0.99180   0.12782   0.00031
           Y           -0.12782   0.99174   0.01025
           Z            0.00101  -0.01020   0.99995
 This molecule is an asymmetric top.
 Rotational symmetry number  1.
 Warning -- assumption of classical behavior for rotation
           may cause significant error
 Rotational temperatures (Kelvin)      0.10802     0.08273     0.05650
 Rotational constants (GHZ):           2.25077     1.72380     1.17725
    1 imaginary frequencies ignored.
 Zero-point vibrational energy     294429.2 (Joules/Mol)
                                   70.37028 (Kcal/Mol)
 Warning -- explicit consideration of  11 degrees of freedom as
           vibrations may cause significant error
 Vibrational temperatures:    118.78   130.81   163.19   198.60   267.11
          (Kelvin)            335.20   358.15   471.03   513.89   600.36
                              802.05   910.93  1053.44  1069.89  1092.39
                             1175.81  1192.40  1254.63  1366.06  1591.33
                             1628.60  1702.74  1811.82  1938.26  2026.99
                             2064.09  2153.57  2171.45  2198.57  2636.81
                             2938.74  4412.05  4449.68  4520.07  4529.37
                             4553.40  4929.62  5491.54

 Zero-point correction=                           0.112142 (Hartree/Particle)
 Thermal correction to Energy=                    0.121465
 Thermal correction to Enthalpy=                  0.122409
 Thermal correction to Gibbs Free Energy=         0.077047
 Sum of electronic and zero-point Energies=           -419.3481164
 Sum of electronic and thermal Energies=              -420.077371
 Sum of electronic and thermal Enthalpies=            -420.076427
 Sum of electronic and thermal Free Energies=         -420.121789

                     E (Thermal)             CV                S
                      KCal/Mol        Cal/Mol-Kelvin    Cal/Mol-Kelvin
 Total                   76.220             31.772             95.472
 Electronic               0.000              0.000              1.377
 Translational            0.889              2.981             40.136
 Rotational               0.889              2.981             28.644
 Vibrational             74.443             25.811             25.315
 Vibration     1          0.600              1.961              3.829
 Vibration     2          0.602              1.956              3.640
 Vibration     3          0.607              1.938              3.209
 Vibration     4          0.614              1.915              2.831
 Vibration     5          0.632              1.859              2.271
 Vibration     6          0.654              1.790              1.856
 Vibration     7          0.662              1.765              1.738
 Vibration     8          0.711              1.621              1.273
 Vibration     9          0.732              1.561              1.134
 Vibration    10          0.780              1.433              0.901
 Vibration    11          0.913              1.123              0.529

 1\1\GINC-AJ\Freq\UM062X\6-311++G(d,p)\C5H7O3(2)\AAYUSH\29-Mar-2025\0\\
 # freq 6-311++g(d,p) m062x\\Title Card Required\\0,2\C,1.787522,-0.108
 856,0.979084\H,2.58002,-0.448642,1.610387\C,0.759015,0.4577,0.630522\C
 ,-0.369789,1.095203,-0.045912\O,-0.240353,2.150008,-0.598014\O,-1.5383
 57,0.456748,-0.008443\C,-1.63406,-0.874213,0.536653\C,-1.149668,-1.911
 285,-0.456773\H,-1.082435,-0.922538,1.478274\H,-2.694887,-0.9893,0.752
 369\H,-1.706327,-1.824103,-1.391106\H,-0.083165,-1.798276,-0.663459\H,
 -1.31357,-2.910887,-0.048606\O,2.350282,-1.023587,-0.65761\H,2.456302,

 Normal termination of Gaussian 16 at Sat Mar 29 02:46:41 2025.
