 Gaussian 16, Revision A.03,
 Gaussian 16:  ES64L-G16RevA.03 25-Dec-2016

 --------------------------
 # ccsd(t)/6-311++g(d,p) sp
 --------------------------

 -------------------
 Title Card Required
 -------------------
 Symbolic Z-matrix:
 Charge =  0 Multiplicity = 2

                         Standard orientation:
 ---------------------------------------------------------------------
 Center     Atomic      Atomic             Coordinates (Angstroms)
 Number     Number       Type             X           Y           Z
 ---------------------------------------------------------------------
      1          6           0        1.811164   -0.059120    0.951569
      2          1           0        2.592215   -0.393205    1.601855
      3          6           0        0.777204    0.525180    0.629228
      4          6           0       -0.349092    1.171202   -0.040819
      5          8           0       -0.216003    2.229524   -0.586298
      6          8           0       -1.520901    0.538485   -0.004488
      7          6           0       -1.621452   -0.795643    0.531734
      8          6           0       -1.144714   -1.828242   -0.469984
      9          1           0       -1.067589   -0.853027    1.471648
     10          1           0       -2.682185   -0.907109    0.749793
     11          1           0       -1.703587   -1.731983   -1.402100
     12          1           0       -0.078174   -1.718942   -0.679026
     13          1           0       -1.312294   -2.829798   -0.068171
     14          8           0        2.355325   -0.950386   -0.663406
     15          1           0        2.465591   -0.187193   -1.250838
 ---------------------------------------------------------------------

 SCF Done:  E(UHF) =  -417.970027842     A.U. after   31 cycles
 E2 =    -0.1255412315D+01 EUMP2 =    -0.41922544015650D+03
 CCSD(T)= -0.41934920845D+03

 The electronic state is 2-A.
 Alpha  occ. eigenvalues --  -20.62739 -20.61107 -20.56910 -11.41189 -11.30678
 Alpha  occ. eigenvalues --  -11.28739 -11.28228 -11.22977  -1.48136  -1.39342
 Alpha  occ. eigenvalues --   -1.38372  -1.09581  -1.05017  -0.91655  -0.87638
 Alpha  occ. eigenvalues --   -0.76111  -0.73277  -0.70414  -0.67992  -0.67316
 Alpha  occ. eigenvalues --   -0.64531  -0.63704  -0.59055  -0.56494  -0.55926
 Alpha  occ. eigenvalues --   -0.54024  -0.51199  -0.49606  -0.47575  -0.43892
 Alpha  occ. eigenvalues --   -0.43315
 Alpha virt. eigenvalues --    0.03569   0.04591   0.05309   0.06381   0.07139
 Alpha virt. eigenvalues --    0.08159   0.09966   0.10737   0.11520   0.11745
 Alpha virt. eigenvalues --    0.13368   0.13774   0.14499   0.15243   0.15827

  Beta  occ. eigenvalues --  -20.61219 -20.59251 -20.55817 -11.41828 -11.30658
  Beta  occ. eigenvalues --  -11.30400 -11.26201 -11.22981  -1.47748  -1.37726
  Beta  occ. eigenvalues --   -1.26287  -1.06934  -1.04996  -0.92136  -0.87706
  Beta  occ. eigenvalues --   -0.75846  -0.73196  -0.69439  -0.66943  -0.64614
  Beta  occ. eigenvalues --   -0.63141  -0.58050  -0.54995  -0.54781  -0.51705
  Beta  occ. eigenvalues --   -0.50496  -0.47940  -0.46730  -0.43997  -0.43717
  Beta virt. eigenvalues --    0.03298   0.03733   0.04592   0.05992   0.06438
  Beta virt. eigenvalues --    0.07165   0.08427   0.10303   0.10761   0.11898
  Beta virt. eigenvalues --    0.12589   0.13828   0.14370   0.14433   0.15814

 Mulliken charges and spin densities:
               1          2
     1  C   -0.616537  -0.986292
     2  H    0.275580   0.072856
     3  C    0.777031   1.143789
     4  C   -0.113286  -0.245968
     5  O   -0.325983   0.236616
     6  O   -0.136150  -0.002918
     7  C   -0.243200  -0.001716
     8  C   -0.433584  -0.000096
     9  H    0.134566  -0.001083
    10  H    0.183993  -0.001293
    11  H    0.163905  -0.000488
    12  H    0.180409   0.000391
    13  H    0.127484   0.000980
    14  O   -0.214969   0.812483
    15  H    0.240742  -0.027261
 Sum of Mulliken charges =  -0.00000   1.00000

 Dipole moment (field-independent basis, Debye):
    X=              0.8122    Y=             -3.1376    Z=              1.8420  Tot=              3.7279
 Quadrupole moment (field-independent basis, Debye-Ang):
   XX=            -43.8595   YY=            -56.8262   ZZ=            -43.7762
   XY=              6.0007   XZ=             -0.7352   YZ=              0.7323

 Normal termination of Gaussian 16 at Sat May 10 10:51:33 2025.
