 Gaussian 16, Revision A.03,
 Gaussian 16:  ES64L-G16RevA.03 25-Dec-2016

 --------------------------
 # freq 6-311++g(d,p) m062x
 --------------------------

 -------------------
 Title Card Required
 -------------------
 Symbolic Z-matrix:
 Charge =  0 Multiplicity = 2

                         Standard orientation:
 ---------------------------------------------------------------------
 Center     Atomic      Atomic             Coordinates (Angstroms)
 Number     Number       Type             X           Y           Z
 ---------------------------------------------------------------------
      1          6           0        1.757223    0.059839    1.106010
      2          1           0        2.601239   -0.333162    1.622871
      3          6           0        0.766267    0.548078    0.624672
      4          6           0       -0.366368    1.166684   -0.068149
      5          8           0       -0.246389    2.213612   -0.634260
      6          8           0       -1.528285    0.515517   -0.028320
      7          6           0       -1.613767   -0.808303    0.535276
      8          6           0       -1.114948   -1.854462   -0.441619
      9          1           0       -1.065814   -0.838404    1.479327
     10          1           0       -2.674594   -0.931337    0.746723
     11          1           0       -1.666929   -1.785339   -1.380235
     12          1           0       -0.048809   -1.734274   -0.643874
     13          1           0       -1.271296   -2.850058   -0.020873
     14          8           0        2.407897   -0.980905   -0.721090
     15          1           0        2.489987   -0.184238   -1.271717
 ---------------------------------------------------------------------

 SCF Done:  E(UM062X) =  -420.200273799     A.U. after   24 cycles

 The electronic state is 2-A.
 Alpha  occ. eigenvalues --  -19.68428 -19.68193 -19.63216 -10.71155 -10.61380
 Alpha  occ. eigenvalues --  -10.59228 -10.58548 -10.54035  -1.25538  -1.17002
 Alpha  occ. eigenvalues --   -1.13996  -0.90593  -0.88465  -0.77712  -0.74088
 Alpha  occ. eigenvalues --   -0.64489  -0.62366  -0.58580  -0.57257  -0.56098
 Alpha  occ. eigenvalues --   -0.53205  -0.51308  -0.49366  -0.47198  -0.46039
 Alpha  occ. eigenvalues --   -0.43493  -0.42124  -0.40323  -0.38559  -0.36935
 Alpha  occ. eigenvalues --   -0.36099
 Alpha virt. eigenvalues --   -0.01897  -0.00778   0.00493   0.00964   0.01845
 Alpha virt. eigenvalues --    0.02337   0.03528   0.04436   0.05528   0.05899
 Alpha virt. eigenvalues --    0.07190   0.07982   0.08346   0.09177   0.09737

  Beta  occ. eigenvalues --  -19.68428 -19.66656 -19.63157 -10.71174 -10.61379
  Beta  occ. eigenvalues --  -10.59247 -10.58407 -10.54036  -1.25492  -1.16887
  Beta  occ. eigenvalues --   -1.06828  -0.89999  -0.88459  -0.77638  -0.73974
  Beta  occ. eigenvalues --   -0.64413  -0.62194  -0.58480  -0.57029  -0.53384
  Beta  occ. eigenvalues --   -0.52905  -0.49604  -0.47162  -0.45900  -0.42527
  Beta  occ. eigenvalues --   -0.40940  -0.39541  -0.39168  -0.37816  -0.36670
  Beta virt. eigenvalues --   -0.10344  -0.01061  -0.00578   0.00670   0.01397
  Beta virt. eigenvalues --    0.01995   0.02543   0.03665   0.04584   0.05591
  Beta virt. eigenvalues --    0.06168   0.07239   0.08071   0.08503   0.09455

 Mulliken charges and spin densities:
               1          2
     1  C   -0.937637  -0.011204
     2  H    0.237676   0.011281
     3  C    1.014396   0.119445
     4  C   -0.124860  -0.017348
     5  O   -0.254911   0.031034
     6  O   -0.029472   0.001520
     7  C   -0.383182  -0.008749
     8  C   -0.407882   0.005284
     9  H    0.159380   0.002295
    10  H    0.209292  -0.000869
    11  H    0.180680  -0.000469
    12  H    0.183444  -0.000317
    13  H    0.156879   0.000271
    14  O   -0.247530   0.884992
    15  H    0.243727  -0.017165
 Sum of Mulliken charges =  -0.00000   1.00000

 Dipole moment (field-independent basis, Debye):
    X=              0.6909    Y=             -2.8663    Z=              1.7571  Tot=              3.4323
 Quadrupole moment (field-independent basis, Debye-Ang):
   XX=            -43.3806   YY=            -55.7349   ZZ=            -44.1587
   XY=              5.7919   XZ=             -0.5946   YZ=              0.6031

  Exact polarizability:  80.694  -5.657  74.641   0.752  -2.307  61.900
 Approx polarizability:  90.866 -10.647  86.754   5.671  -9.962  73.142

 ******    1 imaginary frequencies (negative Signs) ******

                      1                      2                      3
                      A                      A                      A
 Frequencies --    -44.1604                58.0780                83.5981
 Red. masses --      6.1118                 9.7527                 4.6697
 Frc consts  --      0.0070                 0.0194                 0.0192
 IR Inten    --      5.5706                 3.3551                 0.9487

                      4                      5                      6
                      A                      A                      A
 Frequencies --    126.4206               133.9058               170.9115
 Red. masses --      3.5208                10.5729                 2.3771
 Frc consts  --      0.0332                 0.1117                 0.0409
 IR Inten    --      1.6440                 5.4737                12.9066

                      7                      8                      9
                      A                      A                      A
 Frequencies --    237.6579               247.7700               308.0545
 Red. masses --      1.3061                 1.3080                 2.7066
 Frc consts  --      0.0435                 0.0473                 0.1513
 IR Inten    --     26.6796                42.3351                22.3208

                     10                     11                     12
                      A                      A                      A
 Frequencies --    354.7976               415.5553               556.2126
 Red. masses --      2.6662                 3.7561                 4.6212
 Frc consts  --      0.1977                 0.3822                 0.8423
 IR Inten    --      4.5000                 2.8067                15.2972

                     13                     14                     15
                      A                      A                      A
 Frequencies --    592.1497               634.2628               746.2969
 Red. masses --      1.0806                 5.7158                 1.3129
 Frc consts  --      0.2232                 1.3548                 0.4308
 IR Inten    --    116.6720                 3.4141                34.8478

                     16                     17                     18
                      A                      A                      A
 Frequencies --    756.6845               766.1053               790.7118
 Red. masses --      5.5787                 7.0701                 1.1750
 Frc consts  --      1.8820                 2.4449                 0.4328
 IR Inten    --      2.6453                 9.8968                70.1280

                     19                     20                     21
                      A                      A                      A
 Frequencies --    817.9138               949.5818              1106.9341
 Red. masses --      1.1665                 2.2507                 3.6544
 Frc consts  --      0.4598                 1.1957                 2.6382
 IR Inten    --      4.7316                10.3983                56.9198

                     22                     23                     24
                      A                      A                      A
 Frequencies --   1132.3611              1183.7115              1263.0933
 Red. masses --      2.4947                 1.8721                 2.8676
 Frc consts  --      1.8847                 1.5455                 2.6955
 IR Inten    --     46.2148                53.8855               370.4910

                     25                     26                     27
                      A                      A                      A
 Frequencies --   1347.5090              1408.5307              1434.0357
 Red. masses --      1.2606                 1.2821                 1.3546
 Frc consts  --      1.3486                 1.4987                 1.6413
 IR Inten    --    119.3506                26.1373                18.7701

                     28                     29                     30
                      A                      A                      A
 Frequencies --   1496.1802              1508.7207              1527.7161
 Red. masses --      1.0426                 1.0477                 1.0992
 Frc consts  --      1.3751                 1.4051                 1.5115
 IR Inten    --      3.3385                 4.1383                17.5611

                     31                     32                     33
                      A                      A                      A
 Frequencies --   1852.9807              2204.6559              3068.4102
 Red. masses --     12.9594                 5.9364                 1.0355
 Frc consts  --     26.2166                17.0003                 5.7442
 IR Inten    --    482.4020                53.3211                 9.3717

                     34                     35                     36
                      A                      A                      A
 Frequencies --   3096.7303              3144.0176              3148.0680
 Red. masses --      1.0640                 1.1040                 1.1007
 Frc consts  --      6.0116                 6.4299                 6.4271
 IR Inten    --     16.9276                 2.3308                12.5056

                     37                     38                     39
                      A                      A                      A
 Frequencies --   3166.0523              3485.7612              3791.9134
 Red. masses --      1.1053                 1.1620                 1.0674
 Frc consts  --      6.5280                 8.3184                 9.0424
 IR Inten    --     15.8250                69.6466                39.3986

 - Thermochemistry -
 -------------------
 Temperature   298.150 Kelvin.  Pressure   1.00000 Atm.
 Atom     1 has atomic number  6 and mass  12.00000

 Molecular mass:   115.03952 amu.
 Principal axes and moments of inertia in atomic units:
                           1         2         3
     Eigenvalues --   824.303091068.666251540.61804
           X            0.99160   0.12937  -0.00043
           Y           -0.12936   0.99155   0.01006
           Z            0.00173  -0.00992   0.99995
 This molecule is an asymmetric top.
 Rotational symmetry number  1.
 Warning -- assumption of classical behavior for rotation
           may cause significant error
 Rotational temperatures (Kelvin)      0.10508     0.08105     0.05622
 Rotational constants (GHZ):           2.18941     1.68878     1.17144
    1 imaginary frequencies ignored.
 Zero-point vibrational energy     293767.3 (Joules/Mol)
                                   70.21206 (Kcal/Mol)
 Warning -- explicit consideration of  12 degrees of freedom as
           vibrations may cause significant error
 Vibrational temperatures:     83.56   120.28   181.89   192.66   245.90
          (Kelvin)            341.94   356.49   443.22   510.47   597.89
                              800.27   851.97   912.56  1073.75  1088.70
                             1102.25  1137.66  1176.80  1366.24  1592.63
                             1629.22  1703.10  1817.31  1938.76  2026.56
                             2063.26  2152.67  2170.71  2198.04  2666.03
                             3172.01  4414.76  4455.50  4523.54  4529.37
                             4555.24  5015.23  5455.72

 Zero-point correction=                           0.111890 (Hartree/Particle)
 Thermal correction to Energy=                    0.121409
 Thermal correction to Enthalpy=                  0.122353
 Thermal correction to Gibbs Free Energy=         0.076372
 Sum of electronic and zero-point Energies=           -419.3488349
 Sum of electronic and thermal Energies=              -420.078865
 Sum of electronic and thermal Enthalpies=            -420.077921
 Sum of electronic and thermal Free Energies=         -420.123902

                     E (Thermal)             CV                S
                      KCal/Mol        Cal/Mol-Kelvin    Cal/Mol-Kelvin
 Total                   76.185             32.342             96.775
 Electronic               0.000              0.000              1.377
 Translational            0.889              2.981             40.136
 Rotational               0.889              2.981             28.697
 Vibrational             74.408             26.381             26.565
 Vibration     1          0.596              1.974              4.521
 Vibration     2          0.600              1.960              3.805
 Vibration     3          0.611              1.927              3.000
 Vibration     4          0.613              1.919              2.889
 Vibration     5          0.626              1.878              2.425
 Vibration     6          0.656              1.783              1.820
 Vibration     7          0.661              1.766              1.746
 Vibration     8          0.698              1.658              1.373
 Vibration     9          0.731              1.565              1.145
 Vibration    10          0.779              1.436              0.907
 Vibration    11          0.912              1.126              0.531
 Vibration    12          0.950              1.049              0.463

 Normal termination of Gaussian 16 at Sat Mar 29 01:45:35 2025.
