 Gaussian 16, Revision A.03,
 Gaussian 16:  ES64L-G16RevA.03 25-Dec-2016

 --------------------------
 # freq 6-311++g(d,p) m062x
 --------------------------

 -------------------
 Title Card Required
 -------------------
 Symbolic Z-matrix:
 Charge =  0 Multiplicity = 2

                         Standard orientation:
 ---------------------------------------------------------------------
 Center     Atomic      Atomic             Coordinates (Angstroms)
 Number     Number       Type             X           Y           Z
 ---------------------------------------------------------------------
      1          6           0        1.853209   -0.151155    0.812411
      2          1           0        2.543620   -0.403403    1.602418
      3          6           0        0.778925    0.517251    0.646507
      4          6           0       -0.334396    1.171262   -0.023679
      5          8           0       -0.195690    2.239189   -0.557176
      6          8           0       -1.516637    0.552503    0.009423
      7          6           0       -1.626530   -0.786480    0.528158
      8          6           0       -1.163396   -1.811088   -0.488195
      9          1           0       -1.069824   -0.861775    1.465723
     10          1           0       -2.687175   -0.892413    0.749890
     11          1           0       -1.725007   -1.697287   -1.416678
     12          1           0       -0.096679   -1.709286   -0.701176
     13          1           0       -1.338111   -2.816391   -0.099038
     14          8           0        2.321817   -0.925512   -0.606682
     15          1           0        2.450393   -0.187624   -1.216854
 ---------------------------------------------------------------------

 SCF Done:  E(UM062X) =  -420.224781310     A.U. after   19 cycles

 The electronic state is 2-A.
 Alpha  occ. eigenvalues --  -19.68368 -19.65900 -19.63574 -10.71079 -10.64217
 Alpha  occ. eigenvalues --  -10.61546 -10.61370 -10.54148  -1.25595  -1.17193
 Alpha  occ. eigenvalues --   -1.12864  -0.91925  -0.88553  -0.78443  -0.74890
 Alpha  occ. eigenvalues --   -0.64920  -0.62214  -0.58989  -0.58070  -0.56001
 Alpha  occ. eigenvalues --   -0.53428  -0.50660  -0.49285  -0.47482  -0.45968
 Alpha  occ. eigenvalues --   -0.43139  -0.41453  -0.40293  -0.38929  -0.36716
 Alpha  occ. eigenvalues --   -0.32936
 Alpha virt. eigenvalues --   -0.00885   0.00191   0.00388   0.00614   0.02168
 Alpha virt. eigenvalues --    0.02405   0.03324   0.04208   0.05438   0.05891
 Alpha virt. eigenvalues --    0.07114   0.07829   0.08190   0.08914   0.09671

  Beta  occ. eigenvalues --  -19.68370 -19.65453 -19.63267 -10.71158 -10.64376
  Beta  occ. eigenvalues --  -10.61542 -10.60774 -10.54147  -1.25351  -1.16591
  Beta  occ. eigenvalues --   -1.11264  -0.89489  -0.88526  -0.78034  -0.74484
  Beta  occ. eigenvalues --   -0.64602  -0.61798  -0.58514  -0.56824  -0.55039
  Beta  occ. eigenvalues --   -0.53081  -0.49195  -0.47192  -0.46512  -0.45700
  Beta  occ. eigenvalues --   -0.42691  -0.40481  -0.39089  -0.37826  -0.35628
  Beta virt. eigenvalues --   -0.11432  -0.00817   0.00562   0.00623   0.01427
  Beta virt. eigenvalues --    0.02248   0.03009   0.03820   0.04511   0.05500
  Beta virt. eigenvalues --    0.06314   0.06982   0.08079   0.08296   0.09145

 Mulliken charges and spin densities:
               1          2
     1  C   -0.274697  -0.206923
     2  H    0.232097   0.025445
     3  C    0.502843   0.835254
     4  C   -0.225487  -0.046306
     5  O   -0.248956   0.162422
     6  O   -0.029796   0.006917
     7  C   -0.386985   0.002837
     8  C   -0.389554  -0.002967
     9  H    0.159419   0.003799
    10  H    0.208650  -0.000763
    11  H    0.179352   0.000786
    12  H    0.173290   0.001372
    13  H    0.160860  -0.000588
    14  O   -0.319552   0.221486
    15  H    0.258517  -0.002770
 Sum of Mulliken charges =  -0.00000   1.00000

 Dipole moment (field-independent basis, Debye):
    X=              0.2318    Y=             -2.5455    Z=              2.1731  Tot=              3.3549
 Quadrupole moment (field-independent basis, Debye-Ang):
   XX=            -45.4904   YY=            -56.4882   ZZ=            -43.9451
   XY=              6.8926   XZ=              0.4976   YZ=              0.3211

  Exact polarizability:  79.939  -5.845  75.372  -0.532  -2.193  60.561
 Approx polarizability:  88.375 -10.933  89.574  -0.887  -5.387  74.257

 ******    1 imaginary frequencies (negative Signs) ******

                      1                      2                      3
                      A                      A                      A
 Frequencies --   -328.4344                87.1252               117.6543
 Red. masses --      9.4904                 4.9259                 4.8706
 Frc consts  --      0.6032                 0.0220                 0.0397
 IR Inten    --     38.9735                 0.3950                12.2193

                      4                      5                      6
                      A                      A                      A
 Frequencies --    137.4674               155.6806               179.2905
 Red. masses --      4.1993                 4.3326                 1.1414
 Frc consts  --      0.0468                 0.0619                 0.0216
 IR Inten    --      2.4156                12.1497                85.2698

                      7                      8                      9
                      A                      A                      A
 Frequencies --    243.5602               299.8193               356.0029
 Red. masses --      1.1516                 2.6285                 2.8622
 Frc consts  --      0.0402                 0.1392                 0.2137
 IR Inten    --     10.3412                10.2027                 2.1365

                     10                     11                     12
                      A                      A                      A
 Frequencies --    407.9184               447.1266               563.9562
 Red. masses --      4.4145                 4.9242                 5.1536
 Frc consts  --      0.4328                 0.5800                 0.9657
 IR Inten    --      4.5278                 8.0059                24.4756

                     13                     14                     15
                      A                      A                      A
 Frequencies --    635.2145               712.6792               760.9720
 Red. masses --      6.1774                12.0485                 4.3347
 Frc consts  --      1.4686                 3.6055                 1.4789
 IR Inten    --      0.4595                20.1780                 2.4102

                     16                     17                     18
                      A                      A                      A
 Frequencies --    772.4324               818.6488               947.5633
 Red. masses --      1.3733                 1.1597                 2.2267
 Frc consts  --      0.4828                 0.4579                 1.1780
 IR Inten    --     28.0491                 3.6300                 6.4633

                     19                     20                     21
                      A                      A                      A
 Frequencies --   1055.1432              1102.8776              1128.7924
 Red. masses --      1.1483                 3.1111                 1.9177
 Frc consts  --      0.7532                 2.2296                 1.4397
 IR Inten    --     27.3201                67.1040                18.2003

                     22                     23                     24
                      A                      A                      A
 Frequencies --   1144.5534              1182.3203              1255.3912
 Red. masses --      1.4248                 1.8537                 2.8927
 Frc consts  --      1.0997                 1.5268                 2.6861
 IR Inten    --     54.5308                53.6643               339.6564

                     25                     26                     27
                      A                      A                      A
 Frequencies --   1345.5970              1407.5798              1433.8381
 Red. masses --      1.2348                 1.2722                 1.3421
 Frc consts  --      1.3173                 1.4851                 1.6257
 IR Inten    --    104.8573                17.7786                16.7106

                     28                     29                     30
                      A                      A                      A
 Frequencies --   1496.8762              1507.9993              1527.6345
 Red. masses --      1.0430                 1.0480                 1.0969
 Frc consts  --      1.3769                 1.4042                 1.5082
 IR Inten    --      3.7514                 3.5605                13.7287

                     31                     32                     33
                      A                      A                      A
 Frequencies --   1783.8263              1855.1937              3065.8128
 Red. masses --     12.7964                 8.2080                 1.0357
 Frc consts  --     23.9908                16.6442                 5.7357
 IR Inten    --    397.6729                66.5980                 7.9754

                     34                     35                     36
                      A                      A                      A
 Frequencies --   3085.8376              3139.2947              3148.2955
 Red. masses --      1.0660                 1.1032                 1.1004
 Frc consts  --      5.9808                 6.4058                 6.4260
 IR Inten    --     19.2980                 1.9913                13.0279

                     37                     38                     39
                      A                      A                      A
 Frequencies --   3162.5946              3287.1224              3853.0901
 Red. masses --      1.1039                 1.1094                 1.0678
 Frc consts  --      6.5052                 7.0628                 9.3401
 IR Inten    --     17.0598                12.9309                69.5633

 - Thermochemistry -
 -------------------
 Temperature   298.150 Kelvin.  Pressure   1.00000 Atm.
 Atom     1 has atomic number  6 and mass  12.00000

 Molecular mass:   115.03952 amu.
 Principal axes and moments of inertia in atomic units:
                           1         2         3
     Eigenvalues --   780.963811027.371471527.45697
           X            0.99179   0.12784   0.00112
           Y           -0.12785   0.99174   0.01061
           Z            0.00024  -0.01067   0.99994
 This molecule is an asymmetric top.
 Rotational symmetry number  1.
 Warning -- assumption of classical behavior for rotation
           may cause significant error
 Rotational temperatures (Kelvin)      0.11091     0.08431     0.05670
 Rotational constants (GHZ):           2.31092     1.75666     1.18153
    1 imaginary frequencies ignored.
 Zero-point vibrational energy     296750.3 (Joules/Mol)
                                   70.92503 (Kcal/Mol)
 Warning -- explicit consideration of  11 degrees of freedom as
           vibrations may cause significant error
 Vibrational temperatures:    125.35   169.28   197.78   223.99   257.96
          (Kelvin)            350.43   431.37   512.21   586.90   643.32
                              811.41   913.93  1025.39  1094.87  1111.36
                             1177.85  1363.33  1518.12  1586.79  1624.08
                             1646.76  1701.10  1806.23  1936.01  2025.19
                             2062.97  2153.67  2169.67  2197.93  2566.53
                             2669.21  4411.02  4439.83  4516.74  4529.70
                             4550.27  4729.44  5543.74

 Zero-point correction=                           0.113026 (Hartree/Particle)
 Thermal correction to Energy=                    0.121945
 Thermal correction to Enthalpy=                  0.122890
 Thermal correction to Gibbs Free Energy=         0.078599
 Sum of electronic and zero-point Energies=           -419.3713269
 Sum of electronic and thermal Energies=              -420.102836
 Sum of electronic and thermal Enthalpies=            -420.101892
 Sum of electronic and thermal Free Energies=         -420.146182

                     E (Thermal)             CV                S
                      KCal/Mol        Cal/Mol-Kelvin    Cal/Mol-Kelvin
 Total                   76.522             30.787             93.217
 Electronic               0.000              0.000              1.377
 Translational            0.889              2.981             40.136
 Rotational               0.889              2.981             28.596
 Vibrational             74.744             24.825             23.109
 Vibration     1          0.601              1.958              3.724
 Vibration     2          0.608              1.935              3.139
 Vibration     3          0.614              1.916              2.839
 Vibration     4          0.620              1.896              2.602
 Vibration     5          0.629              1.868              2.336
 Vibration     6          0.659              1.773              1.777
 Vibration     7          0.692              1.674              1.418
 Vibration     8          0.732              1.563              1.140
 Vibration     9          0.772              1.453              0.934
 Vibration    10          0.806              1.367              0.805
 Vibration    11          0.920              1.109              0.516

 1\1\GINC-AJ\Freq\UM062X\6-311++G(d,p)\C5H7O3(2)\AAYUSH\29-Mar-2025\0\\
 # freq 6-311++g(d,p) m062x\\Title Card Required\\0,2\C,1.833338,-0.182
 053,0.833638\H,2.521185,-0.408631,1.633599\C,0.750816,0.467198,0.64656
 4\C,-0.366623,1.09159,-0.044687\O,-0.239249,2.150755,-0.598107\O,-1.54
 0011,0.456389,-0.008201\C,-1.634541,-0.873618,0.536025\C,-1.148775,-1.
 911098,-0.456424\H,-1.084084,-0.922355,1.479021\H,-2.695228,-0.990668,
 0.751885\H,-1.704763,-1.82376,-1.391137\H,-0.082024,-1.797917,-0.66340
 8\H,-1.31194,-2.911016,-0.048817\O,2.324078,-0.97718,-0.56636\H,2.4466

 Normal termination of Gaussian 16 at Sat Mar 29 03:05:36 2025.
