 Gaussian 16, Revision A.03,
 Gaussian 16:  ES64L-G16RevA.03 25-Dec-2016

 --------------------------
 # freq 6-311++g(d,p) m062x
 --------------------------

 -------------------
 Title Card Required
 -------------------
 Symbolic Z-matrix:
 Charge =  0 Multiplicity = 2

                         Standard orientation:
 ---------------------------------------------------------------------
 Center     Atomic      Atomic             Coordinates (Angstroms)
 Number     Number       Type             X           Y           Z
 ---------------------------------------------------------------------
      1          6           0        1.777070    0.013679    1.049864
      2          1           0        2.605728   -0.367405    1.601127
      3          6           0        0.772790    0.536183    0.623578
      4          6           0       -0.359062    1.169004   -0.056770
      5          8           0       -0.233473    2.220498   -0.613720
      6          8           0       -1.525117    0.525584   -0.018171
      7          6           0       -1.617149   -0.802772    0.533850
      8          6           0       -1.127733   -1.843377   -0.453596
      9          1           0       -1.066604   -0.844473    1.476090
     10          1           0       -2.678033   -0.920803    0.747786
     11          1           0       -1.682619   -1.762919   -1.389590
     12          1           0       -0.061506   -1.727825   -0.658464
     13          1           0       -1.288862   -2.841514   -0.040734
     14          8           0        2.385672   -0.969033   -0.699265
     15          1           0        2.479746   -0.187750   -1.268516
 ---------------------------------------------------------------------

 SCF Done:  E(UM062X) =  -420.198495140     A.U. after   23 cycles

 The electronic state is 2-A.
 Alpha  occ. eigenvalues --  -19.68500 -19.67584 -19.63338 -10.71249 -10.61442
 Alpha  occ. eigenvalues --  -10.59869 -10.58986 -10.54041  -1.25632  -1.17116
 Alpha  occ. eigenvalues --   -1.13501  -0.90932  -0.88511  -0.77842  -0.74250
 Alpha  occ. eigenvalues --   -0.64634  -0.62500  -0.58679  -0.57397  -0.55694
 Alpha  occ. eigenvalues --   -0.53281  -0.51157  -0.49331  -0.47251  -0.46034
 Alpha  occ. eigenvalues --   -0.43242  -0.41999  -0.40437  -0.38631  -0.37058
 Alpha  occ. eigenvalues --   -0.35455
 Alpha virt. eigenvalues --   -0.01790  -0.00760   0.00523   0.00981   0.01769
 Alpha virt. eigenvalues --    0.02329   0.03492   0.04375   0.05499   0.05882
 Alpha virt. eigenvalues --    0.07179   0.08008   0.08296   0.09058   0.09786

  Beta  occ. eigenvalues --  -19.68500 -19.66115 -19.63248 -10.71277 -10.61441
  Beta  occ. eigenvalues --  -10.59916 -10.58785 -10.54042  -1.25564  -1.16943
  Beta  occ. eigenvalues --   -1.07032  -0.90110  -0.88504  -0.77734  -0.74095
  Beta  occ. eigenvalues --   -0.64531  -0.62299  -0.58536  -0.57071  -0.53328
  Beta  occ. eigenvalues --   -0.52775  -0.49592  -0.47187  -0.45901  -0.42564
  Beta  occ. eigenvalues --   -0.41281  -0.39529  -0.38986  -0.37866  -0.36648
  Beta virt. eigenvalues --   -0.10949  -0.00764  -0.00435   0.00673   0.01499
  Beta virt. eigenvalues --    0.01974   0.02566   0.03653   0.04523   0.05549
  Beta virt. eigenvalues --    0.06157   0.07212   0.08102   0.08450   0.09330

 Mulliken charges and spin densities:
               1          2
     1  C   -0.627585  -0.063735
     2  H    0.251157   0.014657
     3  C    0.749616   0.209704
     4  C   -0.176143  -0.018375
     5  O   -0.252976   0.047083
     6  O   -0.028061   0.002139
     7  C   -0.382702  -0.006798
     8  C   -0.408400   0.003017
     9  H    0.158429   0.002363
    10  H    0.209317  -0.000939
    11  H    0.180062  -0.000440
    12  H    0.184925   0.001049
    13  H    0.157292   0.000248
    14  O   -0.255047   0.827178
    15  H    0.240115  -0.017151
 Sum of Mulliken charges =  -0.00000   1.00000

 Dipole moment (field-independent basis, Debye):
    X=              0.5698    Y=             -2.8048    Z=              1.8558  Tot=              3.4111
 Quadrupole moment (field-independent basis, Debye-Ang):
   XX=            -43.6684   YY=            -55.7911   ZZ=            -44.1074
   XY=              5.8789   XZ=             -0.2837   YZ=              0.4880

  Exact polarizability:  83.375  -8.101  76.728  -2.134  -0.178  63.548
 Approx polarizability:  92.675 -12.860  89.264   2.837  -7.870  73.801

 ******    2 imaginary frequencies (negative Signs) ******

                      1                      2                      3
                      A                      A                      A
 Frequencies --   -354.5512               -22.1046                71.3127
 Red. masses --     12.9236                 6.0367                 8.1977
 Frc consts  --      0.9572                 0.0017                 0.0246
 IR Inten    --     37.3821                 6.4856                 3.4785

                      4                      5                      6
                      A                      A                      A
 Frequencies --     86.3126               129.3310               171.1355
 Red. masses --      5.2696                 3.3378                 2.2798
 Frc consts  --      0.0231                 0.0329                 0.0393
 IR Inten    --      2.0988                 0.5435                14.2700

                      7                      8                      9
                      A                      A                      A
 Frequencies --    235.8242               246.7265               311.6648
 Red. masses --      1.3694                 1.2104                 3.2138
 Frc consts  --      0.0449                 0.0434                 0.1839
 IR Inten    --     44.7322                26.9462                15.2416

                     10                     11                     12
                      A                      A                      A
 Frequencies --    354.7915               415.8826               556.6421
 Red. masses --      2.6722                 3.7542                 4.9699
 Frc consts  --      0.1982                 0.3826                 0.9073
 IR Inten    --      4.4726                 3.0745                16.1466

                     13                     14                     15
                      A                      A                      A
 Frequencies --    633.8178               667.8055               751.1963
 Red. masses --      5.5708                 1.0871                 1.4530
 Frc consts  --      1.3185                 0.2856                 0.4831
 IR Inten    --      1.2575               109.9009                35.8997

                     16                     17                     18
                      A                      A                      A
 Frequencies --    754.9428               763.4067               809.4499
 Red. masses --      4.6339                 5.9689                 1.1204
 Frc consts  --      1.5561                 2.0495                 0.4325
 IR Inten    --      7.1689                 8.6792                66.9280

                     19                     20                     21
                      A                      A                      A
 Frequencies --    818.3178               949.4412              1106.6513
 Red. masses --      1.1649                 2.2515                 3.7089
 Frc consts  --      0.4596                 1.1958                 2.6762
 IR Inten    --      4.6032                11.1109                60.7258

                     22                     23                     24
                      A                      A                      A
 Frequencies --   1132.2644              1183.6554              1261.6920
 Red. masses --      2.4611                 1.8816                 2.8842
 Frc consts  --      1.8590                 1.5532                 2.7051
 IR Inten    --     44.5234                56.4386               378.6535

                     25                     26                     27
                      A                      A                      A
 Frequencies --   1347.5493              1408.7533              1434.3465
 Red. masses --      1.2562                 1.2808                 1.3522
 Frc consts  --      1.3440                 1.4977                 1.6391
 IR Inten    --    118.1039                25.3637                18.9953

                     28                     29                     30
                      A                      A                      A
 Frequencies --   1496.4399              1508.9957              1527.7415
 Red. masses --      1.0427                 1.0479                 1.0986
 Frc consts  --      1.3758                 1.4059                 1.5107
 IR Inten    --      3.1986                 4.4576                18.2193

                     31                     32                     33
                      A                      A                      A
 Frequencies --   1848.5817              2164.8549              3068.0004
 Red. masses --     12.9610                 6.0870                 1.0355
 Frc consts  --     26.0955                16.8078                 5.7427
 IR Inten    --    477.9305                55.2726                 9.9923

                     34                     35                     36
                      A                      A                      A
 Frequencies --   3095.5460              3143.6442              3147.9311
 Red. masses --      1.0643                 1.1040                 1.1007
 Frc consts  --      6.0088                 6.4280                 6.4263
 IR Inten    --     17.0609                 2.1700                12.4666

                     37                     38                     39
                      A                      A                      A
 Frequencies --   3165.8162              3470.6131              3800.9029
 Red. masses --      1.1051                 1.1562                 1.0675
 Frc consts  --      6.5258                 8.2052                 9.0863
 IR Inten    --     16.1857                69.6189                46.5356

 - Thermochemistry -
 -------------------
 Temperature   298.150 Kelvin.  Pressure   1.00000 Atm.
 Atom     1 has atomic number  6 and mass  12.00000

 Molecular mass:   115.03952 amu.
 Principal axes and moments of inertia in atomic units:
                           1         2         3
     Eigenvalues --   813.980671058.526651536.79079
           X            0.99173   0.12837  -0.00022
           Y           -0.12836   0.99168   0.01012
           Z            0.00152  -0.01001   0.99995
 This molecule is an asymmetric top.
 Rotational symmetry number  1.
 Warning -- assumption of classical behavior for rotation
           may cause significant error
 Rotational temperatures (Kelvin)      0.10641     0.08182     0.05636
 Rotational constants (GHZ):           2.21718     1.70496     1.17436
    2 imaginary frequencies ignored.
 Zero-point vibrational energy     293336.2 (Joules/Mol)
                                   70.10903 (Kcal/Mol)
 Warning -- explicit consideration of  10 degrees of freedom as
           vibrations may cause significant error
 Vibrational temperatures:    102.60   124.18   186.08   246.23   339.30
          (Kelvin)            354.98   448.42   510.47   598.36   800.88
                              911.92   960.82  1080.80  1086.19  1098.37
                             1164.62  1177.38  1366.03  1592.22  1629.08
                             1703.02  1815.29  1938.82  2026.88  2063.70
                             2153.04  2171.11  2198.08  2659.70  3114.74
                             4414.17  4453.80  4523.00  4529.17  4554.90
                             4993.44  5468.65

 Zero-point correction=                           0.111726 (Hartree/Particle)
 Thermal correction to Energy=                    0.120491
 Thermal correction to Enthalpy=                  0.121435
 Thermal correction to Gibbs Free Energy=         0.077145
 Sum of electronic and zero-point Energies=           -419.3474964
 Sum of electronic and thermal Energies=              -420.078004
 Sum of electronic and thermal Enthalpies=            -420.077060
 Sum of electronic and thermal Free Energies=         -420.121350

                     E (Thermal)             CV                S
                      KCal/Mol        Cal/Mol-Kelvin    Cal/Mol-Kelvin
 Total                   75.609             30.222             93.216
 Electronic               0.000              0.000              1.377
 Translational            0.889              2.981             40.136
 Rotational               0.889              2.981             28.673
 Vibrational             73.832             24.260             23.031
 Vibration     1          0.598              1.968              4.117
 Vibration     2          0.601              1.959              3.742
 Vibration     3          0.612              1.924              2.956
 Vibration     4          0.626              1.878              2.423
 Vibration     5          0.655              1.786              1.834
 Vibration     6          0.661              1.768              1.754
 Vibration     7          0.700              1.651              1.353
 Vibration     8          0.731              1.565              1.145
 Vibration     9          0.779              1.436              0.906
 Vibration    10          0.912              1.125              0.531

 1\1\GINC-AJ\Freq\UM062X\6-311++G(d,p)\C5H7O3(2)\AAYUSH\29-Mar-2025\0\\
 # freq 6-311++g(d,p) m062x\\Title Card Required\\0,2\C,1.764431,-0.072
 635,1.049861\H,2.59281,-0.459525,1.597487\C,0.761209,0.45569,0.628283\
 C,-0.369699,1.096073,-0.046535\O,-0.241381,2.14988,-0.598469\O,-1.5380
 36,0.456759,-0.008741\C,-1.633829,-0.874004,0.536807\C,-1.150284,-1.91
 1432,-0.456854\H,-1.081505,-0.922456,1.477682\H,-2.694699,-0.989206,0.
 75235\H,-1.706794,-1.824239,-1.39128\H,-0.084062,-1.798774,-0.663353\H
 ,-1.314242,-2.911029,-0.048665\O,2.365807,-1.048788,-0.70543\H,2.46159

 Normal termination of Gaussian 16 at Sat Mar 29 02:36:58 2025.
