 Gaussian 16, Revision A.03,
 Gaussian 16:  ES64L-G16RevA.03 25-Dec-2016

 --------------------------
 # ccsd(t)/6-311++g(d,p) sp
 --------------------------

 -------------------
 Title Card Required
 -------------------
 Symbolic Z-matrix:
 Charge =  0 Multiplicity = 2

                         Standard orientation:
 ---------------------------------------------------------------------
 Center     Atomic      Atomic             Coordinates (Angstroms)
 Number     Number       Type             X           Y           Z
 ---------------------------------------------------------------------
      1          6           0        1.842921   -0.125982    0.852185
      2          1           0        2.559070   -0.400105    1.607736
      3          6           0        0.777601    0.519895    0.640814
      4          6           0       -0.338985    1.171356   -0.028111
      5          8           0       -0.201573    2.236702   -0.564862
      6          8           0       -1.517843    0.548504    0.005918
      7          6           0       -1.624965   -0.789373    0.529296
      8          6           0       -1.158157   -1.815902   -0.483319
      9          1           0       -1.068889   -0.859739    1.467517
     10          1           0       -2.685564   -0.896713    0.750339
     11          1           0       -1.719337   -1.706825   -1.412626
     12          1           0       -0.091432   -1.711888   -0.695463
     13          1           0       -1.330793   -2.820237   -0.090739
     14          8           0        2.330899   -0.932535   -0.624317
     15          1           0        2.454591   -0.185822   -1.225886
 ---------------------------------------------------------------------

 SCF Done:  E(UHF) =  -417.977285952     A.U. after   28 cycles
 E2 =    -0.1261933046D+01 EUMP2 =    -0.41923921899801D+03
 CCSD(T)= -0.41936285958D+03

 The electronic state is 2-A.
 Alpha  occ. eigenvalues --  -20.61152 -20.60920 -20.57745 -11.41120 -11.30895
 Alpha  occ. eigenvalues --  -11.30815 -11.30045 -11.23023  -1.48409  -1.39784
 Alpha  occ. eigenvalues --   -1.36262  -1.10643  -1.05099  -0.92035  -0.88116
 Alpha  occ. eigenvalues --   -0.76371  -0.73135  -0.70901  -0.68363  -0.66321
 Alpha  occ. eigenvalues --   -0.63949  -0.62030  -0.59317  -0.56779  -0.55164
 Alpha  occ. eigenvalues --   -0.53122  -0.51379  -0.50139  -0.47987  -0.44445
 Alpha  occ. eigenvalues --   -0.43572
 Alpha virt. eigenvalues --    0.03535   0.04612   0.05409   0.06404   0.07110
 Alpha virt. eigenvalues --    0.08141   0.09992   0.10720   0.11417   0.12165
 Alpha virt. eigenvalues --    0.13195   0.13888   0.14563   0.15543   0.15769

  Beta  occ. eigenvalues --  -20.61297 -20.58531 -20.56345 -11.41908 -11.33107
  Beta  occ. eigenvalues --  -11.30789 -11.27008 -11.23026  -1.47843  -1.37720
  Beta  occ. eigenvalues --   -1.28823  -1.06334  -1.05066  -0.92446  -0.87972
  Beta  occ. eigenvalues --   -0.75896  -0.72972  -0.69640  -0.67138  -0.64732
  Beta  occ. eigenvalues --   -0.63283  -0.58027  -0.54996  -0.54726  -0.51845
  Beta  occ. eigenvalues --   -0.50955  -0.49276  -0.47644  -0.44402  -0.43608
  Beta virt. eigenvalues --    0.02607   0.03535   0.04614   0.05798   0.06467
  Beta virt. eigenvalues --    0.07144   0.08431   0.10453   0.10736   0.11912
  Beta virt. eigenvalues --    0.12572   0.13548   0.14296   0.14459   0.15731

 Mulliken charges and spin densities:
               1          2
     1  C   -0.501604  -1.024682
     2  H    0.251698   0.074916
     3  C    0.776101   1.420504
     4  C   -0.162114  -0.292920
     5  O   -0.308328   0.306345
     6  O   -0.137675  -0.003386
     7  C   -0.245124   0.001198
     8  C   -0.422927  -0.001160
     9  H    0.133727  -0.002442
    10  H    0.184177  -0.001351
    11  H    0.163615  -0.000077
    12  H    0.178846  -0.000402
    13  H    0.128884   0.000990
    14  O   -0.285955   0.540811
    15  H    0.246679  -0.018343
 Sum of Mulliken charges =  -0.00000   1.00000

 Dipole moment (field-independent basis, Debye):
    X=              0.4131    Y=             -2.7048    Z=              2.2183  Tot=              3.5224
 Quadrupole moment (field-independent basis, Debye-Ang):
   XX=            -45.4522   YY=            -56.9524   ZZ=            -43.6962
   XY=              6.9563   XZ=              0.1792   YZ=              0.4364

 Normal termination of Gaussian 16 at Sat May 10 04:22:44 2025.
