 Gaussian 16, Revision A.03,
 Gaussian 16:  ES64L-G16RevA.03 25-Dec-2016

 --------------------------
 # freq 6-311++g(d,p) m062x
 --------------------------

 -------------------
 Title Card Required
 -------------------
 Symbolic Z-matrix:
 Charge =  0 Multiplicity = 2

                         Standard orientation:
 ---------------------------------------------------------------------
 Center     Atomic      Atomic             Coordinates (Angstroms)
 Number     Number       Type             X           Y           Z
 ---------------------------------------------------------------------
      1          6           0        1.817984   -0.072954    0.931716
      2          1           0        2.586730   -0.395248    1.604290
      3          6           0        0.777230    0.524032    0.631138
      4          6           0       -0.347177    1.171332   -0.038036
      5          8           0       -0.213042    2.231080   -0.581657
      6          8           0       -1.520241    0.540583   -0.002177
      7          6           0       -1.622151   -0.794432    0.531289
      8          6           0       -1.147540   -1.825659   -0.472828
      9          1           0       -1.067765   -0.854543    1.470842
     10          1           0       -2.682838   -0.904944    0.750076
     11          1           0       -1.707017   -1.726669   -1.404294
     12          1           0       -0.080935   -1.717428   -0.682604
     13          1           0       -1.316165   -2.827816   -0.072969
     14          8           0        2.350128   -0.946761   -0.656059
     15          1           0        2.463153   -0.186481   -1.245872
 ---------------------------------------------------------------------

 SCF Done:  E(UM062X) =  -420.202027231     A.U. after   21 cycles

 The electronic state is 2-A.
 Alpha  occ. eigenvalues --  -19.68669 -19.65937 -19.63758 -10.71492 -10.62648
 Alpha  occ. eigenvalues --  -10.61637 -10.60754 -10.54104  -1.25901  -1.17457
 Alpha  occ. eigenvalues --   -1.11904  -0.92050  -0.88662  -0.78386  -0.74807
 Alpha  occ. eigenvalues --   -0.65022  -0.62717  -0.59023  -0.57904  -0.54830
 Alpha  occ. eigenvalues --   -0.53532  -0.50694  -0.49065  -0.47453  -0.46066
 Alpha  occ. eigenvalues --   -0.43039  -0.41458  -0.40398  -0.38983  -0.37353
 Alpha  occ. eigenvalues --   -0.33659
 Alpha virt. eigenvalues --   -0.01259  -0.00755   0.00547   0.00942   0.01388
 Alpha virt. eigenvalues --    0.02250   0.03300   0.04213   0.05375   0.05907
 Alpha virt. eigenvalues --    0.07093   0.07957   0.08190   0.08874   0.09739

  Beta  occ. eigenvalues --  -19.68672 -19.64918 -19.63545 -10.71554 -10.62796
  Beta  occ. eigenvalues --  -10.61634 -10.60339 -10.54104  -1.25738  -1.17045
  Beta  occ. eigenvalues --   -1.08128  -0.90340  -0.88648  -0.78120  -0.74526
  Beta  occ. eigenvalues --   -0.64811  -0.62441  -0.58709  -0.57146  -0.53407
  Beta  occ. eigenvalues --   -0.52727  -0.49507  -0.47265  -0.45939  -0.42897
  Beta  occ. eigenvalues --   -0.42659  -0.39944  -0.38730  -0.38053  -0.36367
  Beta virt. eigenvalues --   -0.12345  -0.00742   0.00237   0.00640   0.01572
  Beta virt. eigenvalues --    0.02011   0.02556   0.03568   0.04289   0.05352
  Beta virt. eigenvalues --    0.06182   0.06993   0.08098   0.08321   0.09129

 Mulliken charges and spin densities:
               1          2
     1  C   -0.361934  -0.225541
     2  H    0.255786   0.020787
     3  C    0.561109   0.584297
     4  C   -0.222868  -0.030243
     5  O   -0.247043   0.112778
     6  O   -0.027120   0.004095
     7  C   -0.379461   0.000082
     8  C   -0.405131  -0.002439
     9  H    0.156231   0.002580
    10  H    0.209892  -0.001043
    11  H    0.179205   0.000108
    12  H    0.186540   0.002844
    13  H    0.159025  -0.000058
    14  O   -0.303432   0.542483
    15  H    0.239201  -0.010731
 Sum of Mulliken charges =  -0.00000   1.00000

 Dipole moment (field-independent basis, Debye):
    X=              0.1732    Y=             -2.4904    Z=              2.2691  Tot=              3.3736
 Quadrupole moment (field-independent basis, Debye-Ang):
   XX=            -45.1019   YY=            -56.0820   ZZ=            -43.9176
   XY=              6.6825   XZ=              0.7390   YZ=              0.2503

  Exact polarizability:  84.367  -9.433  78.306  -3.970   1.072  64.231
 Approx polarizability:  93.840 -15.418  93.234  -2.454  -3.376  76.768

 ******    1 imaginary frequencies (negative Signs) ******

                      1                      2                      3
                      A                      A                      A
 Frequencies --   -755.0697                84.0359               106.7151
 Red. masses --     10.6848                 5.0190                 5.4530
 Frc consts  --      3.5892                 0.0209                 0.0366
 IR Inten    --     31.0699                 0.2936                 8.9694

                      4                      5                      6
                      A                      A                      A
 Frequencies --    124.1791               145.9622               200.7680
 Red. masses --      5.8210                 3.7397                 1.3576
 Frc consts  --      0.0529                 0.0469                 0.0322
 IR Inten    --      2.8659                 6.1056                40.6986

                      7                      8                      9
                      A                      A                      A
 Frequencies --    234.6495               251.5745               339.3774
 Red. masses --      1.7926                 1.2434                 3.8927
 Frc consts  --      0.0582                 0.0464                 0.2642
 IR Inten    --     55.3883                 4.7204                 0.2004

                     10                     11                     12
                      A                      A                      A
 Frequencies --    363.7584               418.8080               558.4872
 Red. masses --      3.3116                 3.7338                 5.0805
 Frc consts  --      0.2582                 0.3859                 0.9337
 IR Inten    --      6.7638                 3.0679                20.0838

                     13                     14                     15
                      A                      A                      A
 Frequencies --    633.0455               731.8720               736.1418
 Red. masses --      5.9846                 3.8711                 1.6957
 Frc consts  --      1.4131                 1.2217                 0.5414
 IR Inten    --      0.6648                10.6374                45.3692

                     16                     17                     18
                      A                      A                      A
 Frequencies --    759.3890               818.7633               880.7987
 Red. masses --      4.6244                 1.1539                 1.1563
 Frc consts  --      1.5712                 0.4558                 0.5285
 IR Inten    --      1.8939                 4.9647               110.6218

                     19                     20                     21
                      A                      A                      A
 Frequencies --    938.9748               953.2259              1105.8895
 Red. masses --      1.2752                 1.7410                 3.8135
 Frc consts  --      0.6624                 0.9321                 2.7479
 IR Inten    --     17.2971                 5.0520                60.7320

                     22                     23                     24
                      A                      A                      A
 Frequencies --   1131.7542              1183.1318              1258.0563
 Red. masses --      2.3939                 1.9119                 2.9129
 Frc consts  --      1.8066                 1.5768                 2.7163
 IR Inten    --     38.4304                61.6588               371.2023

                     25                     26                     27
                      A                      A                      A
 Frequencies --   1346.7675              1408.6710              1434.5896
 Red. masses --      1.2482                 1.2788                 1.3435
 Frc consts  --      1.3339                 1.4951                 1.6291
 IR Inten    --    113.8867                22.1508                17.9455

                     28                     29                     30
                      A                      A                      A
 Frequencies --   1496.9692              1509.1423              1528.2162
 Red. masses --      1.0430                 1.0481                 1.0976
 Frc consts  --      1.3771                 1.4063                 1.5104
 IR Inten    --      3.2616                 4.3343                17.1523

                     31                     32                     33
                      A                      A                      A
 Frequencies --   1819.0829              1973.0266              3065.7115
 Red. masses --     12.9228                 6.7641                 1.0357
 Frc consts  --     25.1949                15.5140                 5.7351
 IR Inten    --    436.3529                58.2646                 9.7129

                     34                     35                     36
                      A                      A                      A
 Frequencies --   3090.5893              3140.3458              3148.2060
 Red. masses --      1.0654                 1.1037                 1.1005
 Frc consts  --      5.9956                 6.4130                 6.4265
 IR Inten    --     18.0875                 1.5697                12.5919

                     37                     38                     39
                      A                      A                      A
 Frequencies --   3164.0562              3393.4894              3827.6605
 Red. masses --      1.1043                 1.1313                 1.0679
 Frc consts  --      6.5138                 7.6755                 9.2181
 IR Inten    --     16.6944                45.4235                68.9449

 - Thermochemistry -
 -------------------
 Temperature   298.150 Kelvin.  Pressure   1.00000 Atm.
 Atom     1 has atomic number  6 and mass  12.00000

 Molecular mass:   115.03952 amu.
 Principal axes and moments of inertia in atomic units:
                           1         2         3
     Eigenvalues --   796.361351041.845251531.57810
           X            0.99180   0.12780   0.00060
           Y           -0.12780   0.99175   0.01031
           Z            0.00072  -0.01031   0.99995
 This molecule is an asymmetric top.
 Rotational symmetry number  1.
 Warning -- assumption of classical behavior for rotation
           may cause significant error
 Rotational temperatures (Kelvin)      0.10876     0.08314     0.05655
 Rotational constants (GHZ):           2.26623     1.73225     1.17835
    1 imaginary frequencies ignored.
 Zero-point vibrational energy     294914.7 (Joules/Mol)
                                   70.48630 (Kcal/Mol)
 Warning -- explicit consideration of  11 degrees of freedom as
           vibrations may cause significant error
 Vibrational temperatures:    120.91   153.54   178.67   210.01   288.86
          (Kelvin)            337.61   361.96   488.29   523.37   602.57
                              803.54   910.81  1053.00  1059.14  1092.59
                             1178.02  1267.27  1350.98  1371.48  1591.13
                             1628.34  1702.26  1810.06  1937.70  2026.76
                             2064.05  2153.80  2171.32  2198.76  2617.25
                             2838.75  4410.88  4446.67  4518.26  4529.57
                             4552.37  4882.47  5507.15

 Zero-point correction=                           0.112327 (Hartree/Particle)
 Thermal correction to Energy=                    0.121506
 Thermal correction to Enthalpy=                  0.122450
 Thermal correction to Gibbs Free Energy=         0.077552
 Sum of electronic and zero-point Energies=           -419.350829
 Sum of electronic and thermal Energies=              -420.080521
 Sum of electronic and thermal Enthalpies=            -420.079577
 Sum of electronic and thermal Free Energies=         -420.124475

                     E (Thermal)             CV                S
                      KCal/Mol        Cal/Mol-Kelvin    Cal/Mol-Kelvin
 Total                   76.246             31.515             94.495
 Electronic               0.000              0.000              1.377
 Translational            0.889              2.981             40.136
 Rotational               0.889              2.981             28.632
 Vibrational             74.469             25.554             24.351
 Vibration     1          0.601              1.960              3.794
 Vibration     2          0.606              1.944              3.328
 Vibration     3          0.610              1.929              3.034
 Vibration     4          0.617              1.907              2.724
 Vibration     5          0.638              1.839              2.126
 Vibration     6          0.654              1.788              1.843
 Vibration     7          0.664              1.760              1.720
 Vibration     8          0.719              1.597              1.215
 Vibration     9          0.737              1.547              1.106
 Vibration    10          0.782              1.429              0.896
 Vibration    11          0.914              1.121              0.527

 1\1\GINC-AJ\Freq\UM062X\6-311++G(d,p)\C5H7O3(2)\AAYUSH\29-Mar-2025\0\\
 # freq 6-311++g(d,p) m062x\\Title Card Required\\0,2\C,1.799831,-0.127
 517,0.943164\H,2.568071,-0.439003,1.621385\C,0.756479,0.460212,0.63348
 9\C,-0.369465,1.09447,-0.045517\O,-0.239959,2.150202,-0.598001\O,-1.53
 8672,0.456672,-0.008387\C,-1.634189,-0.874198,0.536499\C,-1.14937,-1.9
 11235,-0.456699\H,-1.082946,-0.922511,1.478578\H,-2.69497,-0.989465,0.
 752356\H,-1.705978,-1.824005,-1.391055\H,-0.08269,-1.798131,-0.663503\
 H,-1.313191,-2.910866,-0.048606\O,2.343371,-1.011934,-0.634847\H,2.453

 Normal termination of Gaussian 16 at Sat Mar 29 02:51:27 2025.
