 Gaussian 16, Revision A.03,
 Gaussian 16:  ES64L-G16RevA.03 25-Dec-2016

 --------------------------
 # freq 6-311++g(d,p) m062x
 --------------------------

 -------------------
 Title Card Required
 -------------------
 Symbolic Z-matrix:
 Charge =  0 Multiplicity = 2

                         Standard orientation:
 ---------------------------------------------------------------------
 Center     Atomic      Atomic             Coordinates (Angstroms)
 Number     Number       Type             X           Y           Z
 ---------------------------------------------------------------------
      1          6           0        1.824640   -0.086544    0.911858
      2          1           0        2.580573   -0.396802    1.606332
      3          6           0        0.777185    0.523013    0.633266
      4          6           0       -0.345231    1.171395   -0.035380
      5          8           0       -0.210166    2.232573   -0.577217
      6          8           0       -1.519621    0.542598    0.000010
      7          6           0       -1.622833   -0.793231    0.530825
      8          6           0       -1.150257   -1.823163   -0.475573
      9          1           0       -1.067966   -0.855985    1.470033
     10          1           0       -2.683480   -0.902877    0.750278
     11          1           0       -1.710265   -1.721543   -1.406433
     12          1           0       -0.083599   -1.715977   -0.686029
     13          1           0       -1.319887   -2.825899   -0.077606
     14          8           0        2.345128   -0.943147   -0.648508
     15          1           0        2.460873   -0.185921   -1.240820
 ---------------------------------------------------------------------

 SCF Done:  E(UM062X) =  -420.204583644     A.U. after   21 cycles

 The electronic state is 2-A.
 Alpha  occ. eigenvalues --  -19.68652 -19.65774 -19.63779 -10.71472 -10.63098
 Alpha  occ. eigenvalues --  -10.61647 -10.61002 -10.54115  -1.25896  -1.17463
 Alpha  occ. eigenvalues --   -1.11791  -0.92159  -0.88665  -0.78455  -0.74867
 Alpha  occ. eigenvalues --   -0.65042  -0.62680  -0.59051  -0.57963  -0.54864
 Alpha  occ. eigenvalues --   -0.53547  -0.50651  -0.49018  -0.47472  -0.46064
 Alpha  occ. eigenvalues --   -0.43053  -0.41446  -0.40324  -0.39016  -0.37315
 Alpha  occ. eigenvalues --   -0.33428
 Alpha virt. eigenvalues --   -0.01068  -0.00712   0.00539   0.00842   0.01420
 Alpha virt. eigenvalues --    0.02239   0.03273   0.04200   0.05367   0.05912
 Alpha virt. eigenvalues --    0.07083   0.07935   0.08183   0.08864   0.09716

  Beta  occ. eigenvalues --  -19.68655 -19.64865 -19.63544 -10.71539 -10.63257
  Beta  occ. eigenvalues --  -10.61644 -10.60550 -10.54115  -1.25715  -1.17007
  Beta  occ. eigenvalues --   -1.08474  -0.90278  -0.88651  -0.78160  -0.74566
  Beta  occ. eigenvalues --   -0.64808  -0.62386  -0.58704  -0.57117  -0.53427
  Beta  occ. eigenvalues --   -0.52909  -0.49467  -0.47256  -0.45941  -0.43329
  Beta  occ. eigenvalues --   -0.42684  -0.40003  -0.38800  -0.38052  -0.36291
  Beta virt. eigenvalues --   -0.12303  -0.00760   0.00334   0.00634   0.01522
  Beta virt. eigenvalues --    0.02077   0.02582   0.03575   0.04273   0.05332
  Beta virt. eigenvalues --    0.06193   0.06955   0.08091   0.08305   0.09119

 Mulliken charges and spin densities:
               1          2
     1  C   -0.342594  -0.234953
     2  H    0.253013   0.021559
     3  C    0.552445   0.644793
     4  C   -0.225109  -0.034322
     5  O   -0.246754   0.124553
     6  O   -0.027515   0.004534
     7  C   -0.379830   0.000859
     8  C   -0.403080  -0.002826
     9  H    0.156226   0.002708
    10  H    0.209859  -0.001035
    11  H    0.179169   0.000248
    12  H    0.185207   0.002766
    13  H    0.159373  -0.000157
    14  O   -0.311837   0.480249
    15  H    0.241427  -0.008975
 Sum of Mulliken charges =  -0.00000   1.00000

 Dipole moment (field-independent basis, Debye):
    X=              0.1410    Y=             -2.4608    Z=              2.3060  Tot=              3.3753
 Quadrupole moment (field-independent basis, Debye-Ang):
   XX=            -45.2960   YY=            -56.1571   ZZ=            -43.8999
   XY=              6.8007   XZ=              0.8216   YZ=              0.2363

  Exact polarizability:  83.575  -8.809  77.826  -3.383   0.523  63.658
 Approx polarizability:  93.065 -14.894  92.944  -2.542  -3.331  76.789

 ******    1 imaginary frequencies (negative Signs) ******

                      1                      2                      3
                      A                      A                      A
 Frequencies --   -731.7489                84.5304               109.9678
 Red. masses --     10.8941                 4.9897                 5.2660
 Frc consts  --      3.4369                 0.0210                 0.0375
 IR Inten    --      9.8743                 0.2637                10.0597

                      4                      5                      6
                      A                      A                      A
 Frequencies --    127.9271               148.7842               201.7334
 Red. masses --      5.3348                 3.9067                 1.1830
 Frc consts  --      0.0514                 0.0510                 0.0284
 IR Inten    --      1.4838                 7.4251                60.2123

                      7                      8                      9
                      A                      A                      A
 Frequencies --    239.2866               255.6916               343.9690
 Red. masses --      1.6376                 1.5294                 3.4512
 Frc consts  --      0.0552                 0.0589                 0.2406
 IR Inten    --     39.0328                 3.3112                 0.0173

                     10                     11                     12
                      A                      A                      A
 Frequencies --    370.4458               420.0524               559.1741
 Red. masses --      3.9190                 3.7406                 5.0940
 Frc consts  --      0.3169                 0.3889                 0.9384
 IR Inten    --      7.8387                 3.2098                20.8694

                     13                     14                     15
                      A                      A                      A
 Frequencies --    633.2614               726.9675               738.2923
 Red. masses --      6.0536                 9.5777                 1.3583
 Frc consts  --      1.4303                 2.9822                 0.4362
 IR Inten    --      0.5367                14.2257                39.3990

                     16                     17                     18
                      A                      A                      A
 Frequencies --    759.7551               818.9237               908.3537
 Red. masses --      4.5831                 1.1550                 1.1486
 Frc consts  --      1.5587                 0.4564                 0.5584
 IR Inten    --      2.0647                 4.4310                91.0847

                     19                     20                     21
                      A                      A                      A
 Frequencies --    947.4068               982.6518              1105.9483
 Red. masses --      2.1384                 1.1288                 3.8005
 Frc consts  --      1.1309                 0.6422                 2.7388
 IR Inten    --     13.5469                14.9212                58.6045

                     22                     23                     24
                      A                      A                      A
 Frequencies --   1131.6783              1182.8859              1257.4454
 Red. masses --      2.3932                 1.9182                 2.9179
 Frc consts  --      1.8058                 1.5814                 2.7183
 IR Inten    --     37.7955                62.4927               366.2734

                     25                     26                     27
                      A                      A                      A
 Frequencies --   1346.5542              1408.5442              1434.5308
 Red. masses --      1.2465                 1.2781                 1.3424
 Frc consts  --      1.3316                 1.4940                 1.6276
 IR Inten    --    112.6211                21.3743                17.6984

                     28                     29                     30
                      A                      A                      A
 Frequencies --   1497.0323              1509.0310              1528.2243
 Red. masses --      1.0431                 1.0481                 1.0975
 Frc consts  --      1.3773                 1.4061                 1.5102
 IR Inten    --      3.3434                 4.1931                16.5501

                     31                     32                     33
                      A                      A                      A
 Frequencies --   1811.9142              1944.3841              3065.4263
 Red. masses --     12.8946                 6.9378                 1.0357
 Frc consts  --     24.9420                15.4539                 5.7342
 IR Inten    --    427.4720                56.4424                 9.3759

                     34                     35                     36
                      A                      A                      A
 Frequencies --   3089.5448              3139.8372              3148.2657
 Red. masses --      1.0655                 1.1036                 1.1005
 Frc consts  --      5.9925                 6.4104                 6.4265
 IR Inten    --     18.3829                 1.6133                12.6201

                     37                     38                     39
                      A                      A                      A
 Frequencies --   3163.7224              3374.2118              3833.2176
 Red. masses --      1.1042                 1.1271                 1.0679
 Frc consts  --      6.5116                 7.5608                 9.2451
 IR Inten    --     16.6564                38.3380                69.9143

 - Thermochemistry -
 -------------------
 Temperature   298.150 Kelvin.  Pressure   1.00000 Atm.
 Atom     1 has atomic number  6 and mass  12.00000

 Molecular mass:   115.03952 amu.
 Principal axes and moments of inertia in atomic units:
                           1         2         3
     Eigenvalues --   793.720661039.388231530.91413
           X            0.99180   0.12781   0.00073
           Y           -0.12781   0.99174   0.01035
           Z            0.00060  -0.01036   0.99995
 This molecule is an asymmetric top.
 Rotational symmetry number  1.
 Warning -- assumption of classical behavior for rotation
           may cause significant error
 Rotational temperatures (Kelvin)      0.10912     0.08333     0.05658
 Rotational constants (GHZ):           2.27377     1.73635     1.17887
    1 imaginary frequencies ignored.
 Zero-point vibrational energy     295176.0 (Joules/Mol)
                                   70.54876 (Kcal/Mol)
 Warning -- explicit consideration of  11 degrees of freedom as
           vibrations may cause significant error
 Vibrational temperatures:    121.62   158.22   184.06   214.07   290.25
          (Kelvin)            344.28   367.88   494.89   532.99   604.36
                              804.53   911.12  1045.94  1062.24  1093.12
                             1178.25  1306.92  1363.11  1413.82  1591.21
                             1628.23  1701.91  1809.18  1937.39  2026.58
                             2063.97  2153.90  2171.16  2198.77  2606.94
                             2797.54  4410.46  4445.17  4517.53  4529.65
                             4551.89  4854.74  5515.15

 Zero-point correction=                           0.112427 (Hartree/Particle)
 Thermal correction to Energy=                    0.121548
 Thermal correction to Enthalpy=                  0.122492
 Thermal correction to Gibbs Free Energy=         0.077749
 Sum of electronic and zero-point Energies=           -419.3530194
 Sum of electronic and thermal Energies=              -420.083036
 Sum of electronic and thermal Enthalpies=            -420.082092
 Sum of electronic and thermal Free Energies=         -420.126834

                     E (Thermal)             CV                S
                      KCal/Mol        Cal/Mol-Kelvin    Cal/Mol-Kelvin
 Total                   76.272             31.386             94.169
 Electronic               0.000              0.000              1.377
 Translational            0.889              2.981             40.136
 Rotational               0.889              2.981             28.626
 Vibrational             74.495             25.424             24.030
 Vibration     1          0.601              1.960              3.783
 Vibration     2          0.606              1.941              3.269
 Vibration     3          0.611              1.925              2.977
 Vibration     4          0.618              1.904              2.688
 Vibration     5          0.639              1.837              2.117
 Vibration     6          0.657              1.780              1.808
 Vibration     7          0.666              1.753              1.691
 Vibration     8          0.723              1.588              1.194
 Vibration     9          0.742              1.533              1.078
 Vibration    10          0.783              1.427              0.892
 Vibration    11          0.915              1.120              0.525

 1\1\GINC-AJ\Freq\UM062X\6-311++G(d,p)\C5H7O3(2)\AAYUSH\29-Mar-2025\0\\
 # freq 6-311++g(d,p) m062x\\Title Card Required\\0,2\C,1.805949,-0.136
 846,0.925112\H,2.561082,-0.433757,1.626259\C,0.75513,0.461579,0.635283
 \C,-0.369178,1.09404,-0.045327\O,-0.239791,2.150319,-0.598012\O,-1.538
 866,0.456629,-0.008357\C,-1.634249,-0.874152,0.536421\C,-1.149244,-1.9
 11209,-0.456659\H,-1.083178,-0.92249,1.478712\H,-2.695008,-0.989595,0.
 752329\H,-1.705791,-1.823957,-1.391045\H,-0.082496,-1.798082,-0.663516
 \H,-1.312991,-2.91087,-0.04862\O,2.340046,-1.006197,-0.623561\H,2.4526

 Normal termination of Gaussian 16 at Sat Mar 29 02:53:50 2025.
