 Gaussian 16, Revision A.03,
 Gaussian 16:  ES64L-G16RevA.03 25-Dec-2016

 --------------------------
 # ccsd(t)/6-311++g(d,p) sp
 --------------------------

 -------------------
 Title Card Required
 -------------------
 Symbolic Z-matrix:
 Charge =  0 Multiplicity = 2

                         Standard orientation:
 ---------------------------------------------------------------------
 Center     Atomic      Atomic             Coordinates (Angstroms)
 Number     Number       Type             X           Y           Z
 ---------------------------------------------------------------------
      1          6           0        1.757223    0.059839    1.106010
      2          1           0        2.601239   -0.333162    1.622871
      3          6           0        0.766267    0.548078    0.624672
      4          6           0       -0.366368    1.166684   -0.068149
      5          8           0       -0.246389    2.213612   -0.634260
      6          8           0       -1.528285    0.515517   -0.028320
      7          6           0       -1.613767   -0.808303    0.535276
      8          6           0       -1.114948   -1.854462   -0.441619
      9          1           0       -1.065814   -0.838404    1.479327
     10          1           0       -2.674594   -0.931337    0.746723
     11          1           0       -1.666929   -1.785339   -1.380235
     12          1           0       -0.048809   -1.734274   -0.643874
     13          1           0       -1.271296   -2.850058   -0.020873
     14          8           0        2.407897   -0.980905   -0.721090
     15          1           0        2.489987   -0.184238   -1.271717
 ---------------------------------------------------------------------

 SCF Done:  E(UHF) =  -417.978987109     A.U. after   38 cycles
 E2 =    -0.1260677143D+01 EUMP2 =    -0.41923966425221D+03
 CCSD(T)= -0.41934883493D+03

 The electronic state is 2-A.
 Alpha  occ. eigenvalues --  -20.63980 -20.61185 -20.56177 -11.41474 -11.30570
 Alpha  occ. eigenvalues --  -11.27557 -11.27162 -11.22963  -1.47933  -1.39607
 Alpha  occ. eigenvalues --   -1.38841  -1.08585  -1.04966  -0.91615  -0.87422
 Alpha  occ. eigenvalues --   -0.75909  -0.73434  -0.69969  -0.68634  -0.67571
 Alpha  occ. eigenvalues --   -0.66201  -0.63479  -0.58725  -0.56923  -0.56038
 Alpha  occ. eigenvalues --   -0.54281  -0.51046  -0.48850  -0.47064  -0.43438
 Alpha  occ. eigenvalues --   -0.42891
 Alpha virt. eigenvalues --    0.03493   0.04546   0.05275   0.06368   0.07136
 Alpha virt. eigenvalues --    0.08166   0.09617   0.10596   0.10762   0.11698
 Alpha virt. eigenvalues --    0.13265   0.13812   0.14394   0.15327   0.15924

  Beta  occ. eigenvalues --  -20.61247 -20.59949 -20.55572 -11.41835 -11.30560
  Beta  occ. eigenvalues --  -11.28515 -11.25993 -11.22967  -1.47744  -1.37948
  Beta  occ. eigenvalues --   -1.24616  -1.07396  -1.04959  -0.91932  -0.87539
  Beta  occ. eigenvalues --   -0.75850  -0.73394  -0.69412  -0.66848  -0.64587
  Beta  occ. eigenvalues --   -0.63125  -0.58198  -0.55211  -0.54840  -0.51811
  Beta  occ. eigenvalues --   -0.50606  -0.47876  -0.46309  -0.43529  -0.43335
  Beta virt. eigenvalues --    0.03398   0.04454   0.04647   0.06375   0.06798
  Beta virt. eigenvalues --    0.07164   0.08375   0.09808   0.10756   0.11792
  Beta virt. eigenvalues --    0.12274   0.13799   0.14101   0.14484   0.15100

 Mulliken charges and spin densities:
               1          2
     1  C   -1.312621  -0.539814
     2  H    0.258984   0.050666
     3  C    1.362416   0.581570
     4  C    0.022596  -0.144300
     5  O   -0.345084   0.130330
     6  O   -0.138126  -0.002114
     7  C   -0.248796  -0.004133
     8  C   -0.436164   0.002982
     9  H    0.136135   0.000130
    10  H    0.184309  -0.000884
    11  H    0.165126  -0.000528
    12  H    0.178325  -0.001903
    13  H    0.126082   0.000599
    14  O   -0.194340   0.960232
    15  H    0.241160  -0.032832
 Sum of Mulliken charges =  -0.00000   1.00000

 Dipole moment (field-independent basis, Debye):
    X=              1.1633    Y=             -3.3999    Z=              1.6424  Tot=              3.9510
 Quadrupole moment (field-independent basis, Debye-Ang):
   XX=            -42.6037   YY=            -56.7916   ZZ=            -44.0094
   XY=              5.5322   XZ=             -1.3551   YZ=              0.9755

 Normal termination of Gaussian 16 at Sat May 10 06:15:45 2025.
