 Gaussian 16, Revision A.03,
 Gaussian 16:  ES64L-G16RevA.03 25-Dec-2016

 --------------------------
 # freq 6-311++g(d,p) m062x
 --------------------------

 -------------------
 Title Card Required
 -------------------
 Symbolic Z-matrix:
 Charge =  0 Multiplicity = 2

                         Standard orientation:
 ---------------------------------------------------------------------
 Center     Atomic      Atomic             Coordinates (Angstroms)
 Number     Number       Type             X           Y           Z
 ---------------------------------------------------------------------
      1          6           0        1.790709   -0.016148    1.010874
      2          1           0        2.602597   -0.380963    1.598219
      3          6           0        0.775348    0.530771    0.625146
      4          6           0       -0.354865    1.170131   -0.049992
      5          8           0       -0.225942    2.224383   -0.601933
      6          8           0       -1.523269    0.531225   -0.012310
      7          6           0       -1.619014   -0.799664    0.533019
      8          6           0       -1.135131   -1.836870   -0.460607
      9          1           0       -1.066920   -0.848081    1.474192
     10          1           0       -2.679840   -0.914752    0.748789
     11          1           0       -1.691857   -1.749561   -1.394898
     12          1           0       -0.068815   -1.724009   -0.667293
     13          1           0       -1.299104   -2.836480   -0.052485
     14          8           0        2.372718   -0.961487   -0.685017
     15          1           0        2.473604   -0.188435   -1.263086
 ---------------------------------------------------------------------

 SCF Done:  E(UM062X) =  -420.197940859     A.U. after   23 cycles

 The electronic state is 2-A.
 Alpha  occ. eigenvalues --  -19.68580 -19.67028 -19.63484 -10.71356 -10.61510
 Alpha  occ. eigenvalues --  -10.60625 -10.59507 -10.54056  -1.25738  -1.17242
 Alpha  occ. eigenvalues --   -1.12975  -0.91283  -0.88566  -0.78000  -0.74430
 Alpha  occ. eigenvalues --   -0.64778  -0.62612  -0.58792  -0.57554  -0.55323
 Alpha  occ. eigenvalues --   -0.53368  -0.50991  -0.49282  -0.47317  -0.46042
 Alpha  occ. eigenvalues --   -0.43088  -0.41800  -0.40535  -0.38737  -0.37190
 Alpha  occ. eigenvalues --   -0.34896
 Alpha virt. eigenvalues --   -0.01737  -0.00752   0.00545   0.01002   0.01653
 Alpha virt. eigenvalues --    0.02308   0.03439   0.04316   0.05458   0.05883
 Alpha virt. eigenvalues --    0.07155   0.08010   0.08256   0.08980   0.09796

  Beta  occ. eigenvalues --  -19.68581 -19.65650 -19.63362 -10.71394 -10.61509
  Beta  occ. eigenvalues --  -10.60702 -10.59247 -10.54057  -1.25646  -1.17006
  Beta  occ. eigenvalues --   -1.07262  -0.90229  -0.88558  -0.77853  -0.74238
  Beta  occ. eigenvalues --   -0.64650  -0.62393  -0.58605  -0.57121  -0.53340
  Beta  occ. eigenvalues --   -0.52634  -0.49583  -0.47222  -0.45913  -0.42607
  Beta  occ. eigenvalues --   -0.41640  -0.39630  -0.38800  -0.37927  -0.36601
  Beta virt. eigenvalues --   -0.11575  -0.00708  -0.00221   0.00668   0.01581
  Beta virt. eigenvalues --    0.01943   0.02566   0.03625   0.04447   0.05490
  Beta virt. eigenvalues --    0.06157   0.07160   0.08112   0.08405   0.09241

 Mulliken charges and spin densities:
               1          2
     1  C   -0.489204  -0.123978
     2  H    0.256873   0.016888
     3  C    0.637645   0.314738
     4  C   -0.199869  -0.018650
     5  O   -0.250819   0.064310
     6  O   -0.027096   0.002676
     7  C   -0.381565  -0.004640
     8  C   -0.408491   0.001023
     9  H    0.157640   0.002394
    10  H    0.209490  -0.000984
    11  H    0.179664  -0.000351
    12  H    0.186469   0.001991
    13  H    0.157766   0.000204
    14  O   -0.266137   0.760777
    15  H    0.237635  -0.016398
 Sum of Mulliken charges =  -0.00000   1.00000

 Dipole moment (field-independent basis, Debye):
    X=              0.4365    Y=             -2.7095    Z=              1.9866  Tot=              3.3880
 Quadrupole moment (field-independent basis, Debye-Ang):
   XX=            -44.0768   YY=            -55.8517   ZZ=            -44.0449
   XY=              6.0842   XZ=              0.0557   YZ=              0.4005

  Exact polarizability:  85.093  -9.717  78.213  -4.019   1.279  64.762
 Approx polarizability:  93.953 -14.497  91.266   0.587  -6.027  74.830

 ******    1 imaginary frequencies (negative Signs) ******

                      1                      2                      3
                      A                      A                      A
 Frequencies --   -564.9396                55.9604                81.4033
 Red. masses --     12.0195                 6.3392                 4.9268
 Frc consts  --      2.2602                 0.0117                 0.0192
 IR Inten    --     78.1637                 6.5187                 0.6974

                      4                      5                      6
                      A                      A                      A
 Frequencies --     96.3535               132.0498               175.1536
 Red. masses --      8.6952                 3.2735                 2.1196
 Frc consts  --      0.0476                 0.0336                 0.0383
 IR Inten    --      6.6549                 0.1208                16.7235

                      7                      8                      9
                      A                      A                      A
 Frequencies --    233.3243               247.1612               318.7021
 Red. masses --      1.3992                 1.1652                 3.8108
 Frc consts  --      0.0449                 0.0419                 0.2281
 IR Inten    --     58.1723                16.0196                 8.3200

                     10                     11                     12
                      A                      A                      A
 Frequencies --    355.5427               416.4440               556.9559
 Red. masses --      2.6955                 3.7508                 5.0010
 Frc consts  --      0.2008                 0.3832                 0.9140
 IR Inten    --      4.5154                 3.1318                17.2270

                     13                     14                     15
                      A                      A                      A
 Frequencies --    633.7114               717.1887               750.4095
 Red. masses --      5.6886                 1.1774                 7.4046
 Frc consts  --      1.3460                 0.3568                 2.4567
 IR Inten    --      1.4504                80.5852                17.5811

                     16                     17                     18
                      A                      A                      A
 Frequencies --    759.3830               770.3805               818.6955
 Red. masses --      3.2756                 1.4710                 1.1599
 Frc consts  --      1.1129                 0.5144                 0.4580
 IR Inten    --     11.9688                65.8851                 5.3441

                     19                     20                     21
                      A                      A                      A
 Frequencies --    830.1940               949.4036              1106.3912
 Red. masses --      1.1051                 2.2519                 3.7537
 Frc consts  --      0.4488                 1.1959                 2.7072
 IR Inten    --     43.4913                11.2526                62.8735

                     22                     23                     24
                      A                      A                      A
 Frequencies --   1132.1578              1183.6054              1260.5182
 Red. masses --      2.4347                 1.8899                 2.8934
 Frc consts  --      1.8387                 1.5599                 2.7087
 IR Inten    --     42.7587                58.4283               382.1747

                     25                     26                     27
                      A                      A                      A
 Frequencies --   1347.4453              1408.8401              1434.5286
 Red. masses --      1.2537                 1.2801                 1.3497
 Frc consts  --      1.3411                 1.4970                 1.6365
 IR Inten    --    117.3229                24.6038                18.9153

                     28                     29                     30
                      A                      A                      A
 Frequencies --   1496.6212              1509.1590              1527.9211
 Red. masses --      1.0428                 1.0480                 1.0982
 Frc consts  --      1.3762                 1.4063                 1.5106
 IR Inten    --      3.1428                 4.5918                18.4964

                     31                     32                     33
                      A                      A                      A
 Frequencies --   1842.1913              2112.4215              3067.3671
 Red. masses --     12.9609                 6.2782                 1.0355
 Frc consts  --     25.9151                16.5063                 5.7405
 IR Inten    --    469.2456                59.8878                10.3105

                     34                     35                     36
                      A                      A                      A
 Frequencies --   3094.2180              3142.8146              3147.9581
 Red. masses --      1.0646                 1.1039                 1.1006
 Frc consts  --      6.0055                 6.4244                 6.4261
 IR Inten    --     17.2209                 1.8325                12.5516

                     37                     38                     39
                      A                      A                      A
 Frequencies --   3165.3375              3456.6143              3809.4481
 Red. masses --      1.1049                 1.1487                 1.0676
 Frc consts  --      6.5225                 8.0867                 9.1281
 IR Inten    --     16.5809                67.2366                53.5020

 - Thermochemistry -
 -------------------
 Temperature   298.150 Kelvin.  Pressure   1.00000 Atm.
 Atom     1 has atomic number  6 and mass  12.00000

 Molecular mass:   115.03952 amu.
 Principal axes and moments of inertia in atomic units:
                           1         2         3
     Eigenvalues --   807.721561052.539991534.75996
           X            0.99177   0.12802   0.00002
           Y           -0.12801   0.99172   0.01019
           Z            0.00128  -0.01011   0.99995
 This molecule is an asymmetric top.
 Rotational symmetry number  1.
 Warning -- assumption of classical behavior for rotation
           may cause significant error
 Rotational temperatures (Kelvin)      0.10723     0.08229     0.05643
 Rotational constants (GHZ):           2.23436     1.71465     1.17591
    1 imaginary frequencies ignored.
 Zero-point vibrational energy     293946.2 (Joules/Mol)
                                   70.25484 (Kcal/Mol)
 Warning -- explicit consideration of  11 degrees of freedom as
           vibrations may cause significant error
 Vibrational temperatures:     80.51   117.12   138.63   189.99   252.01
          (Kelvin)            335.70   355.61   458.54   511.55   599.17
                              801.34   911.77  1031.87  1079.67  1092.58
                             1108.41  1177.92  1194.46  1365.98  1591.85
                             1628.92  1702.94  1813.60  1938.67  2027.01
                             2063.97  2153.30  2171.34  2198.34  2650.50
                             3039.30  4413.26  4451.89  4521.81  4529.21
                             4554.21  4973.30  5480.95

 Zero-point correction=                           0.111958 (Hartree/Particle)
 Thermal correction to Energy=                    0.121458
 Thermal correction to Enthalpy=                  0.122402
 Thermal correction to Gibbs Free Energy=         0.076255
 Sum of electronic and zero-point Energies=           -419.3472548
 Sum of electronic and thermal Energies=              -420.076483
 Sum of electronic and thermal Enthalpies=            -420.075539
 Sum of electronic and thermal Free Energies=         -420.121686

                     E (Thermal)             CV                S
                      KCal/Mol        Cal/Mol-Kelvin    Cal/Mol-Kelvin
 Total                   76.216             32.018             97.126
 Electronic               0.000              0.000              1.377
 Translational            0.889              2.981             40.136
 Rotational               0.889              2.981             28.658
 Vibrational             74.439             26.056             26.955
 Vibration     1          0.596              1.975              4.595
 Vibration     2          0.600              1.962              3.857
 Vibration     3          0.603              1.952              3.527
 Vibration     4          0.612              1.921              2.916
 Vibration     5          0.627              1.873              2.379
 Vibration     6          0.654              1.790              1.853
 Vibration     7          0.661              1.767              1.751
 Vibration     8          0.705              1.638              1.317
 Vibration     9          0.731              1.564              1.142
 Vibration    10          0.780              1.435              0.904
 Vibration    11          0.912              1.124              0.530

 1\1\GINC-AJ\Freq\UM062X\6-311++G(d,p)\C5H7O3(2)\AAYUSH\29-Mar-2025\0\\
 # freq 6-311++g(d,p) m062x\\Title Card Required\\0,2\C,1.77581299,-0.0
 9060541,1.0146411\H,2.58770099,-0.45542041,1.6019861\C,0.76045199,0.45
 631359,0.6289131\C,-0.36976101,1.09567359,-0.0462249\O,-0.24083801,2.1
 4992559,-0.5981659\O,-1.53816501,0.45676759,-0.0085429\C,-1.63391001,-
 0.87412141,0.5367861\C,-1.15002701,-1.91132741,-0.4568399\H,-1.0818160
 1,-0.92253841,1.4779591\H,-2.69473601,-0.98920941,0.7525561\H,-1.70675
 301,-1.82401841,-1.3911309\H,-0.08371101,-1.79846641,-0.6635259\H,-1.3

 Normal termination of Gaussian 16 at Sat Mar 29 02:41:50 2025.
