 Gaussian 16, Revision A.03,
 Gaussian 16:  ES64L-G16RevA.03 25-Dec-2016

 --------------------------
 # freq 6-311++g(d,p) m062x
 --------------------------

 -------------------
 Title Card Required
 -------------------
 Symbolic Z-matrix:
 Charge =  0 Multiplicity = 2

                         Standard orientation:
 ---------------------------------------------------------------------
 Center     Atomic      Atomic             Coordinates (Angstroms)
 Number     Number       Type             X           Y           Z
 ---------------------------------------------------------------------
      1          6           0        1.750646    0.075407    1.123889
      2          1           0        2.597766   -0.318353    1.634883
      3          6           0        0.763668    0.552821    0.625983
      4          6           0       -0.368957    1.165842   -0.072190
      5          8           0       -0.250791    2.210980   -0.641859
      6          8           0       -1.529349    0.511920   -0.032065
      7          6           0       -1.612616   -0.810181    0.535807
      8          6           0       -1.110475   -1.858354   -0.437221
      9          1           0       -1.065650   -0.836065    1.480517
     10          1           0       -2.673420   -0.934889    0.746396
     11          1           0       -1.661394   -1.793287   -1.376746
     12          1           0       -0.044349   -1.736585   -0.638597
     13          1           0       -1.265191   -2.852988   -0.013613
     14          8           0        2.415714   -0.985148   -0.728393
     15          1           0        2.494065   -0.183065   -1.271911
 ---------------------------------------------------------------------

 SCF Done:  E(UM062X) =  -420.200877001     A.U. after   24 cycles

 The electronic state is 2-A.
 Alpha  occ. eigenvalues --  -19.68415 -19.68345 -19.63195 -10.71139 -10.61368
 Alpha  occ. eigenvalues --  -10.59099 -10.58463 -10.54036  -1.25521  -1.16980
 Alpha  occ. eigenvalues --   -1.14102  -0.90517  -0.88457  -0.77685  -0.74053
 Alpha  occ. eigenvalues --   -0.64454  -0.62327  -0.58562  -0.57230  -0.56195
 Alpha  occ. eigenvalues --   -0.53191  -0.51332  -0.49374  -0.47190  -0.46042
 Alpha  occ. eigenvalues --   -0.43562  -0.42145  -0.40300  -0.38552  -0.36911
 Alpha  occ. eigenvalues --   -0.36271
 Alpha virt. eigenvalues --   -0.01939  -0.00783   0.00486   0.00961   0.01858
 Alpha virt. eigenvalues --    0.02337   0.03534   0.04450   0.05532   0.05908
 Alpha virt. eigenvalues --    0.07190   0.07971   0.08358   0.09211   0.09720

  Beta  occ. eigenvalues --  -19.68415 -19.66795 -19.63142 -10.71156 -10.61367
  Beta  occ. eigenvalues --  -10.59112 -10.58337 -10.54037  -1.25481  -1.16878
  Beta  occ. eigenvalues --   -1.06782  -0.89978  -0.88451  -0.77620  -0.73949
  Beta  occ. eigenvalues --   -0.64386  -0.62165  -0.58470  -0.57023  -0.53411
  Beta  occ. eigenvalues --   -0.52927  -0.49609  -0.47160  -0.45901  -0.42519
  Beta  occ. eigenvalues --   -0.40865  -0.39585  -0.39183  -0.37807  -0.36677
  Beta virt. eigenvalues --   -0.10230  -0.01182  -0.00593   0.00667   0.01372
  Beta virt. eigenvalues --    0.01997   0.02534   0.03664   0.04595   0.05597
  Beta virt. eigenvalues --    0.06174   0.07241   0.08060   0.08516   0.09485

 Mulliken charges and spin densities:
               1          2
     1  C   -1.048754  -0.003214
     2  H    0.233487   0.010345
     3  C    1.107872   0.102074
     4  C   -0.105063  -0.015919
     5  O   -0.255208   0.027357
     6  O   -0.029751   0.001358
     7  C   -0.383288  -0.009157
     8  C   -0.407611   0.005869
     9  H    0.159679   0.002273
    10  H    0.209300  -0.000846
    11  H    0.180861  -0.000472
    12  H    0.183133  -0.000700
    13  H    0.156821   0.000275
    14  O   -0.246136   0.897918
    15  H    0.244658  -0.017162
 Sum of Mulliken charges =  -0.00000   1.00000

 Dipole moment (field-independent basis, Debye):
    X=              0.7153    Y=             -2.8702    Z=              1.7455  Tot=              3.4346
 Quadrupole moment (field-independent basis, Debye-Ang):
   XX=            -43.3409   YY=            -55.7202   ZZ=            -44.1645
   XY=              5.8036   XZ=             -0.6563   YZ=              0.6397

  Exact polarizability:  79.995  -5.019  74.121   1.513  -2.834  61.567
 Approx polarizability:  90.355 -10.028  86.080   6.440 -10.477  73.108

 ******    1 imaginary frequencies (negative Signs) ******

                      1                      2                      3
                      A                      A                      A
 Frequencies --    -42.2919                56.5449                83.1030
 Red. masses --      6.1690                 9.8107                 4.5948
 Frc consts  --      0.0065                 0.0185                 0.0187
 IR Inten    --      5.8665                 3.1724                 0.8611

                      4                      5                      6
                      A                      A                      A
 Frequencies --    126.0152               170.6710               182.4100
 Red. masses --      3.3680                 2.5299                 9.5588
 Frc consts  --      0.0315                 0.0434                 0.1874
 IR Inten    --      0.7389                11.6890                 3.7244

                      7                      8                      9
                      A                      A                      A
 Frequencies --    238.0491               248.6066               307.5887
 Red. masses --      1.2831                 1.3365                 2.6060
 Frc consts  --      0.0428                 0.0487                 0.1453
 IR Inten    --     21.6318                47.0984                23.9125

                     10                     11                     12
                      A                      A                      A
 Frequencies --    354.8672               415.5256               555.5201
 Red. masses --      2.6675                 3.7562                 3.7732
 Frc consts  --      0.1979                 0.3821                 0.6861
 IR Inten    --      4.4452                 2.6831                18.4694

                     13                     14                     15
                      A                      A                      A
 Frequencies --    573.2796               634.2304               745.3400
 Red. masses --      1.1372                 5.7286                 1.3105
 Frc consts  --      0.2202                 1.3577                 0.4289
 IR Inten    --    117.9673                 2.9053                35.0918

                     16                     17                     18
                      A                      A                      A
 Frequencies --    757.0555               766.8601               786.7715
 Red. masses --      5.4311                 7.1436                 1.1974
 Frc consts  --      1.8340                 2.4751                 0.4367
 IR Inten    --      2.0350                 9.8371                69.0711

                     19                     20                     21
                      A                      A                      A
 Frequencies --    817.7828               949.6188              1106.9635
 Red. masses --      1.1671                 2.2504                 3.6428
 Frc consts  --      0.4599                 1.1957                 2.6300
 IR Inten    --      4.7407                10.2309                56.0213

                     22                     23                     24
                      A                      A                      A
 Frequencies --   1132.3548              1183.7107              1263.3986
 Red. masses --      2.5015                 1.8703                 2.8624
 Frc consts  --      1.8898                 1.5440                 2.6919
 IR Inten    --     46.5224                53.3268               368.1770

                     25                     26                     27
                      A                      A                      A
 Frequencies --   1347.4481              1408.4459              1433.9247
 Red. masses --      1.2619                 1.2825                 1.3552
 Frc consts  --      1.3498                 1.4990                 1.6417
 IR Inten    --    119.7492                26.3273                18.6781

                     28                     29                     30
                      A                      A                      A
 Frequencies --   1496.1031              1508.6216              1527.7426
 Red. masses --      1.0426                 1.0476                 1.0993
 Frc consts  --      1.3749                 1.4048                 1.5117
 IR Inten    --      3.3903                 4.0393                17.3840

                     31                     32                     33
                      A                      A                      A
 Frequencies --   1853.8164              2212.4287              3068.4848
 Red. masses --     12.9591                 5.9039                 1.0355
 Frc consts  --     26.2396                17.0267                 5.7445
 IR Inten    --    482.9835                53.2631                 9.1855

                     34                     35                     36
                      A                      A                      A
 Frequencies --   3097.0581              3144.0098              3148.1700
 Red. masses --      1.0639                 1.1041                 1.1007
 Frc consts  --      6.0123                 6.4300                 6.4276
 IR Inten    --     16.8914                 2.3318                12.5213

                     37                     38                     39
                      A                      A                      A
 Frequencies --   3166.0808              3487.8771              3789.8693
 Red. masses --      1.1054                 1.1632                 1.0674
 Frc consts  --      6.5284                 8.3372                 9.0325
 IR Inten    --     15.7899                69.5689                37.5505

 - Thermochemistry -
 -------------------
 Temperature   298.150 Kelvin.  Pressure   1.00000 Atm.
 Atom     1 has atomic number  6 and mass  12.00000

 Molecular mass:   115.03952 amu.
 Principal axes and moments of inertia in atomic units:
                           1         2         3
     Eigenvalues --   827.947271072.283311542.02701
           X            0.99154   0.12980  -0.00046
           Y           -0.12979   0.99149   0.01005
           Z            0.00176  -0.00991   0.99995
 This molecule is an asymmetric top.
 Rotational symmetry number  1.
 Warning -- assumption of classical behavior for rotation
           may cause significant error
 Rotational temperatures (Kelvin)      0.10461     0.08078     0.05617
 Rotational constants (GHZ):           2.17978     1.68308     1.17037
    1 imaginary frequencies ignored.
 Zero-point vibrational energy     293960.4 (Joules/Mol)
                                   70.25823 (Kcal/Mol)
 Warning -- explicit consideration of  12 degrees of freedom as
           vibrations may cause significant error
 Vibrational temperatures:     81.36   119.57   181.31   245.56   262.45
          (Kelvin)            342.50   357.69   442.55   510.57   597.85
                              799.27   824.82   912.52  1072.38  1089.23
                             1103.34  1131.99  1176.61  1366.29  1592.67
                             1629.21  1703.10  1817.75  1938.68  2026.44
                             2063.10  2152.56  2170.57  2198.08  2667.23
                             3183.19  4414.87  4455.98  4523.53  4529.51
                             4555.28  5018.28  5452.78

 Zero-point correction=                           0.111964 (Hartree/Particle)
 Thermal correction to Energy=                    0.121416
 Thermal correction to Enthalpy=                  0.122361
 Thermal correction to Gibbs Free Energy=         0.076603
 Sum of electronic and zero-point Energies=           -419.3493518
 Sum of electronic and thermal Energies=              -420.079461
 Sum of electronic and thermal Enthalpies=            -420.078516
 Sum of electronic and thermal Free Energies=         -420.124274

                     E (Thermal)             CV                S
                      KCal/Mol        Cal/Mol-Kelvin    Cal/Mol-Kelvin
 Total                   76.190             32.335             96.305
 Electronic               0.000              0.000              1.377
 Translational            0.889              2.981             40.136
 Rotational               0.889              2.981             28.706
 Vibrational             74.412             26.374             26.086
 Vibration     1          0.596              1.975              4.574
 Vibration     2          0.600              1.961              3.816
 Vibration     3          0.611              1.927              3.006
 Vibration     4          0.626              1.879              2.428
 Vibration     5          0.630              1.864              2.304
 Vibration     6          0.656              1.782              1.817
 Vibration     7          0.662              1.765              1.740
 Vibration     8          0.697              1.659              1.375
 Vibration     9          0.731              1.565              1.145
 Vibration    10          0.779              1.437              0.907
 Vibration    11          0.911              1.128              0.533
 Vibration    12          0.930              1.089              0.498

 Normal termination of Gaussian 16 at Sat Mar 29 01:32:52 2025.
