 Gaussian 16, Revision A.03,
 Gaussian 16:  ES64L-G16RevA.03 25-Dec-2016

 --------------------------
 # ccsd(t)/6-311++g(d,p) sp
 --------------------------

 -------------------
 Title Card Required
 -------------------
 Symbolic Z-matrix:
 Charge =  0 Multiplicity = 2

                         Standard orientation:
 ---------------------------------------------------------------------
 Center     Atomic      Atomic             Coordinates (Angstroms)
 Number     Number       Type             X           Y           Z
 ---------------------------------------------------------------------
      1          6           0        1.831053   -0.099906    0.891980
      2          1           0        2.573843   -0.398010    1.607737
      3          6           0        0.777180    0.522028    0.635609
      4          6           0       -0.343230    1.171412   -0.032850
      5          8           0       -0.207317    2.234004   -0.572955
      6          8           0       -1.519021    0.544572    0.002081
      7          6           0       -1.623522   -0.792002    0.530338
      8          6           0       -1.152912   -1.820721   -0.478228
      9          1           0       -1.068214   -0.857335    1.469213
     10          1           0       -2.684139   -0.900841    0.750394
     11          1           0       -1.713382   -1.716553   -1.408527
     12          1           0       -0.086218   -1.714577   -0.689306
     13          1           0       -1.323537   -2.824011   -0.082100
     14          8           0        2.340277   -0.939572   -0.640720
     15          1           0        2.458716   -0.185584   -1.235751
 ---------------------------------------------------------------------

 SCF Done:  E(UHF) =  -417.972141426     A.U. after   31 cycles
 E2 =    -0.1257632017D+01 EUMP2 =    -0.41922977344280D+03
 CCSD(T)= -0.41935578566D+03

 The electronic state is 2-A.
 Alpha  occ. eigenvalues --  -20.61712 -20.61136 -20.57429 -11.41144 -11.30766
 Alpha  occ. eigenvalues --  -11.29758 -11.29455 -11.23005  -1.48312  -1.39629
 Alpha  occ. eigenvalues --   -1.37169  -1.10228  -1.05070  -0.91855  -0.87916
 Alpha  occ. eigenvalues --   -0.76249  -0.73172  -0.70721  -0.68181  -0.66690
 Alpha  occ. eigenvalues --   -0.63863  -0.63036  -0.59248  -0.56683  -0.55388
 Alpha  occ. eigenvalues --   -0.53588  -0.51327  -0.49985  -0.47843  -0.44252
 Alpha  occ. eigenvalues --   -0.43584
 Alpha virt. eigenvalues --    0.03557   0.04605   0.05370   0.06396   0.07124
 Alpha virt. eigenvalues --    0.08146   0.09991   0.10726   0.11486   0.12008
 Alpha virt. eigenvalues --    0.13283   0.13832   0.14535   0.15407   0.15754

  Beta  occ. eigenvalues --  -20.61269 -20.58773 -20.56136 -11.41885 -11.31961
  Beta  occ. eigenvalues --  -11.30742 -11.26682 -11.23008  -1.47815  -1.37720
  Beta  occ. eigenvalues --   -1.27551  -1.06612  -1.05042  -0.92341  -0.87882
  Beta  occ. eigenvalues --   -0.75869  -0.73069  -0.69560  -0.67068  -0.64603
  Beta  occ. eigenvalues --   -0.63223  -0.58037  -0.54984  -0.54749  -0.51687
  Beta  occ. eigenvalues --   -0.50564  -0.48495  -0.47363  -0.44279  -0.43737
  Beta virt. eigenvalues --    0.02914   0.03551   0.04602   0.05848   0.06457
  Beta virt. eigenvalues --    0.07153   0.08431   0.10416   0.10736   0.11916
  Beta virt. eigenvalues --    0.12588   0.13669   0.14352   0.14415   0.15783

 Mulliken charges and spin densities:
               1          2
     1  C   -0.542708  -1.053294
     2  H    0.262342   0.075605
     3  C    0.771651   1.330351
     4  C   -0.148564  -0.279776
     5  O   -0.315046   0.281607
     6  O   -0.137031  -0.003235
     7  C   -0.243157   0.000028
     8  C   -0.428363  -0.000829
     9  H    0.133795  -0.002006
    10  H    0.184121  -0.001348
    11  H    0.163703  -0.000277
    12  H    0.180247   0.000083
    13  H    0.128282   0.001037
    14  O   -0.252437   0.674688
    15  H    0.243165  -0.022638
 Sum of Mulliken charges =  -0.00000   1.00000

 Dipole moment (field-independent basis, Debye):
    X=              0.5628    Y=             -2.8752    Z=              2.0688  Tot=              3.5865
 Quadrupole moment (field-independent basis, Debye-Ang):
   XX=            -44.8381   YY=            -56.8864   ZZ=            -43.7076
   XY=              6.5689   XZ=             -0.1865   YZ=              0.5598

 Normal termination of Gaussian 16 at Sun May 11 01:24:01 2025.
