 Gaussian 16, Revision A.03,
 Gaussian 16:  ES64L-G16RevA.03 25-Dec-2016

 --------------------------
 # ccsd(t)/6-311++g(d,p) sp
 --------------------------

 -------------------
 Title Card Required
 -------------------
 Symbolic Z-matrix:
 Charge =  0 Multiplicity = 2

                         Standard orientation:
 ---------------------------------------------------------------------
 Center     Atomic      Atomic             Coordinates (Angstroms)
 Number     Number       Type             X           Y           Z
 ---------------------------------------------------------------------
      1          6           0        1.744054    0.091019    1.141281
      2          1           0        2.593346   -0.301960    1.649206
      3          6           0        0.760875    0.557946    0.627786
      4          6           0       -0.371574    1.164988   -0.076319
      5          8           0       -0.255133    2.208151   -0.649848
      6          8           0       -1.530389    0.508245   -0.036011
      7          6           0       -1.611495   -0.812013    0.536361
      8          6           0       -1.105964   -1.862305   -0.432613
      9          1           0       -1.065587   -0.833529    1.481757
     10          1           0       -2.672282   -0.938362    0.746061
     11          1           0       -1.655770   -1.801417   -1.373067
     12          1           0       -0.039846   -1.738963   -0.633099
     13          1           0       -1.259065   -2.855913   -0.006028
     14          8           0        2.423670   -0.989586   -0.735637
     15          1           0        2.498638   -0.182138   -1.271854
 ---------------------------------------------------------------------

 SCF Done:  E(UHF) =  -417.981412746     A.U. after   39 cycles
 E2 =    -0.1261612213D+01 EUMP2 =    -0.41924302495865D+03
 CCSD(T)= -0.41934986386D+03

 The electronic state is 2-A.
 Alpha  occ. eigenvalues --  -20.64087 -20.61224 -20.56129 -11.41557 -11.30573
 Alpha  occ. eigenvalues --  -11.27525 -11.27145 -11.22973  -1.47940  -1.39641
 Alpha  occ. eigenvalues --   -1.38794  -1.08476  -1.04976  -0.91649  -0.87433
 Alpha  occ. eigenvalues --   -0.75866  -0.73416  -0.69936  -0.68737  -0.67539
 Alpha  occ. eigenvalues --   -0.66317  -0.63464  -0.58693  -0.56984  -0.55993
 Alpha  occ. eigenvalues --   -0.54308  -0.51044  -0.48775  -0.47007  -0.43415
 Alpha  occ. eigenvalues --   -0.42928
 Alpha virt. eigenvalues --    0.03487   0.04546   0.05287   0.06369   0.07129
 Alpha virt. eigenvalues --    0.08162   0.09446   0.10479   0.10743   0.11695
 Alpha virt. eigenvalues --    0.13241   0.13825   0.14363   0.15419   0.15923

  Beta  occ. eigenvalues --  -20.61278 -20.60018 -20.55609 -11.41868 -11.30564
  Beta  occ. eigenvalues --  -11.28371 -11.26111 -11.22977  -1.47780  -1.38027
  Beta  occ. eigenvalues --   -1.24384  -1.07464  -1.04971  -0.91932  -0.87547
  Beta  occ. eigenvalues --   -0.75838  -0.73402  -0.69451  -0.66871  -0.64547
  Beta  occ. eigenvalues --   -0.63149  -0.58241  -0.55282  -0.54851  -0.51805
  Beta  occ. eigenvalues --   -0.50629  -0.47938  -0.46345  -0.43502  -0.43303
  Beta virt. eigenvalues --    0.03416   0.04492   0.04692   0.06368   0.06935
  Beta virt. eigenvalues --    0.07183   0.08352   0.09669   0.10750   0.11778
  Beta virt. eigenvalues --    0.12134   0.13696   0.14051   0.14445   0.15205

 Mulliken charges and spin densities:
               1          2
     1  C   -1.594416  -0.450367
     2  H    0.249940   0.045091
     3  C    1.615059   0.483330
     4  C    0.064447  -0.125183
     5  O   -0.346831   0.111977
     6  O   -0.138486  -0.001923
     7  C   -0.250083  -0.004369
     8  C   -0.435724   0.003721
     9  H    0.136644   0.000167
    10  H    0.184396  -0.000801
    11  H    0.165540  -0.000466
    12  H    0.178011  -0.002792
    13  H    0.126061   0.000534
    14  O   -0.195882   0.974575
    15  H    0.241324  -0.033493
 Sum of Mulliken charges =  -0.00000   1.00000

 Dipole moment (field-independent basis, Debye):
    X=              1.1796    Y=             -3.3783    Z=              1.6735  Tot=              3.9503
 Quadrupole moment (field-independent basis, Debye-Ang):
   XX=            -42.5829   YY=            -56.7852   ZZ=            -44.0295
   XY=              5.6205   XZ=             -1.3617   YZ=              1.0266

 Normal termination of Gaussian 16 at Sat May 10 09:55:56 2025.
