 Gaussian 16, Revision A.03,
 Gaussian 16:  ES64L-G16RevA.03 25-Dec-2016

 --------------------------
 # freq 6-311++g(d,p) m062x
 --------------------------

 -------------------
 Title Card Required
 -------------------
 Symbolic Z-matrix:
 Charge =  0 Multiplicity = 2

                         Standard orientation:
 ---------------------------------------------------------------------
 Center     Atomic      Atomic             Coordinates (Angstroms)
 Number     Number       Type             X           Y           Z
 ---------------------------------------------------------------------
      1          6           0        1.770435    0.028927    1.068940
      2          1           0        2.605184   -0.357650    1.606174
      3          6           0        0.770845    0.539760    0.623513
      4          6           0       -0.361389    1.168275   -0.060424
      5          8           0       -0.237674    2.218355   -0.620209
      6          8           0       -1.526153    0.522373   -0.021386
      7          6           0       -1.616053   -0.804563    0.534299
      8          6           0       -1.123620   -1.846950   -0.449798
      9          1           0       -1.066304   -0.842581    1.477112
     10          1           0       -2.676921   -0.924229    0.747436
     11          1           0       -1.677598   -1.770103   -1.386637
     12          1           0       -0.057438   -1.729887   -0.653813
     13          1           0       -1.283205   -2.844292   -0.034430
     14          8           0        2.392835   -0.972877   -0.706512
     15          1           0        2.482923   -0.186753   -1.270156
 ---------------------------------------------------------------------

 SCF Done:  E(UM062X) =  -420.199037928     A.U. after   23 cycles

 The electronic state is 2-A.
 Alpha  occ. eigenvalues --  -19.68470 -19.67816 -19.63286 -10.71208 -10.61416
 Alpha  occ. eigenvalues --  -10.59602 -10.58803 -10.54037  -1.25592  -1.17068
 Alpha  occ. eigenvalues --   -1.13701  -0.90796  -0.88491  -0.77788  -0.74185
 Alpha  occ. eigenvalues --   -0.64578  -0.62452  -0.58637  -0.57339  -0.55850
 Alpha  occ. eigenvalues --   -0.53249  -0.51222  -0.49346  -0.47227  -0.46035
 Alpha  occ. eigenvalues --   -0.43331  -0.42057  -0.40391  -0.38596  -0.37006
 Alpha  occ. eigenvalues --   -0.35693
 Alpha virt. eigenvalues --   -0.01823  -0.00766   0.00512   0.00973   0.01802
 Alpha virt. eigenvalues --    0.02334   0.03508   0.04399   0.05512   0.05886
 Alpha virt. eigenvalues --    0.07186   0.08002   0.08315   0.09099   0.09772

  Beta  occ. eigenvalues --  -19.68470 -19.66318 -19.63208 -10.71233 -10.61415
  Beta  occ. eigenvalues --  -10.59638 -10.58625 -10.54038  -1.25533  -1.16918
  Beta  occ. eigenvalues --   -1.06950  -0.90064  -0.88485  -0.77694  -0.74045
  Beta  occ. eigenvalues --   -0.64485  -0.62261  -0.58511  -0.57052  -0.53339
  Beta  occ. eigenvalues --   -0.52832  -0.49596  -0.47175  -0.45899  -0.42548
  Beta  occ. eigenvalues --   -0.41145  -0.39508  -0.39071  -0.37845  -0.36657
  Beta virt. eigenvalues --   -0.10698  -0.00838  -0.00510   0.00673   0.01460
  Beta virt. eigenvalues --    0.01984   0.02560   0.03660   0.04549   0.05568
  Beta virt. eigenvalues --    0.06159   0.07226   0.08093   0.08469   0.09374

 Mulliken charges and spin densities:
               1          2
     1  C   -0.719845  -0.040818
     2  H    0.246890   0.013496
     3  C    0.828263   0.171717
     4  C   -0.161143  -0.018473
     5  O   -0.253797   0.040707
     6  O   -0.028592   0.001910
     7  C   -0.382999  -0.007602
     8  C   -0.408225   0.003870
     9  H    0.158758   0.002342
    10  H    0.209288  -0.000916
    11  H    0.180271  -0.000457
    12  H    0.184293   0.000565
    13  H    0.157113   0.000259
    14  O   -0.251701   0.850603
    15  H    0.241427  -0.017203
 Sum of Mulliken charges =  -0.00000   1.00000

 Dipole moment (field-independent basis, Debye):
    X=              0.6197    Y=             -2.8351    Z=              1.8109  Tot=              3.4207
 Quadrupole moment (field-independent basis, Debye-Ang):
   XX=            -43.5378   YY=            -55.7696   ZZ=            -44.1296
   XY=              5.8252   XZ=             -0.4119   YZ=              0.5284

  Exact polarizability:  82.405  -7.215  75.956  -1.094  -0.965  62.904
 Approx polarizability:  92.035 -12.068  88.346   3.872  -8.668  73.471

 ******    2 imaginary frequencies (negative Signs) ******

                      1                      2                      3
                      A                      A                      A
 Frequencies --   -244.0894               -37.7703                65.4594
 Red. masses --     12.8985                 6.0197                 9.1907
 Frc consts  --      0.4528                 0.0051                 0.0232
 IR Inten    --     21.7081                 6.5384                 3.6926

                      4                      5                      6
                      A                      A                      A
 Frequencies --     84.9861               128.3861               170.5500
 Red. masses --      4.9054                 3.3569                 2.3188
 Frc consts  --      0.0209                 0.0326                 0.0397
 IR Inten    --      1.3663                 0.6538                13.6980

                      7                      8                      9
                      A                      A                      A
 Frequencies --    236.3536               246.7080               309.4675
 Red. masses --      1.3558                 1.2385                 3.0021
 Frc consts  --      0.0446                 0.0444                 0.1694
 IR Inten    --     39.4252                30.9408                18.1068

                     10                     11                     12
                      A                      A                      A
 Frequencies --    354.7344               415.7270               556.5567
 Red. masses --      2.6690                 3.7551                 4.9300
 Frc consts  --      0.1979                 0.3824                 0.8997
 IR Inten    --      4.4903                 3.0061                15.7563

                     13                     14                     15
                      A                      A                      A
 Frequencies --    633.2046               640.6921               748.7531
 Red. masses --      3.7006                 1.1960                 1.3328
 Frc consts  --      0.8742                 0.2892                 0.4402
 IR Inten    --      8.5468               104.8728                35.0860

                     16                     17                     18
                      A                      A                      A
 Frequencies --    755.5668               764.3162               800.9733
 Red. masses --      5.8650                 6.5248                 1.1370
 Frc consts  --      1.9727                 2.2458                 0.4298
 IR Inten    --      4.5942                 9.0121                70.3354

                     19                     20                     21
                      A                      A                      A
 Frequencies --    818.1712               949.4932              1106.7841
 Red. masses --      1.1651                 2.2512                 3.6873
 Frc consts  --      0.4595                 1.1958                 2.6612
 IR Inten    --      4.6676                10.8572                59.3091

                     22                     23                     24
                      A                      A                      A
 Frequencies --   1132.3209              1183.6805              1262.2331
 Red. masses --      2.4745                 1.8778                 2.8787
 Frc consts  --      1.8693                 1.5502                 2.7023
 IR Inten    --     45.2357                55.4751               375.8801

                     25                     26                     27
                      A                      A                      A
 Frequencies --   1347.5674              1408.6835              1434.2486
 Red. masses --      1.2577                 1.2812                 1.3532
 Frc consts  --      1.3457                 1.4979                 1.6401
 IR Inten    --    118.5227                25.6487                18.9417

                     28                     29                     30
                      A                      A                      A
 Frequencies --   1496.3489              1508.9048              1527.7178
 Red. masses --      1.0427                 1.0479                 1.0988
 Frc consts  --      1.3755                 1.4057                 1.5110
 IR Inten    --      3.2427                 4.3475                17.9908

                     31                     32                     33
                      A                      A                      A
 Frequencies --   1850.4386              2181.5123              3068.1962
 Red. masses --     12.9603                 6.0272                 1.0355
 Frc consts  --     26.1465                16.8997                 5.7434
 IR Inten    --    480.0755                54.0466                 9.7810

                     34                     35                     36
                      A                      A                      A
 Frequencies --   3095.9596              3143.8734              3147.9497
 Red. masses --      1.0642                 1.1040                 1.1007
 Frc consts  --      6.0098                 6.4291                 6.4265
 IR Inten    --     17.0135                 2.2475                12.4891

                     37                     38                     39
                      A                      A                      A
 Frequencies --   3165.9252              3477.6450              3797.5721
 Red. masses --      1.1052                 1.1585                 1.0674
 Frc consts  --      6.5266                 8.2551                 9.0700
 IR Inten    --     16.0141                69.8410                43.8530

 - Thermochemistry -
 -------------------
 Temperature   298.150 Kelvin.  Pressure   1.00000 Atm.
 Atom     1 has atomic number  6 and mass  12.00000

 Molecular mass:   115.03952 amu.
 Principal axes and moments of inertia in atomic units:
                           1         2         3
     Eigenvalues --   817.315681061.783301537.99083
           X            0.99169   0.12865  -0.00031
           Y           -0.12864   0.99164   0.01010
           Z            0.00161  -0.00997   0.99995
 This molecule is an asymmetric top.
 Rotational symmetry number  1.
 Warning -- assumption of classical behavior for rotation
           may cause significant error
 Rotational temperatures (Kelvin)      0.10597     0.08157     0.05632
 Rotational constants (GHZ):           2.20813     1.69973     1.17344
    2 imaginary frequencies ignored.
 Zero-point vibrational energy     293190.7 (Joules/Mol)
                                   70.07426 (Kcal/Mol)
 Warning -- explicit consideration of  10 degrees of freedom as
           vibrations may cause significant error
 Vibrational temperatures:     94.18   122.28   184.72   245.38   340.06
          (Kelvin)            354.96   445.25   510.38   598.14   800.76
                              911.04   921.81  1077.29  1087.09  1099.68
                             1152.42  1177.17  1366.11  1592.42  1629.16
                             1703.05  1816.07  1938.85  2026.78  2063.56
                             2152.91  2170.98  2198.05  2662.37  3138.71
                             4414.45  4454.40  4523.33  4529.20  4555.06
                             5003.56  5463.86

 Zero-point correction=                           0.111670 (Hartree/Particle)
 Thermal correction to Energy=                    0.120470
 Thermal correction to Enthalpy=                  0.121415
 Thermal correction to Gibbs Free Energy=         0.076990
 Sum of electronic and zero-point Energies=           -419.3478749
 Sum of electronic and thermal Energies=              -420.078567
 Sum of electronic and thermal Enthalpies=            -420.077623
 Sum of electronic and thermal Free Energies=         -420.122048

                     E (Thermal)             CV                S
                      KCal/Mol        Cal/Mol-Kelvin    Cal/Mol-Kelvin
 Total                   75.596             30.302             93.499
 Electronic               0.000              0.000              1.377
 Translational            0.889              2.981             40.136
 Rotational               0.889              2.981             28.680
 Vibrational             73.819             24.341             23.306
 Vibration     1          0.597              1.971              4.285
 Vibration     2          0.601              1.960              3.772
 Vibration     3          0.611              1.925              2.970
 Vibration     4          0.626              1.879              2.429
 Vibration     5          0.655              1.785              1.830
 Vibration     6          0.661              1.768              1.754
 Vibration     7          0.699              1.656              1.365
 Vibration     8          0.731              1.566              1.145
 Vibration     9          0.779              1.436              0.907
 Vibration    10          0.912              1.125              0.531

 1\1\GINC-AJ\Freq\UM062X\6-311++G(d,p)\C5H7O3(2)\AAYUSH\29-Mar-2025\0\\
 # freq 6-311++g(d,p) m062x\\Title Card Required\\0,2\C,1.759092,-0.063
 982,1.067101\H,2.593285,-0.459468,1.598684\C,0.761063,0.455988,0.62880
 3\C,-0.369678,1.096237,-0.046667\O,-0.241686,2.149886,-0.598731\O,-1.5
 38006,0.456727,-0.00891\C,-1.633787,-0.873927,0.536812\C,-1.150437,-1.
 911479,-0.456851\H,-1.081315,-0.922374,1.477553\H,-2.694652,-0.989165,
 0.75239\H,-1.706896,-1.824227,-1.391305\H,-0.084244,-1.798945,-0.66334
 4\H,-1.314447,-2.911071,-0.048679\O,2.370161,-1.055581,-0.71799\H,2.46

 Normal termination of Gaussian 16 at Sat Mar 29 02:34:33 2025.
