 Gaussian 16, Revision A.03,
 Gaussian 16:  ES64L-G16RevA.03 25-Dec-2016

 --------------------------
 # ccsd(t)/6-311++g(d,p) sp
 --------------------------

 -------------------
 Title Card Required
 -------------------
 Symbolic Z-matrix:
 Charge =  0 Multiplicity = 2

                         Standard orientation:
 ---------------------------------------------------------------------
 Center     Atomic      Atomic             Coordinates (Angstroms)
 Number     Number       Type             X           Y           Z
 ---------------------------------------------------------------------
      1          6           0        1.770435    0.028927    1.068940
      2          1           0        2.605184   -0.357650    1.606174
      3          6           0        0.770845    0.539760    0.623513
      4          6           0       -0.361389    1.168275   -0.060424
      5          8           0       -0.237674    2.218355   -0.620209
      6          8           0       -1.526153    0.522373   -0.021386
      7          6           0       -1.616053   -0.804563    0.534299
      8          6           0       -1.123620   -1.846950   -0.449798
      9          1           0       -1.066304   -0.842581    1.477112
     10          1           0       -2.676921   -0.924229    0.747436
     11          1           0       -1.677598   -1.770103   -1.386637
     12          1           0       -0.057438   -1.729887   -0.653813
     13          1           0       -1.283205   -2.844292   -0.034430
     14          8           0        2.392835   -0.972877   -0.706512
     15          1           0        2.482923   -0.186753   -1.270156
 ---------------------------------------------------------------------

 SCF Done:  E(UHF) =  -417.976298494     A.U. after   40 cycles
 E2 =    -0.1259432818D+01 EUMP2 =    -0.41923573131167D+03
 CCSD(T)= -0.41934787490D+03

 The electronic state is 2-A.
 Alpha  occ. eigenvalues --  -20.63822 -20.61148 -20.56262 -11.41391 -11.30576
 Alpha  occ. eigenvalues --  -11.27664 -11.27224 -11.22955  -1.47941  -1.39509
 Alpha  occ. eigenvalues --   -1.38911  -1.08736  -1.04961  -0.91586  -0.87421
 Alpha  occ. eigenvalues --   -0.75958  -0.73435  -0.70023  -0.68478  -0.67597
 Alpha  occ. eigenvalues --   -0.66021  -0.63504  -0.58769  -0.56813  -0.56101
 Alpha  occ. eigenvalues --   -0.54250  -0.51056  -0.48962  -0.47145  -0.43485
 Alpha  occ. eigenvalues --   -0.42893
 Alpha virt. eigenvalues --    0.03509   0.04551   0.05268   0.06368   0.07142
 Alpha virt. eigenvalues --    0.08170   0.09760   0.10708   0.10857   0.11700
 Alpha virt. eigenvalues --    0.13296   0.13795   0.14425   0.15244   0.15917

  Beta  occ. eigenvalues --  -20.61220 -20.59853 -20.55557 -11.41810 -11.30564
  Beta  occ. eigenvalues --  -11.28739 -11.25911 -11.22959  -1.47716  -1.37871
  Beta  occ. eigenvalues --   -1.24905  -1.07319  -1.04952  -0.91940  -0.87539
  Beta  occ. eigenvalues --   -0.75859  -0.73373  -0.69383  -0.66836  -0.64622
  Beta  occ. eigenvalues --   -0.63105  -0.58151  -0.55142  -0.54827  -0.51807
  Beta  occ. eigenvalues --   -0.50582  -0.47826  -0.46293  -0.43574  -0.43405
  Beta virt. eigenvalues --    0.03387   0.04373   0.04610   0.06377   0.06611
  Beta virt. eigenvalues --    0.07164   0.08394   0.09953   0.10763   0.11812
  Beta virt. eigenvalues --    0.12399   0.13868   0.14203   0.14517   0.15049

 Mulliken charges and spin densities:
               1          2
     1  C   -1.036198  -0.648030
     2  H    0.269520   0.056364
     3  C    1.109103   0.703296
     4  C   -0.015880  -0.166040
     5  O   -0.342075   0.151846
     6  O   -0.137294  -0.002306
     7  C   -0.247606  -0.003818
     8  C   -0.436307   0.002168
     9  H    0.135737   0.000055
    10  H    0.184178  -0.000988
    11  H    0.164713  -0.000572
    12  H    0.178665  -0.001030
    13  H    0.126272   0.000683
    14  O   -0.193676   0.940356
    15  H    0.240848  -0.031987
 Sum of Mulliken charges =  -0.00000   1.00000

 Dipole moment (field-independent basis, Debye):
    X=              1.1267    Y=             -3.3964    Z=              1.6370  Tot=              3.9350
 Quadrupole moment (field-independent basis, Debye-Ang):
   XX=            -42.7047   YY=            -56.7954   ZZ=            -43.9678
   XY=              5.5015   XZ=             -1.3067   YZ=              0.9296

 488073\PMP3-0=-419.2742991\MP4SDQ=-419.2904\CCSD=-419.2940613\CCSD(T)=
 Normal termination of Gaussian 16 at Sat May 10 05:19:12 2025.
