 Gaussian 16, Revision A.03,
 Gaussian 16:  ES64L-G16RevA.03 25-Dec-2016

 --------------------------
 # ccsd(t)/6-311++g(d,p) sp
 --------------------------

 -------------------
 Title Card Required
 -------------------
 Symbolic Z-matrix:
 Charge =  0 Multiplicity = 2

                         Standard orientation:
 ---------------------------------------------------------------------
 Center     Atomic      Atomic             Coordinates (Angstroms)
 Number     Number       Type             X           Y           Z
 ---------------------------------------------------------------------
      1          6           0        1.777070    0.013679    1.049864
      2          1           0        2.605728   -0.367405    1.601127
      3          6           0        0.772790    0.536183    0.623578
      4          6           0       -0.359062    1.169004   -0.056770
      5          8           0       -0.233473    2.220498   -0.613720
      6          8           0       -1.525117    0.525584   -0.018171
      7          6           0       -1.617149   -0.802772    0.533850
      8          6           0       -1.127733   -1.843377   -0.453596
      9          1           0       -1.066604   -0.844473    1.476090
     10          1           0       -2.678033   -0.920803    0.747786
     11          1           0       -1.682619   -1.762919   -1.389590
     12          1           0       -0.061506   -1.727825   -0.658464
     13          1           0       -1.288862   -2.841514   -0.040734
     14          8           0        2.385672   -0.969033   -0.699265
     15          1           0        2.479746   -0.187750   -1.268516
 ---------------------------------------------------------------------

 SCF Done:  E(UHF) =  -417.974913246     A.U. after   39 cycles
 E2 =    -0.1258702360D+01 EUMP2 =    -0.41923361560628D+03
 CCSD(T)= -0.41934749643D+03

 The electronic state is 2-A.
 Alpha  occ. eigenvalues --  -20.63716 -20.61132 -20.56324 -11.41351 -11.30583
 Alpha  occ. eigenvalues --  -11.27755 -11.27283 -11.22954  -1.47954  -1.39423
 Alpha  occ. eigenvalues --   -1.38959  -1.08831  -1.04963  -0.91576  -0.87429
 Alpha  occ. eigenvalues --   -0.75982  -0.73426  -0.70061  -0.68378  -0.67606
 Alpha  occ. eigenvalues --   -0.65893  -0.63523  -0.58798  -0.56733  -0.56140
 Alpha  occ. eigenvalues --   -0.54231  -0.51067  -0.49035  -0.47196  -0.43521
 Alpha  occ. eigenvalues --   -0.42915
 Alpha virt. eigenvalues --    0.03521   0.04555   0.05267   0.06369   0.07144
 Alpha virt. eigenvalues --    0.08171   0.09815   0.10727   0.10963   0.11699
 Alpha virt. eigenvalues --    0.13314   0.13786   0.14440   0.15214   0.15911

  Beta  occ. eigenvalues --  -20.61210 -20.59791 -20.55564 -11.41802 -11.30570
  Beta  occ. eigenvalues --  -11.28894 -11.25893 -11.22958  -1.47708  -1.37837
  Beta  occ. eigenvalues --   -1.25074  -1.07275  -1.04952  -0.91949  -0.87545
  Beta  occ. eigenvalues --   -0.75859  -0.73355  -0.69375  -0.66837  -0.64635
  Beta  occ. eigenvalues --   -0.63100  -0.58129  -0.55110  -0.54820  -0.51800
  Beta  occ. eigenvalues --   -0.50569  -0.47810  -0.46301  -0.43607  -0.43457
  Beta virt. eigenvalues --    0.03384   0.04308   0.04599   0.06367   0.06517
  Beta virt. eigenvalues --    0.07166   0.08402   0.10024   0.10766   0.11825
  Beta virt. eigenvalues --    0.12452   0.13884   0.14260   0.14524   0.15078

 Mulliken charges and spin densities:
               1          2
     1  C   -0.921519  -0.706920
     2  H    0.274048   0.059271
     3  C    1.004926   0.771544
     4  C   -0.033463  -0.177959
     5  O   -0.340128   0.163835
     6  O   -0.136827  -0.002403
     7  C   -0.246930  -0.003609
     8  C   -0.436285   0.001751
     9  H    0.135589  -0.000019
    10  H    0.184111  -0.001044
    11  H    0.164529  -0.000583
    12  H    0.178914  -0.000635
    13  H    0.126425   0.000730
    14  O   -0.194068   0.927501
    15  H    0.240680  -0.031461
 Sum of Mulliken charges =  -0.00000   1.00000

 Dipole moment (field-independent basis, Debye):
    X=              1.0976    Y=             -3.3819    Z=              1.6458  Tot=              3.9180
 Quadrupole moment (field-independent basis, Debye-Ang):
   XX=            -42.7978   YY=            -56.7971   ZZ=            -43.9410
   XY=              5.5161   XZ=             -1.2615   YZ=              0.9058

 465\PMP3-0=-419.2739519\MP4SDQ=-419.2890162\CCSD=-419.2934649\CCSD(T)=
 Normal termination of Gaussian 16 at Sat May 10 08:07:27 2025.
