 Gaussian 16, Revision A.03,
 Gaussian 16:  ES64L-G16RevA.03 25-Dec-2016

 --------------------------
 # ccsd(t)/6-311++g(d,p) sp
 --------------------------

 -------------------
 Title Card Required
 -------------------
 Symbolic Z-matrix:
 Charge =  0 Multiplicity = 2

                         Standard orientation:
 ---------------------------------------------------------------------
 Center     Atomic      Atomic             Coordinates (Angstroms)
 Number     Number       Type             X           Y           Z
 ---------------------------------------------------------------------
      1          6           0        1.737404    0.106665    1.158191
      2          1           0        2.588070   -0.284188    1.665545
      3          6           0        0.757878    0.563435    0.630063
      4          6           0       -0.374196    1.164128   -0.080517
      5          8           0       -0.259352    2.205117   -0.658215
      6          8           0       -1.531392    0.504511   -0.040162
      7          6           0       -1.610427   -0.813779    0.536925
      8          6           0       -1.101445   -1.866297   -0.427803
      9          1           0       -1.065659   -0.830789    1.483036
     10          1           0       -2.671210   -0.941716    0.745691
     11          1           0       -1.650076   -1.809706   -1.369208
     12          1           0       -0.035331   -1.741392   -0.627380
     13          1           0       -1.252955   -2.858811    0.001874
     14          8           0        2.431758   -0.994219   -0.742757
     15          1           0        2.503771   -0.181574   -1.271633
 ---------------------------------------------------------------------

 SCF Done:  E(UHF) =  -417.982506934     A.U. after   38 cycles
 E2 =    -0.1261981989D+01 EUMP2 =    -0.41924448892352D+03
 CCSD(T)= -0.41935035502D+03

 The electronic state is 2-A.
 Alpha  occ. eigenvalues --  -20.64127 -20.61243 -20.56113 -11.41596 -11.30575
 Alpha  occ. eigenvalues --  -11.27525 -11.27145 -11.22978  -1.47947  -1.39643
 Alpha  occ. eigenvalues --   -1.38776  -1.08432  -1.04983  -0.91666  -0.87441
 Alpha  occ. eigenvalues --   -0.75848  -0.73405  -0.69924  -0.68773  -0.67521
 Alpha  occ. eigenvalues --   -0.66359  -0.63459  -0.58678  -0.57001  -0.55976
 Alpha  occ. eigenvalues --   -0.54320  -0.51045  -0.48746  -0.46983  -0.43411
 Alpha  occ. eigenvalues --   -0.42955
 Alpha virt. eigenvalues --    0.03486   0.04547   0.05293   0.06370   0.07125
 Alpha virt. eigenvalues --    0.08160   0.09358   0.10438   0.10738   0.11693
 Alpha virt. eigenvalues --    0.13231   0.13830   0.14347   0.15461   0.15920

  Beta  occ. eigenvalues --  -20.61293 -20.60046 -20.55631 -11.41884 -11.30567
  Beta  occ. eigenvalues --  -11.28319 -11.26174 -11.22982  -1.47799  -1.38065
  Beta  occ. eigenvalues --   -1.24286  -1.07497  -1.04978  -0.91932  -0.87552
  Beta  occ. eigenvalues --   -0.75833  -0.73404  -0.69472  -0.66884  -0.64528
  Beta  occ. eigenvalues --   -0.63161  -0.58260  -0.55317  -0.54855  -0.51800
  Beta  occ. eigenvalues --   -0.50639  -0.47971  -0.46367  -0.43494  -0.43296
  Beta virt. eigenvalues --    0.03425   0.04504   0.04712   0.06364   0.06976
  Beta virt. eigenvalues --    0.07204   0.08340   0.09606   0.10748   0.11773
  Beta virt. eigenvalues --    0.12064   0.13646   0.14039   0.14426   0.15258

 Mulliken charges and spin densities:
               1          2
     1  C   -1.716161  -0.412234
     2  H    0.246725   0.042362
     3  C    1.721149   0.441926
     4  C    0.084755  -0.116364
     5  O   -0.347299   0.103756
     6  O   -0.138472  -0.001827
     7  C   -0.250830  -0.004470
     8  C   -0.435360   0.004052
     9  H    0.136903   0.000186
    10  H    0.184408  -0.000767
    11  H    0.165730  -0.000432
    12  H    0.177786  -0.003217
    13  H    0.126101   0.000508
    14  O   -0.196778   0.980319
    15  H    0.241343  -0.033796
 Sum of Mulliken charges =  -0.00000   1.00000

 Dipole moment (field-independent basis, Debye):
    X=              1.1831    Y=             -3.3611    Z=              1.6964  Tot=              3.9465
 Quadrupole moment (field-independent basis, Debye-Ang):
   XX=            -42.5898   YY=            -56.7804   ZZ=            -44.0320
   XY=              5.6781   XZ=             -1.3550   YZ=              1.0561

 Normal termination of Gaussian 16 at Sat May 10 12:33:14 2025.
