 Gaussian 16, Revision A.03,
 Gaussian 16:  ES64L-G16RevA.03 25-Dec-2016

 --------------------------
 # freq 6-311++g(d,p) m062x
 --------------------------

 -------------------
 Title Card Required
 -------------------
 Symbolic Z-matrix:
 Charge =  0 Multiplicity = 2

                         Standard orientation:
 ---------------------------------------------------------------------
 Center     Atomic      Atomic             Coordinates (Angstroms)
 Number     Number       Type             X           Y           Z
 ---------------------------------------------------------------------
      1          6           0        1.730723    0.122282    1.174659
      2          1           0        2.582061   -0.265357    1.683535
      3          6           0        0.754724    0.569218    0.632763
      4          6           0       -0.376764    1.163272   -0.084770
      5          8           0       -0.263326    2.201879   -0.666937
      6          8           0       -1.532334    0.500787   -0.044506
      7          6           0       -1.609456   -0.815412    0.537496
      8          6           0       -1.097000   -1.870278   -0.422796
      9          1           0       -1.065913   -0.827815    1.484353
     10          1           0       -2.670253   -0.944837    0.745274
     11          1           0       -1.644394   -1.818082   -1.365172
     12          1           0       -0.030879   -1.743848   -0.621440
     13          1           0       -1.246974   -2.861626    0.010086
     14          8           0        2.439862   -0.999110   -0.749747
     15          1           0        2.509375   -0.181380   -1.271224
 ---------------------------------------------------------------------

 SCF Done:  E(UM062X) =  -420.202400845     A.U. after   23 cycles

 The electronic state is 2-A.
 Alpha  occ. eigenvalues --  -19.68709 -19.68392 -19.63157 -10.71114 -10.61344
 Alpha  occ. eigenvalues --  -10.58853 -10.58305 -10.54040  -1.25492  -1.16940
 Alpha  occ. eigenvalues --   -1.14328  -0.90356  -0.88444  -0.77629  -0.73978
 Alpha  occ. eigenvalues --   -0.64379  -0.62226  -0.58526  -0.57179  -0.56409
 Alpha  occ. eigenvalues --   -0.53162  -0.51360  -0.49394  -0.47181  -0.46047
 Alpha  occ. eigenvalues --   -0.43724  -0.42184  -0.40258  -0.38561  -0.36876
 Alpha  occ. eigenvalues --   -0.36680
 Alpha virt. eigenvalues --   -0.02058  -0.00792   0.00470   0.00953   0.01882
 Alpha virt. eigenvalues --    0.02332   0.03541   0.04484   0.05538   0.05937
 Alpha virt. eigenvalues --    0.07186   0.07940   0.08382   0.09275   0.09694

  Beta  occ. eigenvalues --  -19.68392 -19.67134 -19.63120 -10.71126 -10.61344
  Beta  occ. eigenvalues --  -10.58853 -10.58211 -10.54041  -1.25463  -1.16867
  Beta  occ. eigenvalues --   -1.06687  -0.89942  -0.88439  -0.77581  -0.73900
  Beta  occ. eigenvalues --   -0.64330  -0.62094  -0.58457  -0.57017  -0.53490
  Beta  occ. eigenvalues --   -0.52966  -0.49615  -0.47162  -0.45905  -0.42501
  Beta  occ. eigenvalues --   -0.40714  -0.39737  -0.39175  -0.37790  -0.36695
  Beta virt. eigenvalues --   -0.10066  -0.01504  -0.00615   0.00658   0.01319
  Beta virt. eigenvalues --    0.02000   0.02511   0.03658   0.04618   0.05604
  Beta virt. eigenvalues --    0.06193   0.07237   0.08031   0.08543   0.09524

 Mulliken charges and spin densities:
               1          2
     1  C   -1.312968   0.006410
     2  H    0.225229   0.008172
     3  C    1.321215   0.069161
     4  C   -0.051344  -0.009923
     5  O   -0.255356   0.019364
     6  O   -0.029993   0.000975
     7  C   -0.384320  -0.010139
     8  C   -0.405905   0.007393
     9  H    0.160403   0.002238
    10  H    0.209249  -0.000788
    11  H    0.181262  -0.000489
    12  H    0.182021  -0.001680
    13  H    0.156808   0.000286
    14  O   -0.242981   0.926401
    15  H    0.246680  -0.017381
 Sum of Mulliken charges =  -0.00000   1.00000

 Dipole moment (field-independent basis, Debye):
    X=              0.7637    Y=             -2.8521    Z=              1.7536  Tot=              3.4341
 Quadrupole moment (field-independent basis, Debye-Ang):
   XX=            -43.2980   YY=            -55.6805   ZZ=            -44.1531
   XY=              5.9034   XZ=             -0.7670   YZ=              0.7569

  Exact polarizability:  78.399  -3.547  72.962   3.282  -3.994  61.042
 Approx polarizability:  89.075  -8.471  84.427   8.313 -11.633  73.324

 ******    1 imaginary frequencies (negative Signs) ******

                      1                      2                      3
                      A                      A                      A
 Frequencies --    -28.3487                56.4150                81.7996
 Red. masses --      6.4194                 9.7166                 4.4246
 Frc consts  --      0.0030                 0.0182                 0.0174
 IR Inten    --      6.0147                 2.7608                 0.7548

                      4                      5                      6
                      A                      A                      A
 Frequencies --    124.0164               172.5168               221.0980
 Red. masses --      3.3543                 2.4735                10.3354
 Frc consts  --      0.0304                 0.0434                 0.2977
 IR Inten    --      0.5915                11.6819                 0.2106

                      7                      8                      9
                      A                      A                      A
 Frequencies --    238.4428               251.5463               304.5804
 Red. masses --      1.2423                 1.3768                 2.4457
 Frc consts  --      0.0416                 0.0513                 0.1337
 IR Inten    --     13.5384                56.1123                26.0634

                     10                     11                     12
                      A                      A                      A
 Frequencies --    355.1393               415.5821               523.6531
 Red. masses --      2.6797                 3.7515                 1.0627
 Frc consts  --      0.1991                 0.3817                 0.1717
 IR Inten    --      4.1710                 2.2693               128.4884

                     13                     14                     15
                      A                      A                      A
 Frequencies --    557.5064               634.0793               743.2394
 Red. masses --      4.8480                 5.7230                 1.3091
 Frc consts  --      0.8878                 1.3557                 0.4261
 IR Inten    --     20.8495                 2.4407                35.7426

                     16                     17                     18
                      A                      A                      A
 Frequencies --    757.9458               768.4796               778.8731
 Red. masses --      5.2658                 6.6161                 1.2747
 Frc consts  --      1.7824                 2.3021                 0.4556
 IR Inten    --      1.3108                 7.7533                66.7981

                     19                     20                     21
                      A                      A                      A
 Frequencies --    817.3735               949.7450              1106.9538
 Red. masses --      1.1676                 2.2491                 3.6183
 Frc consts  --      0.4596                 1.1953                 2.6122
 IR Inten    --      4.7391                 9.9460                54.1790

                     22                     23                     24
                      A                      A                      A
 Frequencies --   1132.3193              1183.6553              1263.9647
 Red. masses --      2.5137                 1.8679                 2.8485
 Frc consts  --      1.8989                 1.5419                 2.6813
 IR Inten    --     47.0446                52.3536               362.9329

                     25                     26                     27
                      A                      A                      A
 Frequencies --   1347.2278              1408.1879              1433.6009
 Red. masses --      1.2655                 1.2836                 1.3562
 Frc consts  --      1.3533                 1.4997                 1.6423
 IR Inten    --    120.9912                26.7127                18.4216

                     28                     29                     30
                      A                      A                      A
 Frequencies --   1495.9285              1508.2809              1527.8911
 Red. masses --      1.0425                 1.0473                 1.0997
 Frc consts  --      1.3745                 1.4038                 1.5126
 IR Inten    --      3.5660                 3.7644                16.9780

                     31                     32                     33
                      A                      A                      A
 Frequencies --   1855.4450              2227.1698              3068.6944
 Red. masses --     12.9585                 5.8359                 1.0355
 Frc consts  --     26.2845                17.0556                 5.7453
 IR Inten    --    483.7976                52.8876                 8.6937

                     34                     35                     36
                      A                      A                      A
 Frequencies --   3097.8947              3143.9038              3148.5474
 Red. masses --      1.0636                 1.1041                 1.1007
 Frc consts  --      6.0142                 6.4300                 6.4292
 IR Inten    --     16.8150                 2.2697                12.5716

                     37                     38                     39
                      A                      A                      A
 Frequencies --   3166.1239              3489.2319              3785.9189
 Red. masses --      1.1056                 1.1657                 1.0673
 Frc consts  --      6.5296                 8.3619                 9.0130
 IR Inten    --     15.8242                69.2562                33.3008

 - Thermochemistry -
 -------------------
 Temperature   298.150 Kelvin.  Pressure   1.00000 Atm.
 Atom     1 has atomic number  6 and mass  12.00000

 Molecular mass:   115.03952 amu.
 Principal axes and moments of inertia in atomic units:
                           1         2         3
     Eigenvalues --   839.339561083.651981546.50155
           X            0.99134   0.13130  -0.00045
           Y           -0.13129   0.99129   0.01010
           Z            0.00178  -0.00995   0.99995
 This molecule is an asymmetric top.
 Rotational symmetry number  1.
 Warning -- assumption of classical behavior for rotation
           may cause significant error
 Rotational temperatures (Kelvin)      0.10319     0.07993     0.05601
 Rotational constants (GHZ):           2.15019     1.66543     1.16698
    1 imaginary frequencies ignored.
 Zero-point vibrational energy     293940.2 (Joules/Mol)
                                   70.25341 (Kcal/Mol)
 Warning -- explicit consideration of  12 degrees of freedom as
           vibrations may cause significant error
 Vibrational temperatures:     81.17   117.69   178.43   248.21   318.11
          (Kelvin)            343.07   361.92   438.22   510.97   597.93
                              753.42   802.13   912.30  1069.36  1090.52
                             1105.67  1120.62  1176.02  1366.47  1592.66
                             1629.15  1703.02  1818.56  1938.36  2026.07
                             2062.63  2152.31  2170.08  2198.29  2669.57
                             3204.40  4415.17  4457.18  4523.38  4530.06
                             4555.35  5020.23  5447.09

 Zero-point correction=                           0.111956 (Hartree/Particle)
 Thermal correction to Energy=                    0.121383
 Thermal correction to Enthalpy=                  0.122328
 Thermal correction to Gibbs Free Energy=         0.076657
 Sum of electronic and zero-point Energies=           -419.3508169
 Sum of electronic and thermal Energies=              -420.081017
 Sum of electronic and thermal Enthalpies=            -420.080073
 Sum of electronic and thermal Free Energies=         -420.125744

                     E (Thermal)             CV                S
                      KCal/Mol        Cal/Mol-Kelvin    Cal/Mol-Kelvin
 Total                   76.169             32.398             96.122
 Electronic               0.000              0.000              1.377
 Translational            0.889              2.981             40.136
 Rotational               0.889              2.981             28.733
 Vibrational             74.392             26.436             25.876
 Vibration     1          0.596              1.975              4.579
 Vibration     2          0.600              1.962              3.847
 Vibration     3          0.610              1.929              3.037
 Vibration     4          0.626              1.876              2.408
 Vibration     5          0.648              1.809              1.950
 Vibration     6          0.656              1.782              1.814
 Vibration     7          0.664              1.760              1.720
 Vibration     8          0.695              1.665              1.392
 Vibration     9          0.731              1.565              1.143
 Vibration    10          0.779              1.436              0.907
 Vibration    11          0.879              1.198              0.602
 Vibration    12          0.913              1.123              0.529

 Normal termination of Gaussian 16 at Sat Mar 29 00:54:59 2025.
