 Gaussian 16, Revision A.03,
 Gaussian 16:  ES64L-G16RevA.03 25-Dec-2016

 --------------------------
 # ccsd(t)/6-311++g(d,p) sp
 --------------------------

 -------------------
 Title Card Required
 -------------------
 Symbolic Z-matrix:
 Charge =  0 Multiplicity = 2

                         Standard orientation:
 ---------------------------------------------------------------------
 Center     Atomic      Atomic             Coordinates (Angstroms)
 Number     Number       Type             X           Y           Z
 ---------------------------------------------------------------------
      1          6           0        1.783882   -0.001362    1.030493
      2          1           0        2.604805   -0.375153    1.598669
      3          6           0        0.774288    0.533208    0.624161
      4          6           0       -0.356888    1.169617   -0.053292
      5          8           0       -0.229559    2.222499   -0.607645
      6          8           0       -1.524147    0.528528   -0.015153
      7          6           0       -1.618117   -0.801139    0.533450
      8          6           0       -1.131595   -1.840000   -0.457203
      9          1           0       -1.066717   -0.846310    1.475109
     10          1           0       -2.678967   -0.917606    0.748387
     11          1           0       -1.687484   -1.755959   -1.392293
     12          1           0       -0.065340   -1.725827   -0.663025
     13          1           0       -1.294226   -2.838898   -0.046800
     14          8           0        2.378936   -0.965241   -0.692121
     15          1           0        2.476650   -0.188479   -1.266353
 ---------------------------------------------------------------------

 SCF Done:  E(UHF) =  -417.973561908     A.U. after   36 cycles
 E2 =    -0.1257865752D+01 EUMP2 =    -0.41923142766033D+03
 CCSD(T)= -0.41934727143D+03

 The electronic state is 2-A.
 Alpha  occ. eigenvalues --  -20.63585 -20.61120 -20.56405 -11.41311 -11.30594
 Alpha  occ. eigenvalues --  -11.27886 -11.27375 -11.22955  -1.47974  -1.39304
 Alpha  occ. eigenvalues --   -1.39016  -1.08942  -1.04968  -0.91572  -0.87447
 Alpha  occ. eigenvalues --   -0.76008  -0.73411  -0.70110  -0.68266  -0.67611
 Alpha  occ. eigenvalues --   -0.65727  -0.63548  -0.58835  -0.56635  -0.56184
 Alpha  occ. eigenvalues --   -0.54210  -0.51082  -0.49126  -0.47257  -0.43567
 Alpha  occ. eigenvalues --   -0.42959
 Alpha virt. eigenvalues --    0.03533   0.04562   0.05269   0.06370   0.07145
 Alpha virt. eigenvalues --    0.08171   0.09861   0.10736   0.11089   0.11696
 Alpha virt. eigenvalues --    0.13333   0.13777   0.14453   0.15195   0.15900

  Beta  occ. eigenvalues --  -20.61203 -20.59716 -20.55583 -11.41799 -11.30580
  Beta  occ. eigenvalues --  -11.29095 -11.25901 -11.22959  -1.47705  -1.37804
  Beta  occ. eigenvalues --   -1.25264  -1.07223  -1.04955  -0.91968  -0.87560
  Beta  occ. eigenvalues --   -0.75862  -0.73335  -0.69372  -0.66845  -0.64645
  Beta  occ. eigenvalues --   -0.63098  -0.58107  -0.55079  -0.54814  -0.51788
  Beta  occ. eigenvalues --   -0.50556  -0.47802  -0.46325  -0.43649  -0.43518
  Beta virt. eigenvalues --    0.03381   0.04221   0.04593   0.06325   0.06452
  Beta virt. eigenvalues --    0.07167   0.08409   0.10090   0.10769   0.11839
  Beta virt. eigenvalues --    0.12497   0.13891   0.14306   0.14517   0.15158

 Mulliken charges and spin densities:
               1          2
     1  C   -0.825612  -0.769514
     2  H    0.277317   0.062301
     3  C    0.920639   0.845759
     4  C   -0.050666  -0.191059
     5  O   -0.337838   0.177170
     6  O   -0.136416  -0.002502
     7  C   -0.246176  -0.003355
     8  C   -0.436107   0.001346
     9  H    0.135426  -0.000140
    10  H    0.184061  -0.001103
    11  H    0.164363  -0.000587
    12  H    0.179191  -0.000289
    13  H    0.126605   0.000783
    14  O   -0.195304   0.912031
    15  H    0.240519  -0.030842
 Sum of Mulliken charges =  -0.00000   1.00000

 Dipole moment (field-independent basis, Debye):
    X=              1.0589    Y=             -3.3566    Z=              1.6646  Tot=              3.8934
 Quadrupole moment (field-independent basis, Debye-Ang):
   XX=            -42.9340   YY=            -56.7995   ZZ=            -43.9086
   XY=              5.5576   XZ=             -1.1983   YZ=              0.8805

 Normal termination of Gaussian 16 at Fri May  9 15:02:31 2025.
