 Gaussian 16, Revision A.03,
 Gaussian 16:  ES64L-G16RevA.03 25-Dec-2016

 -----------------------
 # ccsd(t)/6-311++g** sp
 -----------------------

 -------------------
 Title Card Required
 -------------------
 Symbolic Z-matrix:
 Charge =  0 Multiplicity = 2

                         Standard orientation:
 ---------------------------------------------------------------------
 Center     Atomic      Atomic             Coordinates (Angstroms)
 Number     Number       Type             X           Y           Z
 ---------------------------------------------------------------------
      1          6           0        2.993483   -0.372506    0.288461
      2          1           0        4.015075   -0.617283    0.462246
      3          6           0        1.844103   -0.097034    0.092865
      4          6           0        0.460370    0.291231   -0.144031
      5          8           0        0.093320    1.429621   -0.238549
      6          8           0       -0.327231   -0.779942   -0.246720
      7          6           0       -1.739277   -0.491208   -0.474181
      8          6           0       -2.398383    0.036695    0.744985
      9          1           0       -2.142206   -1.457878   -0.771025
     10          1           0       -1.808537    0.212018   -1.304326
     11          1           0       -2.471798    1.101825    0.907204
     12          1           0       -2.683035   -0.639179    1.539465
 ---------------------------------------------------------------------

 SCF Done:  E(UHF) =  -341.953544615     A.U. after   26 cycles
 E2 =    -0.1054909539D+01 EUMP2 =    -0.34300845415406D+03
 CCSD(T)= -0.34309027534D+03

 The electronic state is 2-A.
 Alpha  occ. eigenvalues --  -20.61856 -20.56351 -11.41760 -11.30492 -11.26688
 Alpha  occ. eigenvalues --  -11.25990 -11.25062  -1.48609  -1.38368  -1.08245
 Alpha  occ. eigenvalues --   -1.04881  -0.92662  -0.84070  -0.76590  -0.73009
 Alpha  occ. eigenvalues --   -0.69929  -0.67050  -0.64566  -0.59462  -0.56951
 Alpha  occ. eigenvalues --   -0.52499  -0.49006  -0.47983  -0.42720  -0.42601
 Alpha  occ. eigenvalues --   -0.39110
 Alpha virt. eigenvalues --    0.03875   0.04734   0.05911   0.06794   0.08350
 Alpha virt. eigenvalues --    0.08640   0.10216   0.10908   0.12175   0.13473
 Alpha virt. eigenvalues --    0.13567   0.14151   0.14952   0.16644   0.17516

  Beta  occ. eigenvalues --  -20.61498 -20.56366 -11.41760 -11.30798 -11.26672
  Beta  occ. eigenvalues --  -11.25990 -11.22692  -1.48109  -1.38023  -1.07589
  Beta  occ. eigenvalues --   -1.02300  -0.89442  -0.81714  -0.76042  -0.72946
  Beta  occ. eigenvalues --   -0.69225  -0.66397  -0.63339  -0.58387  -0.56118
  Beta  occ. eigenvalues --   -0.51990  -0.48648  -0.47420  -0.42685  -0.42534
  Beta virt. eigenvalues --    0.03890   0.04714   0.06002   0.06433   0.07114
  Beta virt. eigenvalues --    0.08387   0.08695   0.10786   0.11847   0.12466
  Beta virt. eigenvalues --    0.13557   0.13834   0.15012   0.16772   0.17219

 Mulliken charges and spin densities:
               1          2
     1  C   -0.621950   0.008285
     2  H    0.204523  -0.000691
     3  C    1.270347  -0.010913
     4  C   -0.729999   0.009311
     5  O   -0.297423  -0.007007
     6  O   -0.078098   0.038956
     7  C   -0.305743  -0.176173
     8  C   -0.077397   1.338340
     9  H    0.164169   0.014018
    10  H    0.190580   0.008453
    11  H    0.144940  -0.115522
    12  H    0.136051  -0.107057
 Sum of Mulliken charges =  -0.00000   1.00000

 Dipole moment (field-independent basis, Debye):
    X=             -0.1034    Y=             -1.8987    Z=              0.2204  Tot=              1.9142
 Quadrupole moment (field-independent basis, Debye-Ang):
   XX=            -28.2390   YY=            -46.2626   ZZ=            -40.0392
   XY=             -1.1415   XZ=              1.6319   YZ=              0.3516

 -343.0460584\CCSD=-343.0437595\CCSD(T)=-343.0902753\S2=0.762567\S2-1=0
 Normal termination of Gaussian 16 at Tue Jun 10 16:27:03 2025.
