 Gaussian 16, Revision A.03,
 Gaussian 16:  ES64L-G16RevA.03 25-Dec-2016

 --------------------------------------------------
 # opt=(calcfc,tight,noeigentest) freq 6-31+g m062x
 --------------------------------------------------

 -------------------
 Title Card Required
 -------------------
 Symbolic Z-matrix:
 Charge =  0 Multiplicity = 2

 SCF Done:  E(UM062X) =  -343.543929161     A.U. after   29 cycles
 SCF Done:  E(UM062X) =  -343.559399363     A.U. after   26 cycles
 SCF Done:  E(UM062X) =  -343.560177345     A.U. after   26 cycles
 SCF Done:  E(UM062X) =  -343.560228950     A.U. after   21 cycles
 SCF Done:  E(UM062X) =  -343.560240528     A.U. after   22 cycles
 SCF Done:  E(UM062X) =  -343.560254246     A.U. after   21 cycles
 SCF Done:  E(UM062X) =  -343.560254395     A.U. after   18 cycles
 SCF Done:  E(UM062X) =  -343.560254398     A.U. after   16 cycles
 SCF Done:  E(UM062X) =  -343.560254398     A.U. after   12 cycles
 Optimization completed.
    -- Stationary point found.
 Normal termination of Gaussian 16 at Sun Jun  8 18:34:12 2025.

 ------------------------------------------------------------------
 #N Geom=AllCheck Guess=TCheck SCRF=Check GenChk UM062X/6-31+G Freq
 ------------------------------------------------------------------

 Structure from the checkpoint file:  "ethyl_propiolate.chk"
 -------------------
 Title Card Required
 -------------------
 Charge =  0 Multiplicity = 2

                         Standard orientation:
 ---------------------------------------------------------------------
 Center     Atomic      Atomic             Coordinates (Angstroms)
 Number     Number       Type             X           Y           Z
 ---------------------------------------------------------------------
      1          6           0        3.114789   -0.557249    0.346008
      2          6           0        1.980480   -0.184551    0.129861
      3          6           0        0.640489    0.295279   -0.123221
      4          8           0        0.323692    1.481800   -0.163398
      5          8           0       -0.226645   -0.727541   -0.318174
      6          6           0       -1.635765   -0.379043   -0.574196
      7          6           0       -2.348205   -0.056811    0.726788
      8          1           0       -2.029156   -1.274097   -1.053620
      9          1           0       -1.657455    0.462839   -1.269981
     10          1           0       -3.410293    0.119576    0.532376
     11          1           0       -2.259133   -0.890875    1.426990
     12          1           0       -1.931066    0.842732    1.185366
 ---------------------------------------------------------------------

 SCF Done:  E(UM062X) =  -343.560254398     A.U. after    1 cycles

 The electronic state is 2-A.
 Alpha  occ. eigenvalues --  -19.71186 -19.67128 -10.74064 -10.65268 -10.62365
 Alpha  occ. eigenvalues --  -10.60658 -10.55188  -1.26647  -1.17493  -0.92476
 Alpha  occ. eigenvalues --   -0.88677  -0.79059  -0.71649  -0.64211  -0.58255
 Alpha  occ. eigenvalues --   -0.56528  -0.54744  -0.49984  -0.49126  -0.47271
 Alpha  occ. eigenvalues --   -0.45525  -0.42629  -0.40608  -0.39688  -0.38591
 Alpha  occ. eigenvalues --   -0.37832
 Alpha virt. eigenvalues --   -0.03538   0.01953   0.03278   0.03431   0.03816
 Alpha virt. eigenvalues --    0.04801   0.05037   0.06515   0.07519   0.08257
 Alpha virt. eigenvalues --    0.08805   0.09022   0.09244   0.11745   0.12065

  Beta  occ. eigenvalues --  -19.71196 -19.67166 -10.74020 -10.63709 -10.62366
  Beta  occ. eigenvalues --  -10.60587 -10.55188  -1.26674  -1.17561  -0.91356
  Beta  occ. eigenvalues --   -0.87652  -0.78352  -0.71133  -0.64131  -0.58332
  Beta  occ. eigenvalues --   -0.56630  -0.54602  -0.49883  -0.47363  -0.45595
  Beta  occ. eigenvalues --   -0.42679  -0.39740  -0.38818  -0.37500  -0.36702
  Beta virt. eigenvalues --   -0.20772  -0.02333   0.02019   0.03344   0.03932
  Beta virt. eigenvalues --    0.04298   0.04956   0.05220   0.06355   0.07575
  Beta virt. eigenvalues --    0.08041   0.08667   0.09081   0.09480   0.11763

 Mulliken charges and spin densities:
               1          2
     1  C    1.667176   1.814757
     2  C   -0.643622  -0.723333
     3  C   -0.767413  -0.075672
     4  O   -0.357476  -0.015294
     5  O   -0.220715  -0.001661
     6  C   -0.241512   0.002441
     7  C   -0.563748  -0.001092
     8  H    0.223247  -0.000120
     9  H    0.235911  -0.000126
    10  H    0.209754   0.000028
    11  H    0.221588   0.000006
    12  H    0.236808   0.000068
 Sum of Mulliken charges =  -0.00000   1.00000

 Dipole moment (field-independent basis, Debye):
    X=             -1.4205    Y=             -1.4805    Z=             -0.0531  Tot=              2.0524
 Quadrupole moment (field-independent basis, Debye-Ang):
   XX=            -32.7411   YY=            -47.5073   ZZ=            -40.2405
   XY=             -0.6902   XZ=              1.4029   YZ=              0.1552

  Exact polarizability:  80.827  -5.537  57.190   4.694  -0.920  43.320
 Approx polarizability:  90.416 -14.181  71.344   8.847  -2.570  43.741

                      1                      2                      3
                      A                      A                      A
 Frequencies --     80.6374               106.5301               166.9188
 Red. masses --      3.9824                 3.9727                 3.4578
 Frc consts  --      0.0153                 0.0266                 0.0568
 IR Inten    --      2.6469                 0.8138                 2.4405

                      4                      5                      6
                      A                      A                      A
 Frequencies --    225.2043               298.7518               327.1200
 Red. masses --      1.3631                 4.8806                 3.7515
 Frc consts  --      0.0407                 0.2567                 0.2365
 IR Inten    --      1.5629                 2.1634                12.1636

                      7                      8                      9
                      A                      A                      A
 Frequencies --    421.1895               557.5172               614.2641
 Red. masses --      4.4589                 5.1762                 9.0655
 Frc consts  --      0.4661                 0.9479                 2.0154
 IR Inten    --      7.3622                 3.0966                 4.7409

                     10                     11                     12
                      A                      A                      A
 Frequencies --    792.4802               813.4284               870.6279
 Red. masses --      9.5594                 1.6231                 2.3134
 Frc consts  --      3.5372                 0.6327                 1.0331
 IR Inten    --     15.7137                 8.8979                 8.0258

                     13                     14                     15
                      A                      A                      A
 Frequencies --    933.2319              1069.0532              1145.8694
 Red. masses --      3.1082                 3.7263                 1.9744
 Frc consts  --      1.5949                 2.5092                 1.5274
 IR Inten    --      2.1874                22.8130                24.6930

                     16                     17                     18
                      A                      A                      A
 Frequencies --   1219.9895              1279.6144              1341.2432
 Red. masses --      1.6973                 5.7346                 1.1627
 Frc consts  --      1.4884                 5.5324                 1.2323
 IR Inten    --      3.5421               610.7307                42.1293

                     19                     20                     21
                      A                      A                      A
 Frequencies --   1427.0742              1459.4422              1528.7922
 Red. masses --      1.3214                 1.2357                 1.0497
 Frc consts  --      1.5856                 1.5508                 1.4455
 IR Inten    --     12.5298                20.5795                19.0698

                     22                     23                     24
                      A                      A                      A
 Frequencies --   1531.5802              1545.2635              1727.5273
 Red. masses --      1.0872                 1.0524                11.2785
 Frc consts  --      1.5025                 1.4805                19.8313
 IR Inten    --      9.7975                14.7807               255.2963

                     25                     26                     27
                      A                      A                      A
 Frequencies --   2296.9436              3089.8260              3127.3607
 Red. masses --     11.9989                 1.0353                 1.0612
 Frc consts  --     37.2986                 5.8236                 6.1149
 IR Inten    --     41.1838                12.2405                15.2347

                     28                     29                     30
                      A                      A                      A
 Frequencies --   3168.8619              3176.4594              3204.1909
 Red. masses --      1.0983                 1.1023                 1.1067
 Frc consts  --      6.4982                 6.5527                 6.6944
 IR Inten    --     18.6720                 2.1575                13.5129

 - Thermochemistry -
 -------------------
 Temperature   298.150 Kelvin.  Pressure   1.00000 Atm.
 Atom     1 has atomic number  6 and mass  12.00000

 Molecular mass:    97.02895 amu.
 Principal axes and moments of inertia in atomic units:
                           1         2         3
     Eigenvalues --   266.082681128.805731247.69004
           X            0.99990   0.00794  -0.01137
           Y           -0.00776   0.99985   0.01544
           Z            0.01149  -0.01535   0.99982
 This molecule is an asymmetric top.
 Rotational symmetry number  1.
 Rotational temperatures (Kelvin)      0.32552     0.07673     0.06942
 Rotational constants (GHZ):           6.78263     1.59881     1.44647
 Zero-point vibrational energy     236543.6 (Joules/Mol)
                                   56.53527 (Kcal/Mol)
 Warning -- explicit consideration of   9 degrees of freedom as
           vibrations may cause significant error
 Vibrational temperatures:    116.02   153.27   240.16   324.02   429.84
          (Kelvin)            470.65   606.00   802.14   883.79  1140.20
                             1170.34  1252.64  1342.71  1538.13  1648.65
                             1755.29  1841.08  1929.75  2053.24  2099.81
                             2199.59  2203.60  2223.29  2485.53  3304.79
                             4445.57  4499.57  4559.29  4570.22  4610.12

 Zero-point correction=                           0.090095 (Hartree/Particle)
 Thermal correction to Energy=                    0.097370
 Thermal correction to Enthalpy=                  0.098315
 Thermal correction to Gibbs Free Energy=         0.057679
 Sum of electronic and zero-point Energies=           -343.470160
 Sum of electronic and thermal Energies=              -343.462884
 Sum of electronic and thermal Enthalpies=            -343.461940
 Sum of electronic and thermal Free Energies=         -343.502576

                     E (Thermal)             CV                S
                      KCal/Mol        Cal/Mol-Kelvin    Cal/Mol-Kelvin
 Total                   61.101             24.139             85.526
 Electronic               0.000              0.000              1.377
 Translational            0.889              2.981             39.628
 Rotational               0.889              2.981             27.418
 Vibrational             59.323             18.177             17.102
 Vibration     1          0.600              1.962              3.875
 Vibration     2          0.605              1.944              3.331
 Vibration     3          0.624              1.883              2.470
 Vibration     4          0.650              1.803              1.917
 Vibration     5          0.692              1.676              1.424
 Vibration     6          0.711              1.621              1.274
 Vibration     7          0.784              1.424              0.888
 Vibration     8          0.913              1.123              0.529
 Vibration     9          0.974              1.002              0.426

 Optimization completed.
    -- Stationary point found.
 Normal termination of Gaussian 16 at Sun Jun  8 18:34:33 2025.
