 Gaussian 16, Revision A.03,
 Gaussian 16:  ES64L-G16RevA.03 25-Dec-2016

 ---------------------------------------------------------
 # opt=(calcfc,tight,noeigentest) freq 6-311++g(d,p) m062x
 ---------------------------------------------------------

 -------------------
 Title Card Required
 -------------------
 Symbolic Z-matrix:
 Charge =  0 Multiplicity = 2

 SCF Done:  E(UM062X) =  -343.756670235     A.U. after   27 cycles
 SCF Done:  E(UM062X) =  -343.759704061     A.U. after   19 cycles
 SCF Done:  E(UM062X) =  -343.759728044     A.U. after   19 cycles
 SCF Done:  E(UM062X) =  -343.759728612     A.U. after   16 cycles
 SCF Done:  E(UM062X) =  -343.759728628     A.U. after   14 cycles
 Optimization completed.
    -- Stationary point found.

 1\1\GINC-AJ\FOpt\UM062X\6-311++G(d,p)\C5H5O2(2)\AAYUSH\08-Jun-2025\0\\
 # opt=(calcfc,tight,noeigentest) freq 6-311++g(d,p) m062x\\Title Card
 Required\\0,2\C,3.0840926758,-0.5469692177,0.3409164082\C,1.9584917723
 ,-0.1830131628,0.1275152588\C,0.6011274301,0.295343798,-0.125352205\O,
 0.3040748957,1.4557290769,-0.1540995887\O,-0.2304823751,-0.7248275304,
 -0.3198952156\C,-1.6103494448,-0.3797451056,-0.5676571853\C,-2.3308488
 558,-0.0544487608,0.7256314728\H,-2.0204261472,-1.2670655273,-1.046207
 4938\H,-1.6399258069,0.4580862468,-1.2651176823\H,-3.3867967921,0.1289

 Normal termination of Gaussian 16 at Sun Jun  8 23:32:57 2025.

 ----------------------------------------------------------------------
 #N Geom=AllCheck Guess=TCheck SCRF=Check GenChk UM062X/6-311++G(d,p) F
 req
 ----------------------------------------------------------------------

 Structure from the checkpoint file:  "ethyl_propiolate.chk"
 -------------------
 Title Card Required
 -------------------
 Charge =  0 Multiplicity = 2

                         Standard orientation:
 ---------------------------------------------------------------------
 Center     Atomic      Atomic             Coordinates (Angstroms)
 Number     Number       Type             X           Y           Z
 ---------------------------------------------------------------------
      1          6           0        3.092333   -0.537845    0.349946
      2          6           0        1.966591   -0.177645    0.130993
      3          6           0        0.609014    0.296236   -0.129058
      4          8           0        0.310876    1.455889   -0.172411
      5          8           0       -0.221428   -0.727066   -0.311789
      6          6           0       -1.601385   -0.386409   -0.565111
      7          6           0       -2.323448   -0.045874    0.723374
      8          1           0       -2.010147   -1.279966   -1.033064
      9          1           0       -1.631090    0.442721   -1.272889
     10          1           0       -3.379370    0.133960    0.512588
     11          1           0       -2.248380   -0.872190    1.431686
     12          1           0       -1.905224    0.854112    1.174418
 ---------------------------------------------------------------------

 SCF Done:  E(UM062X) =  -343.759728628     A.U. after    2 cycles

 The electronic state is 2-A.
 Alpha  occ. eigenvalues --  -19.69000 -19.63937 -10.71523 -10.62620 -10.61132
 Alpha  occ. eigenvalues --  -10.58183 -10.54244  -1.26417  -1.17137  -0.91477
 Alpha  occ. eigenvalues --   -0.88041  -0.78649  -0.70667  -0.64798  -0.59090
 Alpha  occ. eigenvalues --   -0.57077  -0.54516  -0.50093  -0.48949  -0.47199
 Alpha  occ. eigenvalues --   -0.45854  -0.42598  -0.40477  -0.39254  -0.39095
 Alpha  occ. eigenvalues --   -0.37687
 Alpha virt. eigenvalues --   -0.02319  -0.00163   0.01612   0.02309   0.02924
 Alpha virt. eigenvalues --    0.04183   0.04444   0.05298   0.06140   0.06819
 Alpha virt. eigenvalues --    0.07119   0.07723   0.08754   0.10328   0.11337

  Beta  occ. eigenvalues --  -19.69010 -19.63961 -10.71486 -10.61133 -10.61019
  Beta  occ. eigenvalues --  -10.58067 -10.54244  -1.26432  -1.17192  -0.90688
  Beta  occ. eigenvalues --   -0.86693  -0.77959  -0.70009  -0.64702  -0.59154
  Beta  occ. eigenvalues --   -0.57165  -0.54299  -0.49990  -0.47331  -0.45908
  Beta  occ. eigenvalues --   -0.42627  -0.40049  -0.39259  -0.37173  -0.36314
  Beta virt. eigenvalues --   -0.19289  -0.01202  -0.00101   0.01639   0.02332
  Beta virt. eigenvalues --    0.03052   0.04505   0.04983   0.05318   0.06066
  Beta virt. eigenvalues --    0.06930   0.07223   0.07715   0.08443   0.10507

 Mulliken charges and spin densities:
               1          2
     1  C    0.126873   1.192063
     2  C    1.056018  -0.118030
     3  C   -1.205602  -0.064647
     4  O   -0.205462  -0.008704
     5  O    0.013504  -0.001460
     6  C   -0.293764   0.001318
     7  C   -0.403688  -0.000470
     8  H    0.198097  -0.000169
     9  H    0.197715   0.000005
    10  H    0.165279   0.000054
    11  H    0.167259   0.000058
    12  H    0.183771  -0.000019
 Sum of Mulliken charges =  -0.00000   1.00000

 Dipole moment (field-independent basis, Debye):
    X=             -1.4949    Y=             -1.4758    Z=             -0.0719  Tot=              2.1019
 Quadrupole moment (field-independent basis, Debye-Ang):
   XX=            -33.3617   YY=            -46.0596   ZZ=            -40.0468
   XY=             -0.6655   XZ=              1.3086   YZ=              0.1865

  Exact polarizability:  81.965  -5.452  57.578   3.935  -0.448  46.168
 Approx polarizability:  90.576 -11.597  71.929   7.512  -2.203  51.633

                      1                      2                      3
                      A                      A                      A
 Frequencies --     82.9465               117.3542               155.9921
 Red. masses --      4.3953                 3.8183                 4.1196
 Frc consts  --      0.0178                 0.0310                 0.0591
 IR Inten    --      1.8032                 0.3243                 0.9864

                      4                      5                      6
                      A                      A                      A
 Frequencies --    225.7778               258.4510               334.4623
 Red. masses --      1.2936                 7.8573                 2.8809
 Frc consts  --      0.0389                 0.3092                 0.1899
 IR Inten    --      1.7319                 0.4478                11.9209

                      7                      8                      9
                      A                      A                      A
 Frequencies --    415.6846               539.7160               596.5722
 Red. masses --      4.2111                 5.6531                 7.5351
 Frc consts  --      0.4287                 0.9702                 1.5800
 IR Inten    --      5.3106                 6.5812                 1.7751

                     10                     11                     12
                      A                      A                      A
 Frequencies --    770.4097               801.4409               893.0887
 Red. masses --     10.5927                 1.2122                 3.0842
 Frc consts  --      3.7042                 0.4587                 1.4494
 IR Inten    --     14.6995                 4.2712                12.3871

                     13                     14                     15
                      A                      A                      A
 Frequencies --    929.8871              1074.7297              1127.8180
 Red. masses --      2.9365                 4.1261                 2.0762
 Frc consts  --      1.4960                 2.8080                 1.5560
 IR Inten    --      9.4363                16.1688                19.8974

                     16                     17                     18
                      A                      A                      A
 Frequencies --   1203.1329              1282.5462              1348.1444
 Red. masses --      1.7760                 4.5317                 1.1971
 Frc consts  --      1.5146                 4.3919                 1.2819
 IR Inten    --      7.0020               628.5774                73.1500

                     19                     20                     21
                      A                      A                      A
 Frequencies --   1402.7244              1432.1874              1492.6265
 Red. masses --      1.2692                 1.3715                 1.0411
 Frc consts  --      1.4714                 1.6575                 1.3666
 IR Inten    --     25.2043                 8.8857                10.9380

                     22                     23                     24
                      A                      A                      A
 Frequencies --   1502.5843              1514.6051              1842.0664
 Red. masses --      1.0649                 1.0807                12.1916
 Frc consts  --      1.4165                 1.4606                24.3738
 IR Inten    --      2.5917                18.0004               308.8500

                     25                     26                     27
                      A                      A                      A
 Frequencies --   2288.3589              3076.1674              3108.3188
 Red. masses --     11.9995                 1.0354                 1.0608
 Frc consts  --     37.0222                 5.7727                 6.0385
 IR Inten    --     29.9850                 9.4000                17.3273

                     28                     29                     30
                      A                      A                      A
 Frequencies --   3151.3899              3155.5613              3176.2170
 Red. masses --      1.1015                 1.1048                 1.1074
 Frc consts  --      6.4453                 6.4816                 6.5820
 IR Inten    --     13.7296                 2.0055                13.7585

 - Thermochemistry -
 -------------------
 Temperature   298.150 Kelvin.  Pressure   1.00000 Atm.
 Atom     1 has atomic number  6 and mass  12.00000

 Molecular mass:    97.02895 amu.
 Principal axes and moments of inertia in atomic units:
                           1         2         3
     Eigenvalues --   260.086971105.917461220.34572
           X            0.99990   0.00784  -0.01143
           Y           -0.00764   0.99982   0.01718
           Z            0.01156  -0.01709   0.99979
 This molecule is an asymmetric top.
 Rotational symmetry number  1.
 Rotational temperatures (Kelvin)      0.33302     0.07832     0.07097
 Rotational constants (GHZ):           6.93899     1.63190     1.47888
 Zero-point vibrational energy     235072.0 (Joules/Mol)
                                   56.18355 (Kcal/Mol)
 Warning -- explicit consideration of   9 degrees of freedom as
           vibrations may cause significant error
 Vibrational temperatures:    119.34   168.85   224.44   324.84   371.85
          (Kelvin)            481.22   598.08   776.53   858.33  1108.45
                             1153.09  1284.96  1337.90  1546.30  1622.68
                             1731.04  1845.30  1939.68  2018.21  2060.60
                             2147.56  2161.88  2179.18  2650.32  3292.44
                             4425.92  4472.18  4534.15  4540.15  4569.87

 Zero-point correction=                           0.089534 (Hartree/Particle)
 Thermal correction to Energy=                    0.096883
 Thermal correction to Enthalpy=                  0.097828
 Thermal correction to Gibbs Free Energy=         0.057125
 Sum of electronic and zero-point Energies=           -343.670194
 Sum of electronic and thermal Energies=              -343.662845
 Sum of electronic and thermal Enthalpies=            -343.661901
 Sum of electronic and thermal Free Energies=         -343.702604

                     E (Thermal)             CV                S
                      KCal/Mol        Cal/Mol-Kelvin    Cal/Mol-Kelvin
 Total                   60.795             24.360             85.666
 Electronic               0.000              0.000              1.377
 Translational            0.889              2.981             39.628
 Rotational               0.889              2.981             27.353
 Vibrational             59.018             18.398             17.307
 Vibration     1          0.600              1.961              3.820
 Vibration     2          0.608              1.935              3.143
 Vibration     3          0.620              1.896              2.598
 Vibration     4          0.650              1.802              1.912
 Vibration     5          0.667              1.748              1.672
 Vibration     6          0.716              1.607              1.238
 Vibration     7          0.779              1.436              0.907
 Vibration     8          0.895              1.162              0.566
 Vibration     9          0.954              1.039              0.456

 Optimization completed.
    -- Stationary point found.

 1\1\GINC-AJ\Freq\UM062X\6-311++G(d,p)\C5H5O2(2)\AAYUSH\08-Jun-2025\0\\
 #N Geom=AllCheck Guess=TCheck SCRF=Check GenChk UM062X/6-311++G(d,p) F
 req\\Title Card Required\\0,2\C,3.0840926758,-0.5469692177,0.340916408
 2\C,1.9584917723,-0.1830131628,0.1275152588\C,0.6011274301,0.295343798
 ,-0.125352205\O,0.3040748957,1.4557290769,-0.1540995887\O,-0.230482375
 1,-0.7248275304,-0.3198952156\C,-1.6103494448,-0.3797451056,-0.5676571
 853\C,-2.3308488558,-0.0544487608,0.7256314728\H,-2.0204261472,-1.2670
 655273,-1.0462074938\H,-1.6399258069,0.4580862468,-1.2651176823\H,-3.3

 Normal termination of Gaussian 16 at Sun Jun  8 23:34:07 2025.
