 Gaussian 16, Revision A.03,
 Gaussian 16:  ES64L-G16RevA.03 25-Dec-2016

 -----------------------
 # ccsd(t)/6-311++g** sp
 -----------------------

 -------------------
 Title Card Required
 -------------------
 Symbolic Z-matrix:
 Charge =  0 Multiplicity = 2

                         Standard orientation:
 ---------------------------------------------------------------------
 Center     Atomic      Atomic             Coordinates (Angstroms)
 Number     Number       Type             X           Y           Z
 ---------------------------------------------------------------------
      1          6           0        3.092333   -0.537845    0.349946
      2          6           0        1.966591   -0.177645    0.130993
      3          6           0        0.609014    0.296236   -0.129058
      4          8           0        0.310876    1.455889   -0.172411
      5          8           0       -0.221428   -0.727066   -0.311789
      6          6           0       -1.601385   -0.386409   -0.565111
      7          6           0       -2.323448   -0.045874    0.723374
      8          1           0       -2.010147   -1.279966   -1.033064
      9          1           0       -1.631090    0.442721   -1.272889
     10          1           0       -3.379370    0.133960    0.512588
     11          1           0       -2.248380   -0.872190    1.431686
     12          1           0       -1.905224    0.854112    1.174418
 ---------------------------------------------------------------------

 SCF Done:  E(UHF) =  -341.916005710     A.U. after   24 cycles
 E2 =    -0.1023471180D+01 EUMP2 =    -0.34293947689015D+03
 CCSD(T)= -0.34304435026D+03

 The electronic state is 2-A.
 Alpha  occ. eigenvalues --  -20.61887 -20.56536 -11.42376 -11.32295 -11.30199
 Alpha  occ. eigenvalues --  -11.25777 -11.22994  -1.48773  -1.38352  -1.09228
 Alpha  occ. eigenvalues --   -1.05206  -0.93293  -0.83885  -0.76597  -0.69962
 Alpha  occ. eigenvalues --   -0.66932  -0.65098  -0.62806  -0.58698  -0.55038
 Alpha  occ. eigenvalues --   -0.54524  -0.51039  -0.48618  -0.47355  -0.46400
 Alpha  occ. eigenvalues --   -0.45837
 Alpha virt. eigenvalues --    0.04071   0.05725   0.06498   0.07452   0.08313
 Alpha virt. eigenvalues --    0.08537   0.09161   0.11106   0.11593   0.12241
 Alpha virt. eigenvalues --    0.13171   0.13446   0.14440   0.16305   0.17547

  Beta  occ. eigenvalues --  -20.61902 -20.57178 -11.41871 -11.30205 -11.27613
  Beta  occ. eigenvalues --  -11.26542 -11.22995  -1.49084  -1.39376  -1.08515
  Beta  occ. eigenvalues --   -1.03748  -0.91673  -0.82909  -0.76513  -0.70604
  Beta  occ. eigenvalues --   -0.67399  -0.64095  -0.59328  -0.56238  -0.54705
  Beta  occ. eigenvalues --   -0.51302  -0.49662  -0.48039  -0.44114  -0.43647
  Beta virt. eigenvalues --    0.00097   0.04095   0.05719   0.06531   0.07748
  Beta virt. eigenvalues --    0.09115   0.09948   0.10727   0.11046   0.11938
  Beta virt. eigenvalues --    0.12918   0.13389   0.14093   0.15315   0.16727

 Mulliken charges and spin densities:
               1          2
     1  C   -0.134150   1.921614
     2  C    1.440857  -0.968287
     3  C   -1.207639   0.174087
     4  O   -0.277116  -0.131381
     5  O   -0.079095   0.003193
     6  C   -0.184983   0.003434
     7  C   -0.358171  -0.001780
     8  H    0.168805  -0.000161
     9  H    0.178998  -0.000486
    10  H    0.135769  -0.000004
    11  H    0.144522  -0.000075
    12  H    0.172204  -0.000153
 Sum of Mulliken charges =  -0.00000   1.00000

 Dipole moment (field-independent basis, Debye):
    X=             -1.2096    Y=             -1.6844    Z=             -0.0536  Tot=              2.0744
 Quadrupole moment (field-independent basis, Debye-Ang):
   XX=            -32.9806   YY=            -46.5874   ZZ=            -39.9694
   XY=             -0.9716   XZ=              1.4657   YZ=              0.1645

 42.9873739\CCSD=-342.9981451\CCSD(T)=-343.0443503\S2=1.174558\S2-1=1.0
 Normal termination of Gaussian 16 at Tue Jun 10 16:01:43 2025.
