 Gaussian 16, Revision A.03,
 Gaussian 16:  ES64L-G16RevA.03 25-Dec-2016

 --------------------------------------------------
 # opt=(calcfc,tight,noeigentest) freq 6-31+g m062x
 --------------------------------------------------

 -------------------
 Title Card Required
 -------------------
 Symbolic Z-matrix:
 Charge =  0 Multiplicity = 2

 SCF Done:  E(UM062X) =  -343.587614198     A.U. after   18 cycles
 SCF Done:  E(UM062X) =  -343.607091517     A.U. after   18 cycles
 SCF Done:  E(UM062X) =  -343.606862823     A.U. after   18 cycles
 SCF Done:  E(UM062X) =  -343.608776580     A.U. after   19 cycles
 SCF Done:  E(UM062X) =  -343.613631280     A.U. after   21 cycles
 SCF Done:  E(UM062X) =  -343.614685381     A.U. after   19 cycles
 SCF Done:  E(UM062X) =  -343.614815489     A.U. after   18 cycles
 SCF Done:  E(UM062X) =  -343.614898917     A.U. after   17 cycles
 SCF Done:  E(UM062X) =  -343.614909601     A.U. after   16 cycles
 SCF Done:  E(UM062X) =  -343.614912820     A.U. after   18 cycles
 SCF Done:  E(UM062X) =  -343.614913636     A.U. after   15 cycles
 SCF Done:  E(UM062X) =  -343.614915220     A.U. after   15 cycles
 SCF Done:  E(UM062X) =  -343.614916238     A.U. after   16 cycles
 SCF Done:  E(UM062X) =  -343.614916778     A.U. after   15 cycles
 SCF Done:  E(UM062X) =  -343.614916944     A.U. after   13 cycles
 SCF Done:  E(UM062X) =  -343.614916951     A.U. after   12 cycles
 SCF Done:  E(UM062X) =  -343.614916953     A.U. after   12 cycles
 SCF Done:  E(UM062X) =  -343.614916953     A.U. after    7 cycles
 Optimization completed.
    -- Stationary point found.
 Normal termination of Gaussian 16 at Sun Jun  8 18:36:31 2025.

 ------------------------------------------------------------------
 #N Geom=AllCheck Guess=TCheck SCRF=Check GenChk UM062X/6-31+G Freq
 ------------------------------------------------------------------

 Structure from the checkpoint file:  "ethyl_propiolate.chk"
 -------------------
 Title Card Required
 -------------------
 Charge =  0 Multiplicity = 2

                         Standard orientation:
 ---------------------------------------------------------------------
 Center     Atomic      Atomic             Coordinates (Angstroms)
 Number     Number       Type             X           Y           Z
 ---------------------------------------------------------------------
      1          6           0        2.915341   -0.965234    0.009578
      2          1           0        3.829197   -1.514520    0.014399
      3          6           0        1.881978   -0.339024    0.003704
      4          6           0        0.682805    0.453615   -0.001506
      5          8           0        0.631260    1.680725    0.022236
      6          8           0       -0.438782   -0.334490   -0.036820
      7          6           0       -1.700560    0.258276   -0.073162
      8          6           0       -2.824228   -0.696542    0.035976
      9          1           0       -1.735156    1.330183    0.060468
     10          1           0       -3.772397   -0.178636   -0.120830
     11          1           0       -2.735322   -1.495067   -0.708698
     12          1           0       -2.858156   -1.178394    1.023795
 ---------------------------------------------------------------------

 SCF Done:  E(UM062X) =  -343.614916953     A.U. after    1 cycles

 The electronic state is 2-A.
 Alpha  occ. eigenvalues --  -19.72652 -19.66946 -10.73495 -10.62672 -10.59518
 Alpha  occ. eigenvalues --  -10.59195 -10.55859  -1.27572  -1.18345  -0.91678
 Alpha  occ. eigenvalues --   -0.88074  -0.79480  -0.70127  -0.66280  -0.61770
 Alpha  occ. eigenvalues --   -0.57824  -0.57437  -0.51544  -0.50364  -0.48659
 Alpha  occ. eigenvalues --   -0.44584  -0.43577  -0.39797  -0.37909  -0.37047
 Alpha  occ. eigenvalues --   -0.24956
 Alpha virt. eigenvalues --   -0.02900   0.02182   0.02995   0.03471   0.04373
 Alpha virt. eigenvalues --    0.04928   0.05348   0.06746   0.07383   0.08194
 Alpha virt. eigenvalues --    0.09617   0.10220   0.10385   0.12903   0.13407

  Beta  occ. eigenvalues --  -19.72603 -19.66830 -10.73476 -10.61901 -10.59508
  Beta  occ. eigenvalues --  -10.59203 -10.55924  -1.27141  -1.17898  -0.90986
  Beta  occ. eigenvalues --   -0.86998  -0.79157  -0.69211  -0.64846  -0.61688
  Beta  occ. eigenvalues --   -0.56988  -0.56172  -0.50509  -0.48827  -0.48466
  Beta  occ. eigenvalues --   -0.44109  -0.42244  -0.39648  -0.37452  -0.36936
  Beta virt. eigenvalues --   -0.05092   0.00098   0.02103   0.02487   0.03463
  Beta virt. eigenvalues --    0.04137   0.04732   0.05025   0.06640   0.07309
  Beta virt. eigenvalues --    0.08128   0.09690   0.09836   0.10237   0.12527

 Mulliken charges and spin densities:
               1          2
     1  C    0.160642   0.031416
     2  H    0.350818  -0.000897
     3  C    0.139725   0.031105
     4  C   -0.298800  -0.044904
     5  O   -0.368340   0.072375
     6  O   -0.287167  -0.025392
     7  C    0.226527   0.990390
     8  C   -0.833384  -0.093792
     9  H    0.237548  -0.052209
    10  H    0.217382   0.002866
    11  H    0.229533   0.032135
    12  H    0.225517   0.056908
 Sum of Mulliken charges =  -0.00000   1.00000

 Dipole moment (field-independent basis, Debye):
    X=             -0.5407    Y=             -2.2737    Z=              0.1944  Tot=              2.3451
 Quadrupole moment (field-independent basis, Debye-Ang):
   XX=            -27.7859   YY=            -45.4819   ZZ=            -41.9788
   XY=             -5.9408   XZ=             -0.4094   YZ=              0.0474

  Exact polarizability:  98.311  -7.410  60.031   0.339  -0.258  37.139
 Approx polarizability:  95.090 -14.617  75.765   0.578   0.022  39.003

                      1                      2                      3
                      A                      A                      A
 Frequencies --     75.2807               115.8590               135.2560
 Red. masses --      1.9593                 1.8332                 3.3979
 Frc consts  --      0.0065                 0.0145                 0.0366
 IR Inten    --      0.2960                 2.4894                 5.7142

                      4                      5                      6
                      A                      A                      A
 Frequencies --    163.1362               263.4003               295.3326
 Red. masses --      1.7523                 4.4343                 1.7071
 Frc consts  --      0.0275                 0.1813                 0.0877
 IR Inten    --     13.5955                 2.7771                32.7317

                      7                      8                      9
                      A                      A                      A
 Frequencies --    366.6776               398.9590               544.8021
 Red. masses --      4.4360                 3.2589                 5.7217
 Frc consts  --      0.3514                 0.3056                 1.0006
 IR Inten    --      6.0069                 7.5665                 2.6481

                     10                     11                     12
                      A                      A                      A
 Frequencies --    640.7483               782.2963               808.7007
 Red. masses --      5.2392                 2.7954                 1.4638
 Frc consts  --      1.2673                 1.0079                 0.5640
 IR Inten    --      7.4849                69.4169                63.9742

                     13                     14                     15
                      A                      A                      A
 Frequencies --    861.7062               881.1658               978.1004
 Red. masses --      2.1618                 3.7165                 4.1360
 Frc consts  --      0.9458                 1.7002                 2.3313
 IR Inten    --     15.1106                11.1949                 3.0718

                     16                     17                     18
                      A                      A                      A
 Frequencies --   1044.8513              1165.7954              1186.7610
 Red. masses --      1.3125                 2.2321                 2.0967
 Frc consts  --      0.8442                 1.7874                 1.7399
 IR Inten    --      3.0762                22.2159                 0.1875

                     19                     20                     21
                      A                      A                      A
 Frequencies --   1260.0378              1403.2058              1469.8986
 Red. masses --     11.8928                 1.5784                 1.3140
 Frc consts  --     11.1251                 1.8311                 1.6727
 IR Inten    --    515.5374                 3.6596                11.9912

                     22                     23                     24
                      A                      A                      A
 Frequencies --   1509.5902              1526.9564              1724.5515
 Red. masses --      1.0512                 1.0420                12.6274
 Frc consts  --      1.4115                 1.4314                22.1268
 IR Inten    --     13.9938                11.0827               369.9693

                     25                     26                     27
                      A                      A                      A
 Frequencies --   2282.4718              3037.6255              3107.4324
 Red. masses --      5.8273                 1.0477                 1.0861
 Frc consts  --     17.8866                 5.6956                 6.1791
 IR Inten    --     51.4962                21.1126                11.9233

                     28                     29                     30
                      A                      A                      A
 Frequencies --   3174.1406              3290.3130              3518.7840
 Red. masses --      1.0964                 1.0907                 1.1697
 Frc consts  --      6.5085                 6.9573                 8.5329
 IR Inten    --     10.1401                 0.0403                70.5987

 - Thermochemistry -
 -------------------
 Temperature   298.150 Kelvin.  Pressure   1.00000 Atm.
 Atom     1 has atomic number  6 and mass  12.00000

 Molecular mass:    97.02895 amu.
 Principal axes and moments of inertia in atomic units:
                           1         2         3
     Eigenvalues --   278.541751210.738221477.21028
           X            1.00000   0.00097  -0.00178
           Y           -0.00097   1.00000  -0.00100
           Z            0.00178   0.00100   1.00000
 This molecule is an asymmetric top.
 Rotational symmetry number  1.
 Rotational temperatures (Kelvin)      0.31095     0.07154     0.05863
 Rotational constants (GHZ):           6.47925     1.49061     1.22172
 Zero-point vibrational energy     227373.2 (Joules/Mol)
                                   54.34351 (Kcal/Mol)
 Warning -- explicit consideration of   9 degrees of freedom as
           vibrations may cause significant error
 Vibrational temperatures:    108.31   166.70   194.60   234.72   378.97
          (Kelvin)            424.92   527.57   574.01   783.85   921.89
                             1125.55  1163.54  1239.80  1267.80  1407.27
                             1503.31  1677.32  1707.48  1812.91  2018.90
                             2114.86  2171.96  2196.95  2481.24  3283.97
                             4370.47  4470.90  4566.88  4734.03  5062.75

 Zero-point correction=                           0.086602 (Hartree/Particle)
 Thermal correction to Energy=                    0.094517
 Thermal correction to Enthalpy=                  0.095461
 Thermal correction to Gibbs Free Energy=         0.053437
 Sum of electronic and zero-point Energies=           -343.528315
 Sum of electronic and thermal Energies=              -343.520400
 Sum of electronic and thermal Enthalpies=            -343.519456
 Sum of electronic and thermal Free Energies=         -343.561480

                     E (Thermal)             CV                S
                      KCal/Mol        Cal/Mol-Kelvin    Cal/Mol-Kelvin
 Total                   59.310             26.310             88.448
 Electronic               0.000              0.000              1.377
 Translational            0.889              2.981             39.628
 Rotational               0.889              2.981             27.701
 Vibrational             57.533             20.348             19.741
 Vibration     1          0.599              1.965              4.010
 Vibration     2          0.608              1.936              3.168
 Vibration     3          0.613              1.918              2.870
 Vibration     4          0.623              1.888              2.513
 Vibration     5          0.670              1.740              1.639
 Vibration     6          0.690              1.682              1.443
 Vibration     7          0.740              1.541              1.094
 Vibration     8          0.765              1.472              0.966
 Vibration     9          0.900              1.151              0.555

 Optimization completed.
    -- Stationary point found.
 Normal termination of Gaussian 16 at Sun Jun  8 18:36:51 2025.
