 Gaussian 16, Revision A.03,
 Gaussian 16:  ES64L-G16RevA.03 25-Dec-2016

 -----------------------
 # ccsd(t)/6-311++g** sp
 -----------------------

 -------------------
 Title Card Required
 -------------------
 Symbolic Z-matrix:
 Charge =  0 Multiplicity = 2

                         Standard orientation:
 ---------------------------------------------------------------------
 Center     Atomic      Atomic             Coordinates (Angstroms)
 Number     Number       Type             X           Y           Z
 ---------------------------------------------------------------------
      1          6           0        2.898149   -0.947400    0.015007
      2          1           0        3.812552   -1.493026    0.023627
      3          6           0        1.868871   -0.333977    0.004320
      4          6           0        0.654367    0.459493   -0.004098
      5          8           0        0.617694    1.655601    0.024621
      6          8           0       -0.433018   -0.338199   -0.048171
      7          6           0       -1.670237    0.253744   -0.091140
      8          6           0       -2.800274   -0.689393    0.043997
      9          1           0       -1.702398    1.312546    0.117043
     10          1           0       -3.741128   -0.170306   -0.137078
     11          1           0       -2.708918   -1.510770   -0.671470
     12          1           0       -2.842767   -1.132455    1.047773
 ---------------------------------------------------------------------

 SCF Done:  E(UHF) =  -341.957932373     A.U. after   26 cycles
 E2 =    -0.1056451148D+01 EUMP2 =    -0.34301438352036D+03
 CCSD(T)= -0.34309668338D+03

 The electronic state is 2-A.
 Alpha  occ. eigenvalues --  -20.63245 -20.57212 -11.42630 -11.29832 -11.27382
 Alpha  occ. eigenvalues --  -11.26483 -11.23447  -1.50118  -1.39935  -1.08913
 Alpha  occ. eigenvalues --   -1.04999  -0.93551  -0.82933  -0.78819  -0.73475
 Alpha  occ. eigenvalues --   -0.70109  -0.69240  -0.61359  -0.59359  -0.57336
 Alpha  occ. eigenvalues --   -0.53533  -0.52464  -0.49324  -0.43408  -0.43213
 Alpha  occ. eigenvalues --   -0.34025
 Alpha virt. eigenvalues --    0.03734   0.04435   0.06629   0.07250   0.07858
 Alpha virt. eigenvalues --    0.08114   0.10249   0.11360   0.11763   0.12525
 Alpha virt. eigenvalues --    0.14445   0.14713   0.15567   0.16079   0.16814

  Beta  occ. eigenvalues --  -20.63104 -20.57170 -11.42580 -11.27273 -11.27256
  Beta  occ. eigenvalues --  -11.26613 -11.23764  -1.49450  -1.39508  -1.08152
  Beta  occ. eigenvalues --   -1.02607  -0.93250  -0.80734  -0.77119  -0.73365
  Beta  occ. eigenvalues --   -0.69461  -0.65742  -0.60442  -0.57125  -0.56706
  Beta  occ. eigenvalues --   -0.52847  -0.50779  -0.49275  -0.43175  -0.43125
  Beta virt. eigenvalues --    0.03743   0.04456   0.06685   0.06923   0.07351
  Beta virt. eigenvalues --    0.08150   0.10223   0.10654   0.11465   0.12023
  Beta virt. eigenvalues --    0.12651   0.14620   0.15693   0.16239   0.16816

 Mulliken charges and spin densities:
               1          2
     1  C   -0.622672   0.072666
     2  H    0.213219  -0.005210
     3  C    1.409438  -0.054761
     4  C   -0.685634  -0.009835
     5  O   -0.321210   0.022323
     6  O   -0.043794  -0.052045
     7  C    0.093135   1.191490
     8  C   -0.670989  -0.168662
     9  H    0.179199  -0.106000
    10  H    0.144463   0.007686
    11  H    0.154114   0.031539
    12  H    0.150733   0.070809
 Sum of Mulliken charges =  -0.00000   1.00000

 Dipole moment (field-independent basis, Debye):
    X=             -0.2611    Y=             -2.2715    Z=              0.2220  Tot=              2.2972
 Quadrupole moment (field-independent basis, Debye-Ang):
   XX=            -28.5516   YY=            -45.0301   ZZ=            -41.5514
   XY=             -6.2637   XZ=             -0.4057   YZ=              0.1279

 3.0517229\CCSD=-343.0499337\CCSD(T)=-343.0966834\S2=0.764062\S2-1=0.75
 Normal termination of Gaussian 16 at Tue Jun 10 16:14:44 2025.
