 Gaussian 16, Revision A.03,
 Gaussian 16:  ES64L-G16RevA.03 25-Dec-2016

 ---------------------------------------------------------
 # opt=(calcfc,tight,noeigentest) freq 6-311++g(d,p) m062x
 ---------------------------------------------------------

 -------------------
 Title Card Required
 -------------------
 Symbolic Z-matrix:
 Charge =  0 Multiplicity = 2

 SCF Done:  E(UM062X) =  -343.810807008     A.U. after   17 cycles
 SCF Done:  E(UM062X) =  -343.813738577     A.U. after   16 cycles
 SCF Done:  E(UM062X) =  -343.812984803     A.U. after   15 cycles
 SCF Done:  E(UM062X) =  -343.813748951     A.U. after   13 cycles
 SCF Done:  E(UM062X) =  -343.813784471     A.U. after   11 cycles
 SCF Done:  E(UM062X) =  -343.813786876     A.U. after   12 cycles
 SCF Done:  E(UM062X) =  -343.813786937     A.U. after    9 cycles
 SCF Done:  E(UM062X) =  -343.813786938     A.U. after    7 cycles
 Optimization completed.
    -- Stationary point found.

 1\1\GINC-AJ\FOpt\UM062X\6-311++G(d,p)\C5H5O2(2)\AAYUSH\08-Jun-2025\0\\
 # opt=(calcfc,tight,noeigentest) freq 6-311++g(d,p) m062x\\Title Card
 Required\\0,2\C,2.8911542858,-0.9539973269,0.008415206\H,3.8050800026,
 -1.5004413249,0.0156892412\C,1.8624141202,-0.339648338,-0.0007594373\C
 ,0.6485975833,0.4548939069,-0.0070595712\O,0.6129022579,1.6508814272,0
 .0273389755\O,-0.4394026225,-0.341645409,-0.0564616145\C,-1.6760571514
 ,0.2515569897,-0.0983093969\C,-2.8070826424,-0.6912483653,0.0307407406
 \H,-1.7076066327,1.3093762448,0.1148998458\H,-3.7472417063,-0.17049322

 Normal termination of Gaussian 16 at Sun Jun  8 23:36:16 2025.

 ----------------------------------------------------------------------
 #N Geom=AllCheck Guess=TCheck SCRF=Check GenChk UM062X/6-311++G(d,p) F
 req
 ----------------------------------------------------------------------

 Structure from the checkpoint file:  "ethyl_propiolate.chk"
 -------------------
 Title Card Required
 -------------------
 Charge =  0 Multiplicity = 2

                         Standard orientation:
 ---------------------------------------------------------------------
 Center     Atomic      Atomic             Coordinates (Angstroms)
 Number     Number       Type             X           Y           Z
 ---------------------------------------------------------------------
      1          6           0        2.898149   -0.947400    0.015007
      2          1           0        3.812552   -1.493026    0.023627
      3          6           0        1.868871   -0.333977    0.004320
      4          6           0        0.654367    0.459493   -0.004098
      5          8           0        0.617694    1.655601    0.024621
      6          8           0       -0.433018   -0.338199   -0.048171
      7          6           0       -1.670237    0.253744   -0.091140
      8          6           0       -2.800274   -0.689393    0.043997
      9          1           0       -1.702398    1.312546    0.117043
     10          1           0       -3.741128   -0.170306   -0.137078
     11          1           0       -2.708918   -1.510770   -0.671470
     12          1           0       -2.842767   -1.132455    1.047773
 ---------------------------------------------------------------------

 SCF Done:  E(UM062X) =  -343.813786938     A.U. after    1 cycles

 The electronic state is 2-A.
 Alpha  occ. eigenvalues --  -19.70459 -19.63850 -10.71095 -10.61130 -10.57331
 Alpha  occ. eigenvalues --  -10.56931 -10.54937  -1.27368  -1.17850  -0.91188
 Alpha  occ. eigenvalues --   -0.87451  -0.79013  -0.69269  -0.66722  -0.61303
 Alpha  occ. eigenvalues --   -0.58578  -0.58173  -0.51617  -0.50331  -0.48525
 Alpha  occ. eigenvalues --   -0.44787  -0.44124  -0.40053  -0.37719  -0.36730
 Alpha  occ. eigenvalues --   -0.25071
 Alpha virt. eigenvalues --   -0.01861  -0.00181   0.00619   0.02235   0.02866
 Alpha virt. eigenvalues --    0.03410   0.03956   0.06124   0.06378   0.06707
 Alpha virt. eigenvalues --    0.08870   0.09174   0.09521   0.09903   0.11333

  Beta  occ. eigenvalues --  -19.70394 -19.63773 -10.71079 -10.60388 -10.57320
  Beta  occ. eigenvalues --  -10.56941 -10.54991  -1.26895  -1.17487  -0.90327
  Beta  occ. eigenvalues --   -0.86559  -0.78656  -0.68465  -0.65320  -0.61213
  Beta  occ. eigenvalues --   -0.57802  -0.56684  -0.50742  -0.48747  -0.48299
  Beta  occ. eigenvalues --   -0.44292  -0.42882  -0.39922  -0.37397  -0.36654
  Beta virt. eigenvalues --   -0.04444  -0.00173   0.00568   0.00828   0.02554
  Beta virt. eigenvalues --    0.03165   0.03461   0.03981   0.06275   0.06479
  Beta virt. eigenvalues --    0.06750   0.08249   0.09400   0.09546   0.10232

 Mulliken charges and spin densities:
               1          2
     1  C   -0.581052   0.024925
     2  H    0.186289  -0.001080
     3  C    1.219521  -0.013600
     4  C   -0.693861   0.035611
     5  O   -0.238790   0.051538
     6  O    0.032159  -0.040191
     7  C   -0.003200   0.968303
     8  C   -0.636282  -0.077829
     9  H    0.184276  -0.035091
    10  H    0.171733   0.004912
    11  H    0.180137   0.024690
    12  H    0.179071   0.057813
 Sum of Mulliken charges =  -0.00000   1.00000

 Dipole moment (field-independent basis, Debye):
    X=             -0.6249    Y=             -2.1640    Z=              0.2450  Tot=              2.2657
 Quadrupole moment (field-independent basis, Debye-Ang):
   XX=            -28.7207   YY=            -44.3605   ZZ=            -41.5941
   XY=             -5.4450   XZ=             -0.4678   YZ=              0.1435

  Exact polarizability:  96.837  -7.229  60.602   0.314  -0.449  40.591
 Approx polarizability:  95.442 -13.250  76.617   0.636  -0.195  47.936

                      1                      2                      3
                      A                      A                      A
 Frequencies --     88.1498               113.2003               133.9011
 Red. masses --      2.2230                 1.9771                 3.4634
 Frc consts  --      0.0102                 0.0149                 0.0366
 IR Inten    --      0.2054                 2.1174                 4.1369

                      4                      5                      6
                      A                      A                      A
 Frequencies --    176.7320               264.0712               298.9982
 Red. masses --      1.7051                 4.6243                 3.9303
 Frc consts  --      0.0314                 0.1900                 0.2070
 IR Inten    --      3.4665                 2.1072                 2.2158

                      7                      8                      9
                      A                      A                      A
 Frequencies --    376.6053               429.8437               542.2627
 Red. masses --      2.5190                 1.9177                 5.8734
 Frc consts  --      0.2105                 0.2088                 1.0176
 IR Inten    --     21.5999                17.0052                 1.2041

                     10                     11                     12
                      A                      A                      A
 Frequencies --    623.5638               737.4261               758.5200
 Red. masses --      6.9551                 1.3270                 1.6433
 Frc consts  --      1.5934                 0.4252                 0.5571
 IR Inten    --      5.5831                39.2496                13.2053

                     13                     14                     15
                      A                      A                      A
 Frequencies --    767.7950               904.4066               977.0684
 Red. masses --      3.9919                 2.7750                 4.0134
 Frc consts  --      1.3865                 1.3373                 2.2574
 IR Inten    --     48.7432                11.7234                 8.6755

                     16                     17                     18
                      A                      A                      A
 Frequencies --   1008.9605              1160.4547              1187.7272
 Red. masses --      1.3392                 2.2572                 2.5818
 Frc consts  --      0.8032                 1.7909                 2.1459
 IR Inten    --      2.8350                 7.9594                14.5287

                     19                     20                     21
                      A                      A                      A
 Frequencies --   1263.5418              1383.1373              1439.7559
 Red. masses --     12.3019                 1.2834                 1.5879
 Frc consts  --     11.5718                 1.4466                 1.9394
 IR Inten    --    597.7877                 2.5860                15.5782

                     22                     23                     24
                      A                      A                      A
 Frequencies --   1471.7527              1490.2473              1840.7574
 Red. masses --      1.0623                 1.0442                12.8073
 Frc consts  --      1.3557                 1.3662                25.5682
 IR Inten    --     11.5503                 6.9873               421.4014

                     25                     26                     27
                      A                      A                      A
 Frequencies --   2266.1847              3019.9718              3095.7394
 Red. masses --      5.7774                 1.0508                 1.0853
 Frc consts  --     17.4812                 5.6463                 6.1280
 IR Inten    --     46.3140                19.0431                 8.8910

                     28                     29                     30
                      A                      A                      A
 Frequencies --   3158.3929              3257.0928              3490.5046
 Red. masses --      1.0988                 1.0901                 1.1702
 Frc consts  --      6.4579                 6.8135                 8.3998
 IR Inten    --      6.9833                 0.1807                74.5418

 - Thermochemistry -
 -------------------
 Temperature   298.150 Kelvin.  Pressure   1.00000 Atm.
 Atom     1 has atomic number  6 and mass  12.00000

 Molecular mass:    97.02895 amu.
 Principal axes and moments of inertia in atomic units:
                           1         2         3
     Eigenvalues --   271.644441189.081531448.12976
           X            1.00000   0.00095  -0.00236
           Y           -0.00096   1.00000  -0.00058
           Z            0.00236   0.00058   1.00000
 This molecule is an asymmetric top.
 Rotational symmetry number  1.
 Rotational temperatures (Kelvin)      0.31885     0.07284     0.05981
 Rotational constants (GHZ):           6.64376     1.51776     1.24626
 Zero-point vibrational energy     225656.2 (Joules/Mol)
                                   53.93312 (Kcal/Mol)
 Warning -- explicit consideration of   9 degrees of freedom as
           vibrations may cause significant error
 Vibrational temperatures:    126.83   162.87   192.65   254.28   379.94
          (Kelvin)            430.19   541.85   618.45   780.20   897.17
                             1060.99  1091.34  1104.69  1301.24  1405.78
                             1451.67  1669.64  1708.87  1817.95  1990.03
                             2071.49  2117.52  2144.13  2648.44  3260.53
                             4345.07  4454.08  4544.22  4686.23  5022.06

 Zero-point correction=                           0.085948 (Hartree/Particle)
 Thermal correction to Energy=                    0.093846
 Thermal correction to Enthalpy=                  0.094790
 Thermal correction to Gibbs Free Energy=         0.052973
 Sum of electronic and zero-point Energies=           -343.727839
 Sum of electronic and thermal Energies=              -343.719941
 Sum of electronic and thermal Enthalpies=            -343.718997
 Sum of electronic and thermal Free Energies=         -343.760814

                     E (Thermal)             CV                S
                      KCal/Mol        Cal/Mol-Kelvin    Cal/Mol-Kelvin
 Total                   58.889             26.580             88.011
 Electronic               0.000              0.000              1.377
 Translational            0.889              2.981             39.628
 Rotational               0.889              2.981             27.639
 Vibrational             57.112             20.619             19.367
 Vibration     1          0.601              1.958              3.701
 Vibration     2          0.607              1.939              3.213
 Vibration     3          0.613              1.919              2.889
 Vibration     4          0.628              1.871              2.363
 Vibration     5          0.671              1.739              1.635
 Vibration     6          0.692              1.676              1.423
 Vibration     7          0.747              1.520              1.053
 Vibration     8          0.791              1.405              0.859
 Vibration     9          0.897              1.157              0.560

 Optimization completed.
    -- Stationary point found.

 1\1\GINC-AJ\Freq\UM062X\6-311++G(d,p)\C5H5O2(2)\AAYUSH\08-Jun-2025\0\\
 #N Geom=AllCheck Guess=TCheck SCRF=Check GenChk UM062X/6-311++G(d,p) F
 req\\Title Card Required\\0,2\C,2.8911542858,-0.9539973269,0.008415206
 \H,3.8050800026,-1.5004413249,0.0156892412\C,1.8624141202,-0.339648338
 ,-0.0007594373\C,0.6485975833,0.4548939069,-0.0070595712\O,0.612902257
 9,1.6508814272,0.0273389755\O,-0.4394026225,-0.341645409,-0.0564616145
 \C,-1.6760571514,0.2515569897,-0.0983093969\C,-2.8070826424,-0.6912483
 653,0.0307407406\H,-1.7076066327,1.3093762448,0.1148998458\H,-3.747241

 Normal termination of Gaussian 16 at Sun Jun  8 23:37:17 2025.
