 Gaussian 16, Revision A.03,
 Gaussian 16:  ES64L-G16RevA.03 25-Dec-2016

 --------------------------------------------------
 # opt=(calcfc,tight,noeigentest) freq 6-31+g m062x
 --------------------------------------------------

 -------------------
 Title Card Required
 -------------------
 Symbolic Z-matrix:
 Charge =  0 Multiplicity = 2

 SCF Done:  E(UM062X) =  -343.588771972     A.U. after   19 cycles
 SCF Done:  E(UM062X) =  -343.605700951     A.U. after   21 cycles
 SCF Done:  E(UM062X) =  -343.606956495     A.U. after   19 cycles
 SCF Done:  E(UM062X) =  -343.559503703     A.U. after   19 cycles
 SCF Done:  E(UM062X) =  -343.607563348     A.U. after   17 cycles
 SCF Done:  E(UM062X) =  -343.607668378     A.U. after   15 cycles
 SCF Done:  E(UM062X) =  -343.607720069     A.U. after   16 cycles
 SCF Done:  E(UM062X) =  -343.607734279     A.U. after   15 cycles
 SCF Done:  E(UM062X) =  -343.607740399     A.U. after   14 cycles
 SCF Done:  E(UM062X) =  -343.607741787     A.U. after   14 cycles
 SCF Done:  E(UM062X) =  -343.607742213     A.U. after   12 cycles
 SCF Done:  E(UM062X) =  -343.607742226     A.U. after   12 cycles
 SCF Done:  E(UM062X) =  -343.607742227     A.U. after   10 cycles
 Optimization completed.
    -- Stationary point found.
 Normal termination of Gaussian 16 at Sun Jun  8 18:38:28 2025.

 ------------------------------------------------------------------
 #N Geom=AllCheck Guess=TCheck SCRF=Check GenChk UM062X/6-31+G Freq
 ------------------------------------------------------------------

 Structure from the checkpoint file:  "ethyl_propiolate.chk"
 -------------------
 Title Card Required
 -------------------
 Charge =  0 Multiplicity = 2

                         Standard orientation:
 ---------------------------------------------------------------------
 Center     Atomic      Atomic             Coordinates (Angstroms)
 Number     Number       Type             X           Y           Z
 ---------------------------------------------------------------------
      1          6           0        3.016912   -0.385247    0.288510
      2          1           0        4.039363   -0.633312    0.461124
      3          6           0        1.859801   -0.098790    0.092501
      4          6           0        0.490197    0.290619   -0.140788
      5          8           0        0.098704    1.453203   -0.237205
      6          8           0       -0.330102   -0.786092   -0.251907
      7          6           0       -1.778515   -0.491083   -0.478457
      8          6           0       -2.420512    0.033087    0.750640
      9          1           0       -2.162065   -1.465217   -0.777994
     10          1           0       -1.837796    0.216950   -1.307357
     11          1           0       -2.480904    1.099581    0.921847
     12          1           0       -2.714710   -0.646409    1.540838
 ---------------------------------------------------------------------

 SCF Done:  E(UM062X) =  -343.607742227     A.U. after    1 cycles

 The electronic state is 2-A.
 Alpha  occ. eigenvalues --  -19.70663 -19.66371 -10.73059 -10.62403 -10.59204
 Alpha  occ. eigenvalues --  -10.58885 -10.57746  -1.25862  -1.16635  -0.91089
 Alpha  occ. eigenvalues --   -0.87828  -0.77913  -0.71212  -0.63922  -0.61484
 Alpha  occ. eigenvalues --   -0.57468  -0.56290  -0.55142  -0.49887  -0.48034
 Alpha  occ. eigenvalues --   -0.43793  -0.39504  -0.38897  -0.37383  -0.36523
 Alpha  occ. eigenvalues --   -0.29719
 Alpha virt. eigenvalues --   -0.02539   0.02310   0.02623   0.03807   0.03925
 Alpha virt. eigenvalues --    0.05068   0.05588   0.06820   0.07797   0.08320
 Alpha virt. eigenvalues --    0.08981   0.09704   0.09905   0.12530   0.13112

  Beta  occ. eigenvalues --  -19.70477 -19.66356 -10.73060 -10.62466 -10.59200
  Beta  occ. eigenvalues --  -10.58877 -10.57062  -1.25570  -1.16359  -0.90590
  Beta  occ. eigenvalues --   -0.86609  -0.76245  -0.69840  -0.63477  -0.61403
  Beta  occ. eigenvalues --   -0.56923  -0.55885  -0.54234  -0.49205  -0.47110
  Beta  occ. eigenvalues --   -0.43275  -0.39244  -0.38497  -0.37372  -0.36401
  Beta virt. eigenvalues --   -0.05822  -0.02466   0.02053   0.02420   0.03506
  Beta virt. eigenvalues --    0.03942   0.04895   0.05989   0.06611   0.07738
  Beta virt. eigenvalues --    0.08147   0.08819   0.09268   0.10262   0.12212

 Mulliken charges and spin densities:
               1          2
     1  C    0.229550  -0.010610
     2  H    0.347791  -0.000011
     3  C    0.174094   0.013865
     4  C   -0.505769  -0.015204
     5  O   -0.360915   0.008627
     6  O   -0.209681   0.052794
     7  C   -0.417458  -0.117606
     8  C   -0.146417   1.179279
     9  H    0.229278   0.009546
    10  H    0.242800   0.005200
    11  H    0.218980  -0.063009
    12  H    0.197747  -0.062870
 Sum of Mulliken charges =   0.00000   1.00000

 Dipole moment (field-independent basis, Debye):
    X=             -0.0998    Y=             -1.7386    Z=              0.2805  Tot=              1.7639
 Quadrupole moment (field-independent basis, Debye-Ang):
   XX=            -27.7802   YY=            -46.9112   ZZ=            -40.1577
   XY=             -1.0144   XZ=              1.4072   YZ=              0.3920

  Exact polarizability:  84.964  -5.656  52.271   2.767  -0.857  41.211
 Approx polarizability:  89.343 -11.692  66.636   5.508  -2.192  43.007

                      1                      2                      3
                      A                      A                      A
 Frequencies --     82.6382               110.1740               136.4024
 Red. masses --      3.7435                 2.2513                 1.3890
 Frc consts  --      0.0151                 0.0161                 0.0152
 IR Inten    --      4.7237                 0.9843                 0.9158

                      4                      5                      6
                      A                      A                      A
 Frequencies --    180.5045               288.5400               332.2453
 Red. masses --      2.9872                 3.5425                 4.0307
 Frc consts  --      0.0573                 0.1738                 0.2621
 IR Inten    --      7.5013                12.8132                 2.9948

                      7                      8                      9
                      A                      A                      A
 Frequencies --    415.1528               537.9903               624.8689
 Red. masses --      3.1186                 2.5113                 4.9190
 Frc consts  --      0.3167                 0.4283                 1.1316
 IR Inten    --      6.5543                13.2020                28.4788

                     10                     11                     12
                      A                      A                      A
 Frequencies --    653.0516               795.7990               801.0285
 Red. masses --      2.6160                 2.6642                 1.4741
 Frc consts  --      0.6573                 0.9941                 0.5573
 IR Inten    --     46.7940                77.8182                53.4198

                     13                     14                     15
                      A                      A                      A
 Frequencies --    812.5964               862.3152               869.1502
 Red. masses --      1.3995                 3.3391                 2.2449
 Frc consts  --      0.5445                 1.4629                 0.9992
 IR Inten    --     17.8721                31.9437                10.5007

                     16                     17                     18
                      A                      A                      A
 Frequencies --    947.2728              1114.4314              1198.9458
 Red. masses --      6.9486                 3.3817                 1.7006
 Frc consts  --      3.6736                 2.4745                 1.4403
 IR Inten    --     45.6909                12.0147                 1.6347

                     19                     20                     21
                      A                      A                      A
 Frequencies --   1269.8305              1325.2584              1399.9690
 Red. masses --      4.2965                 1.1521                 1.3495
 Frc consts  --      4.0818                 1.1922                 1.5584
 IR Inten    --    508.3002                53.0787                55.3102

                     22                     23                     24
                      A                      A                      A
 Frequencies --   1488.9389              1526.9084              1724.1907
 Red. masses --      1.1473                 1.1376                11.6200
 Frc consts  --      1.4986                 1.5626                20.3529
 IR Inten    --      7.6095                14.5859               280.5403

                     25                     26                     27
                      A                      A                      A
 Frequencies --   2282.9697              3130.1540              3199.4804
 Red. masses --      5.8016                 1.0583                 1.1072
 Frc consts  --     17.8155                 6.1095                 6.6776
 IR Inten    --     79.1575                15.0674                 3.9254

                     28                     29                     30
                      A                      A                      A
 Frequencies --   3210.2459              3330.4401              3517.6198
 Red. masses --      1.0508                 1.1198                 1.1702
 Frc consts  --      6.3803                 7.3182                 8.5310
 IR Inten    --      4.5768                 2.6342                58.4769

 - Thermochemistry -
 -------------------
 Temperature   298.150 Kelvin.  Pressure   1.00000 Atm.
 Atom     1 has atomic number  6 and mass  12.00000

 Molecular mass:    97.02895 amu.
 Principal axes and moments of inertia in atomic units:
                           1         2         3
     Eigenvalues --   258.059241143.590421269.22244
           X            0.99999  -0.00270  -0.00202
           Y            0.00274   0.99987   0.01609
           Z            0.00198  -0.01609   0.99987
 This molecule is an asymmetric top.
 Rotational symmetry number  1.
 Rotational temperatures (Kelvin)      0.33564     0.07574     0.06824
 Rotational constants (GHZ):           6.99352     1.57814     1.42193
 Zero-point vibrational energy     228302.0 (Joules/Mol)
                                   54.56549 (Kcal/Mol)
 Warning -- explicit consideration of   8 degrees of freedom as
           vibrations may cause significant error
 Vibrational temperatures:    118.90   158.52   196.25   259.71   415.14
          (Kelvin)            478.03   597.31   774.05   899.05   939.60
                             1144.98  1152.50  1169.15  1240.68  1250.51
                             1362.91  1603.42  1725.02  1827.00  1906.75
                             2014.24  2142.25  2196.88  2480.73  3284.68
                             4503.59  4603.34  4618.83  4791.76  5061.07

 Zero-point correction=                           0.086956 (Hartree/Particle)
 Thermal correction to Energy=                    0.094602
 Thermal correction to Enthalpy=                  0.095546
 Thermal correction to Gibbs Free Energy=         0.054243
 Sum of electronic and zero-point Energies=           -343.520787
 Sum of electronic and thermal Energies=              -343.513140
 Sum of electronic and thermal Enthalpies=            -343.512196
 Sum of electronic and thermal Free Energies=         -343.553499

                     E (Thermal)             CV                S
                      KCal/Mol        Cal/Mol-Kelvin    Cal/Mol-Kelvin
 Total                   59.364             25.993             86.931
 Electronic               0.000              0.000              1.377
 Translational            0.889              2.981             39.628
 Rotational               0.889              2.981             27.418
 Vibrational             57.586             20.031             18.507
 Vibration     1          0.600              1.961              3.827
 Vibration     2          0.606              1.941              3.266
 Vibration     3          0.614              1.917              2.854
 Vibration     4          0.629              1.866              2.323
 Vibration     5          0.685              1.695              1.483
 Vibration     6          0.714              1.611              1.249
 Vibration     7          0.779              1.437              0.909
 Vibration     8          0.893              1.166              0.570

 Optimization completed.
    -- Stationary point found.
 Normal termination of Gaussian 16 at Sun Jun  8 18:38:48 2025.
