 Gaussian 16, Revision A.03,
 Gaussian 16:  ES64L-G16RevA.03 25-Dec-2016

 ---------------------------------------------------------
 # opt=(calcfc,tight,noeigentest) freq 6-311++g(d,p) m062x
 ---------------------------------------------------------

 -------------------
 Title Card Required
 -------------------
 Symbolic Z-matrix:
 Charge =  0 Multiplicity = 2

 SCF Done:  E(UM062X) =  -343.802698862     A.U. after   17 cycles
 SCF Done:  E(UM062X) =  -343.805734702     A.U. after   15 cycles
 SCF Done:  E(UM062X) =  -343.805762507     A.U. after   12 cycles
 SCF Done:  E(UM062X) =  -343.805762986     A.U. after   10 cycles
 SCF Done:  E(UM062X) =  -343.805762996     A.U. after    7 cycles
 SCF Done:  E(UM062X) =  -343.805762995     A.U. after    6 cycles
 SCF Done:  E(UM062X) =  -343.805762998     A.U. after    7 cycles
 SCF Done:  E(UM062X) =  -343.805762996     A.U. after    6 cycles
 Optimization completed.
    -- Stationary point found.

 1\1\GINC-AJ\FOpt\UM062X\6-311++G(d,p)\C5H5O2(2)\AAYUSH\08-Jun-2025\0\\
 # opt=(calcfc,tight,noeigentest) freq 6-311++g(d,p) m062x\\Title Card
 Required\\0,2\C,2.9885324204,-0.3816210407,0.2858507522\H,4.0098001836
 ,-0.6289451672,0.4579236575\C,1.8395163279,-0.1032838448,0.0921815985\
 C,0.4563178779,0.2884364453,-0.1421307023\O,0.0911558637,1.4278782051,
 -0.2311255601\O,-0.33316261,-0.7809032297,-0.249386394\C,-1.7448392816
 ,-0.4887084878,-0.4747123629\C,-2.4023782185,0.0346117766,0.7472721568
 \H,-2.1495764495,-1.4532943998,-0.7758457355\H,-1.8133547558,0.2185055

 Normal termination of Gaussian 16 at Sun Jun  8 23:39:19 2025.

 ----------------------------------------------------------------------
 #N Geom=AllCheck Guess=TCheck SCRF=Check GenChk UM062X/6-311++G(d,p) F
 req
 ----------------------------------------------------------------------

 Structure from the checkpoint file:  "ethyl_propiolate.chk"
 -------------------
 Title Card Required
 -------------------
 Charge =  0 Multiplicity = 2

                         Standard orientation:
 ---------------------------------------------------------------------
 Center     Atomic      Atomic             Coordinates (Angstroms)
 Number     Number       Type             X           Y           Z
 ---------------------------------------------------------------------
      1          6           0        2.993483   -0.372506    0.288461
      2          1           0        4.015075   -0.617283    0.462246
      3          6           0        1.844103   -0.097034    0.092865
      4          6           0        0.460370    0.291231   -0.144031
      5          8           0        0.093320    1.429621   -0.238549
      6          8           0       -0.327231   -0.779942   -0.246720
      7          6           0       -1.739277   -0.491208   -0.474181
      8          6           0       -2.398383    0.036695    0.744985
      9          1           0       -2.142206   -1.457878   -0.771025
     10          1           0       -1.808537    0.212018   -1.304326
     11          1           0       -2.471798    1.101825    0.907204
     12          1           0       -2.683035   -0.639179    1.539465
 ---------------------------------------------------------------------

 SCF Done:  E(UM062X) =  -343.805762996     A.U. after    1 cycles

 The electronic state is 2-A.
 Alpha  occ. eigenvalues --  -19.68540 -19.63292 -10.70647 -10.61306 -10.56959
 Alpha  occ. eigenvalues --  -10.56580 -10.56506  -1.25788  -1.16426  -0.90604
 Alpha  occ. eigenvalues --   -0.87095  -0.77620  -0.70496  -0.64504  -0.61127
 Alpha  occ. eigenvalues --   -0.58454  -0.56867  -0.54768  -0.50001  -0.48305
 Alpha  occ. eigenvalues --   -0.43705  -0.39957  -0.39420  -0.37188  -0.36229
 Alpha  occ. eigenvalues --   -0.29830
 Alpha virt. eigenvalues --   -0.01513   0.00009   0.00850   0.01733   0.02408
 Alpha virt. eigenvalues --    0.04216   0.04813   0.05239   0.06583   0.07319
 Alpha virt. eigenvalues --    0.07834   0.08853   0.09031   0.11198   0.12205

  Beta  occ. eigenvalues --  -19.68386 -19.63278 -10.70649 -10.61363 -10.56956
  Beta  occ. eigenvalues --  -10.56573 -10.55836  -1.25492  -1.16211  -0.89979
  Beta  occ. eigenvalues --   -0.86052  -0.75696  -0.69371  -0.64039  -0.61066
  Beta  occ. eigenvalues --   -0.57927  -0.56492  -0.53833  -0.49342  -0.47539
  Beta  occ. eigenvalues --   -0.43297  -0.39635  -0.39080  -0.37161  -0.36145
  Beta virt. eigenvalues --   -0.05639  -0.01461   0.00123   0.01001   0.02062
  Beta virt. eigenvalues --    0.02710   0.04262   0.05296   0.05725   0.06231
  Beta virt. eigenvalues --    0.07377   0.07522   0.08422   0.09628   0.10269

 Mulliken charges and spin densities:
               1          2
     1  C   -0.566715  -0.001170
     2  H    0.180335  -0.000233
     3  C    1.098648   0.002363
     4  C   -0.699820  -0.010966
     5  O   -0.222516   0.006170
     6  O    0.013297   0.029865
     7  C   -0.398460  -0.054676
     8  C   -0.157755   1.091802
     9  H    0.196851   0.009930
    10  H    0.215369   0.011189
    11  H    0.176847  -0.045582
    12  H    0.163919  -0.038690
 Sum of Mulliken charges =   0.00000   1.00000

 Dipole moment (field-independent basis, Debye):
    X=             -0.2362    Y=             -1.7257    Z=              0.2167  Tot=              1.7553
 Quadrupole moment (field-independent basis, Debye-Ang):
   XX=            -28.9230   YY=            -45.5234   ZZ=            -39.9594
   XY=             -1.0123   XZ=              1.3444   YZ=              0.3328

  Exact polarizability:  85.895  -5.195  52.940   2.706  -0.552  44.220
 Approx polarizability:  90.946  -9.658  67.984   5.239  -1.774  50.669

                      1                      2                      3
                      A                      A                      A
 Frequencies --     79.7044                94.9560               127.7642
 Red. masses --      3.0477                 1.3159                 2.7440
 Frc consts  --      0.0114                 0.0070                 0.0264
 IR Inten    --      3.6403                 0.3802                 1.0652

                      4                      5                      6
                      A                      A                      A
 Frequencies --    171.8727               269.6928               317.2720
 Red. masses --      3.3890                 4.3413                 3.7403
 Frc consts  --      0.0590                 0.1860                 0.2218
 IR Inten    --      5.6582                 3.5665                10.9616

                      7                      8                      9
                      A                      A                      A
 Frequencies --    405.9438               520.5986               605.3834
 Red. masses --      2.4604                 2.4001                 6.4118
 Frc consts  --      0.2389                 0.3832                 1.3845
 IR Inten    --      7.0240                16.8625                25.2467

                     10                     11                     12
                      A                      A                      A
 Frequencies --    633.2916               738.6801               769.8997
 Red. masses --      3.7903                 1.3182                 1.3401
 Frc consts  --      0.8956                 0.4238                 0.4680
 IR Inten    --     24.0610                40.4417                29.0670

                     13                     14                     15
                      A                      A                      A
 Frequencies --    790.5670               792.8679               900.6378
 Red. masses --      6.0575                 1.2507                 4.7512
 Frc consts  --      2.2306                 0.4632                 2.2707
 IR Inten    --     35.6410                 4.4099                37.4524

                     16                     17                     18
                      A                      A                      A
 Frequencies --    980.1204              1093.1601              1186.0596
 Red. masses --      8.6865                 3.1264                 1.7641
 Frc consts  --      4.9165                 2.2012                 1.4622
 IR Inten    --     40.3602                15.4009                 1.3257

                     19                     20                     21
                      A                      A                      A
 Frequencies --   1273.3162              1331.2278              1398.8921
 Red. masses --      3.6269                 1.1777                 1.4109
 Frc consts  --      3.4646                 1.2297                 1.6267
 IR Inten    --    533.8160                77.5859                60.3593

                     22                     23                     24
                      A                      A                      A
 Frequencies --   1467.0056              1501.3967              1837.4358
 Red. masses --      1.1677                 1.1414                12.2950
 Frc consts  --      1.4806                 1.5159                24.4571
 IR Inten    --      9.2167                15.0459               336.0110

                     25                     26                     27
                      A                      A                      A
 Frequencies --   2267.0120              3108.6799              3167.3732
 Red. masses --      5.7546                 1.0580                 1.1089
 Frc consts  --     17.4251                 6.0243                 6.5543
 IR Inten    --     67.9784                16.4887                 4.6708

                     28                     29                     30
                      A                      A                      A
 Frequencies --   3184.8230              3300.4097              3490.6909
 Red. masses --      1.0503                 1.1207                 1.1706
 Frc consts  --      6.2770                 7.1923                 8.4037
 IR Inten    --      3.1415                 0.9449                61.9302

 - Thermochemistry -
 -------------------
 Temperature   298.150 Kelvin.  Pressure   1.00000 Atm.
 Atom     1 has atomic number  6 and mass  12.00000

 Molecular mass:    97.02895 amu.
 Principal axes and moments of inertia in atomic units:
                           1         2         3
     Eigenvalues --   252.277441120.266281241.68123
           X            0.99999  -0.00271  -0.00201
           Y            0.00274   0.99986   0.01653
           Z            0.00196  -0.01654   0.99986
 This molecule is an asymmetric top.
 Rotational symmetry number  1.
 Rotational temperatures (Kelvin)      0.34333     0.07732     0.06976
 Rotational constants (GHZ):           7.15380     1.61099     1.45347
 Zero-point vibrational energy     226134.5 (Joules/Mol)
                                   54.04744 (Kcal/Mol)
 Warning -- explicit consideration of   9 degrees of freedom as
           vibrations may cause significant error
 Vibrational temperatures:    114.68   136.62   183.82   247.29   388.03
          (Kelvin)            456.48   584.06   749.03   871.01   911.17
                             1062.80  1107.71  1137.45  1140.76  1295.82
                             1410.17  1572.81  1706.48  1832.02  1915.34
                             2012.69  2110.69  2160.17  2643.66  3261.72
                             4472.70  4557.14  4582.25  4748.55  5022.33

 Zero-point correction=                           0.086130 (Hartree/Particle)
 Thermal correction to Energy=                    0.093967
 Thermal correction to Enthalpy=                  0.094911
 Thermal correction to Gibbs Free Energy=         0.053152
 Sum of electronic and zero-point Energies=           -343.719633
 Sum of electronic and thermal Energies=              -343.711796
 Sum of electronic and thermal Enthalpies=            -343.710852
 Sum of electronic and thermal Free Energies=         -343.752611

                     E (Thermal)             CV                S
                      KCal/Mol        Cal/Mol-Kelvin    Cal/Mol-Kelvin
 Total                   58.965             26.466             87.889
 Electronic               0.000              0.000              1.377
 Translational            0.889              2.981             39.628
 Rotational               0.889              2.981             27.353
 Vibrational             57.188             20.505             19.530
 Vibration     1          0.600              1.963              3.898
 Vibration     2          0.603              1.953              3.555
 Vibration     3          0.611              1.925              2.979
 Vibration     4          0.626              1.877              2.415
 Vibration     5          0.674              1.729              1.598
 Vibration     6          0.704              1.641              1.324
 Vibration     7          0.771              1.457              0.941
 Vibration     8          0.876              1.204              0.609
 Vibration     9          0.964              1.020              0.440

 Optimization completed.
    -- Stationary point found.

 1\1\GINC-AJ\Freq\UM062X\6-311++G(d,p)\C5H5O2(2)\AAYUSH\08-Jun-2025\0\\
 #N Geom=AllCheck Guess=TCheck SCRF=Check GenChk UM062X/6-311++G(d,p) F
 req\\Title Card Required\\0,2\C,2.9885324204,-0.3816210407,0.285850752
 2\H,4.0098001836,-0.6289451672,0.4579236575\C,1.8395163279,-0.10328384
 48,0.0921815985\C,0.4563178779,0.2884364453,-0.1421307023\O,0.09115586
 37,1.4278782051,-0.2311255601\O,-0.33316261,-0.7809032297,-0.249386394
 \C,-1.7448392816,-0.4887084878,-0.4747123629\C,-2.4023782185,0.0346117
 766,0.7472721568\H,-2.1495764495,-1.4532943998,-0.7758457355\H,-1.8133

 Normal termination of Gaussian 16 at Sun Jun  8 23:40:25 2025.
