 Gaussian 16, Revision A.03,
 Gaussian 16:  ES64L-G16RevA.03 25-Dec-2016

 --------------------------
 # ccsd(t)/6-311++g(d,p) sp
 --------------------------

 -------------------
 Title Card Required
 -------------------
 Symbolic Z-matrix:
 Charge =  0 Multiplicity = 2

                         Standard orientation:
 ---------------------------------------------------------------------
 Center     Atomic      Atomic             Coordinates (Angstroms)
 Number     Number       Type             X           Y           Z
 ---------------------------------------------------------------------
      1          6           0       -2.237736   -0.372615    0.051609
      2          1           0       -3.753485   -0.999317    0.242791
      3          6           0       -1.132278    0.105763    0.010055
      4          6           0        0.218832    0.645111    0.001188
      5          8           0        0.454941    1.820257   -0.013556
      6          8           0        1.127376   -0.325192    0.005262
      7          6           0        2.501041    0.111109   -0.011854
      8          6           0        3.359622   -1.131761   -0.001024
      9          1           0        2.659713    0.717415   -0.906021
     10          1           0        2.674338    0.743480    0.861304
     11          1           0        3.167910   -1.722214    0.895655
     12          1           0        3.151874   -1.748586   -0.876089
     13          1           0        4.413902   -0.850366   -0.014533
     14          8           0       -4.572359   -0.563635   -0.103123
     15          1           0       -4.650803    0.262506    0.388378
 ---------------------------------------------------------------------

 SCF Done:  E(UHF) =  -417.945240687     A.U. after   31 cycles
 E2 =    -0.1260011778D+01 EUMP2 =    -0.41920525246549D+03
 CCSD(T)= -0.41932541420D+03

 The electronic state is 2-A.
 Alpha  occ. eigenvalues --  -20.62181 -20.60057 -20.56788 -11.42459 -11.31998
 Alpha  occ. eigenvalues --  -11.30404 -11.26209 -11.23470  -1.49088  -1.39375
 Alpha  occ. eigenvalues --   -1.38563  -1.09583  -1.05785  -0.93132  -0.84007
 Alpha  occ. eigenvalues --   -0.78812  -0.76832  -0.70276  -0.69763  -0.66665
 Alpha  occ. eigenvalues --   -0.60473  -0.59778  -0.57661  -0.56420  -0.53948
 Alpha  occ. eigenvalues --   -0.52783  -0.52534  -0.48959  -0.47470  -0.46324
 Alpha  occ. eigenvalues --   -0.45914
 Alpha virt. eigenvalues --    0.03832   0.04786   0.05990   0.06198   0.07079
 Alpha virt. eigenvalues --    0.07777   0.08410   0.09485   0.11219   0.11707
 Alpha virt. eigenvalues --    0.12305   0.13668   0.15228   0.15323   0.15933

  Beta  occ. eigenvalues --  -20.62199 -20.58866 -20.57448 -11.41955 -11.30413
  Beta  occ. eigenvalues --  -11.28017 -11.26393 -11.23470  -1.49405  -1.39633
  Beta  occ. eigenvalues --   -1.35500  -1.08990  -1.04333  -0.91158  -0.83325
  Beta  occ. eigenvalues --   -0.77331  -0.73167  -0.70464  -0.70442  -0.61493
  Beta  occ. eigenvalues --   -0.60115  -0.59014  -0.56587  -0.53637  -0.52878
  Beta  occ. eigenvalues --   -0.51988  -0.49841  -0.48471  -0.44319  -0.43911
  Beta virt. eigenvalues --   -0.00035   0.03896   0.05997   0.06102   0.06266
  Beta virt. eigenvalues --    0.07107   0.07943   0.09365   0.10116   0.11346
  Beta virt. eigenvalues --    0.12414   0.12809   0.13702   0.15349   0.15943

 Mulliken charges and spin densities:
               1          2
     1  C   -0.605044   1.949570
     2  H    0.341210  -0.077875
     3  C    1.513514  -1.036358
     4  C   -0.906179   0.123344
     5  O   -0.288821  -0.136904
     6  O   -0.106640   0.003594
     7  C   -0.032097   0.000182
     8  C   -0.618460  -0.000628
     9  H    0.179676  -0.000147
    10  H    0.177237  -0.000013
    11  H    0.153483   0.000006
    12  H    0.154790   0.000002
    13  H    0.142075  -0.000068
    14  O   -0.377297   0.186605
    15  H    0.272555  -0.011311
 Sum of Mulliken charges =  -0.00000   1.00000

 Dipole moment (field-independent basis, Debye):
    X=              2.0936    Y=             -1.0062    Z=              1.3680  Tot=              2.6958
 Quadrupole moment (field-independent basis, Debye-Ang):
   XX=            -44.0403   YY=            -53.8796   ZZ=            -46.9248
   XY=             -5.1552   XZ=             -6.3256   YZ=             -0.1242

 264\PMP3-0=-419.2505379\MP4SDQ=-419.2592654\CCSD=-419.2709092\CCSD(T)=
 Normal termination of Gaussian 16 at Fri Apr 18 02:15:46 2025.
