 Gaussian 16, Revision A.03,
 Gaussian 16:  ES64L-G16RevA.03 25-Dec-2016

 --------------------------
 # ccsd(t)/6-311++g(d,p) sp
 --------------------------

 -------------------
 Title Card Required
 -------------------
 Symbolic Z-matrix:
 Charge =  0 Multiplicity = 2

                         Standard orientation:
 ---------------------------------------------------------------------
 Center     Atomic      Atomic             Coordinates (Angstroms)
 Number     Number       Type             X           Y           Z
 ---------------------------------------------------------------------
      1          6           0        2.244212   -0.378658   -0.056910
      2          1           0        3.625763   -0.906450   -0.162487
      3          6           0        1.138001    0.100261   -0.012436
      4          6           0       -0.214829    0.643861   -0.000276
      5          8           0       -0.450804    1.819188    0.015836
      6          8           0       -1.125892   -0.324660   -0.005925
      7          6           0       -2.499410    0.113413    0.012506
      8          6           0       -3.359882   -1.128336    0.000165
      9          1           0       -2.656900    0.718541    0.907681
     10          1           0       -2.672309    0.747302   -0.859610
     11          1           0       -3.169490   -1.717659   -0.897527
     12          1           0       -3.152634   -1.746850    0.874145
     13          1           0       -4.413738   -0.845353    0.014636
     14          8           0        4.567427   -0.572236    0.094673
     15          1           0        4.664908    0.268892   -0.371804
 ---------------------------------------------------------------------

 SCF Done:  E(UHF) =  -417.937876832     A.U. after   34 cycles
 E2 =    -0.1265639457D+01 EUMP2 =    -0.41920351628942D+03
 CCSD(T)= -0.41932333942D+03

 The electronic state is 2-A.
 Alpha  occ. eigenvalues --  -20.62132 -20.61864 -20.56761 -11.42458 -11.31656
 Alpha  occ. eigenvalues --  -11.30371 -11.26213 -11.23432  -1.49022  -1.40593
 Alpha  occ. eigenvalues --   -1.38515  -1.09362  -1.05699  -0.93068  -0.84119
 Alpha  occ. eigenvalues --   -0.80258  -0.76977  -0.70210  -0.69720  -0.67348
 Alpha  occ. eigenvalues --   -0.60427  -0.59774  -0.57153  -0.56394  -0.55509
 Alpha  occ. eigenvalues --   -0.52738  -0.52513  -0.48853  -0.47297  -0.46112
 Alpha  occ. eigenvalues --   -0.45739
 Alpha virt. eigenvalues --    0.03862   0.04740   0.06021   0.06234   0.07004
 Alpha virt. eigenvalues --    0.07906   0.08464   0.09521   0.11216   0.11762
 Alpha virt. eigenvalues --    0.12384   0.13854   0.15332   0.15391   0.15795

  Beta  occ. eigenvalues --  -20.62149 -20.59999 -20.57391 -11.41976 -11.30379
  Beta  occ. eigenvalues --  -11.27997 -11.26422 -11.23433  -1.49326  -1.39534
  Beta  occ. eigenvalues --   -1.34343  -1.08881  -1.04310  -0.91175  -0.83312
  Beta  occ. eigenvalues --   -0.77295  -0.72616  -0.70390  -0.70369  -0.61408
  Beta  occ. eigenvalues --   -0.60096  -0.58519  -0.56537  -0.53563  -0.52846
  Beta  occ. eigenvalues --   -0.52475  -0.49744  -0.48393  -0.44169  -0.43778
  Beta virt. eigenvalues --   -0.00697   0.03918   0.05872   0.06042   0.06260
  Beta virt. eigenvalues --    0.07018   0.08036   0.09381   0.10059   0.11253
  Beta virt. eigenvalues --    0.12476   0.12775   0.13818   0.15165   0.15949

 Mulliken charges and spin densities:
               1          2
     1  C   -0.644625   1.826273
     2  H    0.375412  -0.129443
     3  C    1.511922  -1.029282
     4  C   -0.922391   0.133471
     5  O   -0.289755  -0.130628
     6  O   -0.105790   0.003567
     7  C   -0.031407   0.000385
     8  C   -0.616992  -0.000575
     9  H    0.179338  -0.000138
    10  H    0.177345  -0.000009
    11  H    0.153756   0.000003
    12  H    0.154689   0.000002
    13  H    0.141914  -0.000066
    14  O   -0.354416   0.343357
    15  H    0.270999  -0.016918
 Sum of Mulliken charges =  -0.00000   1.00000

 Dipole moment (field-independent basis, Debye):
    X=             -1.8358    Y=             -0.7806    Z=             -1.1439  Tot=              2.2995
 Quadrupole moment (field-independent basis, Debye-Ang):
   XX=            -41.7183   YY=            -54.3632   ZZ=            -47.0720
   XY=              5.9352   XZ=             -5.4057   YZ=             -0.1423

 952\PMP3-0=-419.249543\MP4SDQ=-419.2575553\CCSD=-419.2682336\CCSD(T)=-
 Normal termination of Gaussian 16 at Fri Apr 18 11:45:16 2025.
