 Gaussian 16, Revision A.03,
 Gaussian 16:  ES64L-G16RevA.03 25-Dec-2016

 --------------------------
 # ccsd(t)/6-311++g(d,p) sp
 --------------------------

 -------------------
 Title Card Required
 -------------------
 Symbolic Z-matrix:
 Charge =  0 Multiplicity = 2

                         Standard orientation:
 ---------------------------------------------------------------------
 Center     Atomic      Atomic             Coordinates (Angstroms)
 Number     Number       Type             X           Y           Z
 ---------------------------------------------------------------------
      1          6           0        2.252136   -0.384501   -0.060333
      2          1           0        3.408164   -0.838420   -0.120138
      3          6           0        1.144634    0.094204   -0.014237
      4          6           0       -0.209767    0.643327    0.000459
      5          8           0       -0.446923    1.818830    0.016893
      6          8           0       -1.124206   -0.324028   -0.006217
      7          6           0       -2.497134    0.115697    0.012985
      8          6           0       -3.359437   -1.125021   -0.000048
      9          1           0       -2.653966    0.720390    0.908621
     10          1           0       -2.669940    0.750489   -0.858509
     11          1           0       -3.170038   -1.713915   -0.898246
     12          1           0       -3.152628   -1.744557    0.873336
     13          1           0       -4.412980   -0.840767    0.015012
     14          8           0        4.569795   -0.578511    0.090535
     15          1           0        4.679478    0.274215   -0.362714
 ---------------------------------------------------------------------

 SCF Done:  E(UHF) =  -417.947835245     A.U. after   40 cycles
 E2 =    -0.1269163738D+01 EUMP2 =    -0.41921699898293D+03
 CCSD(T)= -0.41932900145D+03

 The electronic state is 2-A.
 Alpha  occ. eigenvalues --  -20.68044 -20.61215 -20.55665 -11.41297 -11.29690
 Alpha  occ. eigenvalues --  -11.27183 -11.24425 -11.22899  -1.48008  -1.45538
 Alpha  occ. eigenvalues --   -1.37604  -1.07129  -1.04200  -0.91859  -0.84241
 Alpha  occ. eigenvalues --   -0.81537  -0.76075  -0.72605  -0.69351  -0.68756
 Alpha  occ. eigenvalues --   -0.61741  -0.59686  -0.59156  -0.56698  -0.55738
 Alpha  occ. eigenvalues --   -0.52036  -0.51904  -0.47602  -0.46368  -0.42511
 Alpha  occ. eigenvalues --   -0.42292
 Alpha virt. eigenvalues --    0.03818   0.04304   0.06331   0.06627   0.06844
 Alpha virt. eigenvalues --    0.08089   0.09563   0.09948   0.11588   0.12380
 Alpha virt. eigenvalues --    0.12887   0.14418   0.15511   0.15768   0.16340

  Beta  occ. eigenvalues --  -20.64389 -20.61231 -20.56054 -11.41012 -11.29695
  Beta  occ. eigenvalues --  -11.25616 -11.24477 -11.22900  -1.48199  -1.38240
  Beta  occ. eigenvalues --   -1.32205  -1.07319  -1.03296  -0.90646  -0.82668
  Beta  occ. eigenvalues --   -0.76589  -0.73733  -0.69461  -0.69184  -0.62590
  Beta  occ. eigenvalues --   -0.60287  -0.58929  -0.55870  -0.55133  -0.52580
  Beta  occ. eigenvalues --   -0.52084  -0.48302  -0.47312  -0.41666  -0.41385
  Beta virt. eigenvalues --    0.00894   0.04248   0.05408   0.06346   0.06632
  Beta virt. eigenvalues --    0.06907   0.08166   0.09717   0.10240   0.11603
  Beta virt. eigenvalues --    0.12924   0.13194   0.14395   0.15327   0.16208

 Mulliken charges and spin densities:
               1          2
     1  C   -0.780443   0.987427
     2  H    0.416354  -0.123634
     3  C    1.449308  -0.669995
     4  C   -0.923819   0.093696
     5  O   -0.304725  -0.080075
     6  O   -0.104725   0.002412
     7  C   -0.027428   0.000145
     8  C   -0.616000  -0.000187
     9  H    0.177038  -0.000095
    10  H    0.175514   0.000009
    11  H    0.153038   0.000003
    12  H    0.153661   0.000006
    13  H    0.139719  -0.000046
    14  O   -0.186183   0.824588
    15  H    0.278691  -0.034253
 Sum of Mulliken charges =  -0.00000   1.00000

 Dipole moment (field-independent basis, Debye):
    X=              0.3782    Y=             -0.8224    Z=             -0.9425  Tot=              1.3068
 Quadrupole moment (field-independent basis, Debye-Ang):
   XX=            -27.5519   YY=            -55.1053   ZZ=            -47.4212
   XY=              5.0874   XZ=             -4.6697   YZ=             -0.3413

 Normal termination of Gaussian 16 at Fri Apr 18 01:14:31 2025.
