 Gaussian 16, Revision A.03,
 Gaussian 16:  ES64L-G16RevA.03 25-Dec-2016

 --------------------------
 # ccsd(t)/6-311++g(d,p) sp
 --------------------------

 -------------------
 Title Card Required
 -------------------
 Symbolic Z-matrix:
 Charge =  0 Multiplicity = 2

                         Standard orientation:
 ---------------------------------------------------------------------
 Center     Atomic      Atomic             Coordinates (Angstroms)
 Number     Number       Type             X           Y           Z
 ---------------------------------------------------------------------
      1          6           0        2.252518   -0.384895   -0.060514
      2          1           0        3.381864   -0.836401   -0.119831
      3          6           0        1.145179    0.093768   -0.014332
      4          6           0       -0.209279    0.643331    0.000506
      5          8           0       -0.446586    1.818849    0.016908
      6          8           0       -1.124021   -0.323962   -0.006207
      7          6           0       -2.496883    0.115885    0.013023
      8          6           0       -3.359323   -1.124758   -0.000008
      9          1           0       -2.653687    0.720590    0.908661
     10          1           0       -2.669694    0.750710   -0.858450
     11          1           0       -3.169988   -1.713662   -0.898215
     12          1           0       -3.152546   -1.744329    0.873360
     13          1           0       -4.412848   -0.840419    0.015074
     14          8           0        4.570960   -0.578776    0.090506
     15          1           0        4.680798    0.274630   -0.362306
 ---------------------------------------------------------------------

 SCF Done:  E(UHF) =  -417.951637129     A.U. after   40 cycles
 E2 =    -0.1268777567D+01 EUMP2 =    -0.41922041469596D+03
 CCSD(T)= -0.41933077650D+03

 The electronic state is 2-A.
 Alpha  occ. eigenvalues --  -20.68080 -20.61207 -20.55657 -11.41281 -11.29680
 Alpha  occ. eigenvalues --  -11.26878 -11.24458 -11.22890  -1.47996  -1.45491
 Alpha  occ. eigenvalues --   -1.37610  -1.07098  -1.04132  -0.91833  -0.84246
 Alpha  occ. eigenvalues --   -0.81465  -0.76046  -0.72712  -0.69339  -0.68753
 Alpha  occ. eigenvalues --   -0.61880  -0.59691  -0.59182  -0.56913  -0.55741
 Alpha  occ. eigenvalues --   -0.52027  -0.51915  -0.47613  -0.46393  -0.42316
 Alpha  occ. eigenvalues --   -0.42110
 Alpha virt. eigenvalues --    0.03797   0.04307   0.06333   0.06635   0.06832
 Alpha virt. eigenvalues --    0.08104   0.09563   0.09960   0.11590   0.12417
 Alpha virt. eigenvalues --    0.12898   0.14434   0.15469   0.15793   0.16369

  Beta  occ. eigenvalues --  -20.64322 -20.61221 -20.56013 -11.41022 -11.29684
  Beta  occ. eigenvalues --  -11.25554 -11.24455 -11.22891  -1.48170  -1.38190
  Beta  occ. eigenvalues --   -1.31718  -1.07278  -1.03307  -0.90708  -0.82702
  Beta  occ. eigenvalues --   -0.76620  -0.73627  -0.69439  -0.69144  -0.63145
  Beta  occ. eigenvalues --   -0.60241  -0.58907  -0.55855  -0.55263  -0.52535
  Beta  occ. eigenvalues --   -0.52071  -0.48252  -0.47259  -0.41578  -0.41323
  Beta virt. eigenvalues --    0.01259   0.04255   0.05513   0.06347   0.06639
  Beta virt. eigenvalues --    0.06890   0.08182   0.09711   0.10212   0.11623
  Beta virt. eigenvalues --    0.12934   0.13166   0.14420   0.15357   0.16201

 Mulliken charges and spin densities:
               1          2
     1  C   -0.783665   0.888552
     2  H    0.409980  -0.111982
     3  C    1.454815  -0.612390
     4  C   -0.925250   0.086831
     5  O   -0.305396  -0.073197
     6  O   -0.104722   0.002245
     7  C   -0.027434   0.000141
     8  C   -0.615745  -0.000154
     9  H    0.177029  -0.000091
    10  H    0.175524   0.000010
    11  H    0.153034   0.000002
    12  H    0.153649   0.000006
    13  H    0.139680  -0.000042
    14  O   -0.179622   0.855236
    15  H    0.278121  -0.035168
 Sum of Mulliken charges =  -0.00000   1.00000

 Dipole moment (field-independent basis, Debye):
    X=              0.4247    Y=             -0.8244    Z=             -0.9372  Tot=              1.3185
 Quadrupole moment (field-independent basis, Debye-Ang):
   XX=            -27.2144   YY=            -55.1226   ZZ=            -47.4299
   XY=              5.0565   XZ=             -4.6572   YZ=             -0.3449

 8162\PMP3-0=-419.2548799\MP4SDQ=-419.2730208\CCSD=-419.276422\CCSD(T)=
 Normal termination of Gaussian 16 at Sun Apr 20 04:55:31 2025.
