 Gaussian 16, Revision A.03,
 Gaussian 16:  ES64L-G16RevA.03 25-Dec-2016

 --------------------------
 # ccsd(t)/6-311++g(d,p) sp
 --------------------------

 -------------------
 Title Card Required
 -------------------
 Symbolic Z-matrix:
 Charge =  0 Multiplicity = 2

                         Standard orientation:
 ---------------------------------------------------------------------
 Center     Atomic      Atomic             Coordinates (Angstroms)
 Number     Number       Type             X           Y           Z
 ---------------------------------------------------------------------
      1          6           0        2.240184   -0.375257   -0.054081
      2          1           0        3.700834   -0.958859   -0.206130
      3          6           0        1.134583    0.103609   -0.011075
      4          6           0       -0.217219    0.644493   -0.000801
      5          8           0       -0.453039    1.819736    0.014670
      6          8           0       -1.126693   -0.324968   -0.005564
      7          6           0       -2.500348    0.112115    0.012170
      8          6           0       -3.359742   -1.130258    0.000603
      9          1           0       -2.658436    0.717838    0.906827
     10          1           0       -2.673420    0.745201   -0.860502
     11          1           0       -3.168642   -1.720155   -0.896563
     12          1           0       -3.152217   -1.747878    0.875155
     13          1           0       -4.413826   -0.848139    0.014573
     14          8           0        4.570293   -0.567471    0.099214
     15          1           0        4.656469    0.265402   -0.380820
 ---------------------------------------------------------------------

 SCF Done:  E(UHF) =  -417.942256107     A.U. after   34 cycles
 E2 =    -0.1261924235D+01 EUMP2 =    -0.41920418034160D+03
 CCSD(T)= -0.41932436617D+03

 The electronic state is 2-A.
 Alpha  occ. eigenvalues --  -20.62210 -20.60499 -20.56832 -11.42517 -11.32013
 Alpha  occ. eigenvalues --  -11.30427 -11.26315 -11.23482  -1.49116  -1.39695
 Alpha  occ. eigenvalues --   -1.38595  -1.09607  -1.05804  -0.93165  -0.84084
 Alpha  occ. eigenvalues --   -0.79401  -0.76968  -0.70294  -0.69793  -0.66803
 Alpha  occ. eigenvalues --   -0.60495  -0.59802  -0.57349  -0.56431  -0.54429
 Alpha  occ. eigenvalues --   -0.52802  -0.52561  -0.48992  -0.47482  -0.46347
 Alpha  occ. eigenvalues --   -0.45957
 Alpha virt. eigenvalues --    0.03830   0.04804   0.05986   0.06193   0.07047
 Alpha virt. eigenvalues --    0.07835   0.08369   0.09482   0.11198   0.11704
 Alpha virt. eigenvalues --    0.12315   0.13726   0.15251   0.15314   0.15894

  Beta  occ. eigenvalues --  -20.62227 -20.59103 -20.57485 -11.42017 -11.30435
  Beta  occ. eigenvalues --  -11.28124 -11.26502 -11.23483  -1.49430  -1.39651
  Beta  occ. eigenvalues --   -1.35092  -1.09022  -1.04378  -0.91209  -0.83363
  Beta  occ. eigenvalues --   -0.77368  -0.72936  -0.70486  -0.70461  -0.61508
  Beta  occ. eigenvalues --   -0.60142  -0.58777  -0.56599  -0.53648  -0.52895
  Beta  occ. eigenvalues --   -0.52097  -0.49866  -0.48486  -0.44366  -0.43964
  Beta virt. eigenvalues --   -0.00335   0.03889   0.05986   0.06050   0.06241
  Beta virt. eigenvalues --    0.07064   0.07992   0.09352   0.10072   0.11287
  Beta virt. eigenvalues --    0.12420   0.12762   0.13725   0.15262   0.15924

 Mulliken charges and spin densities:
               1          2
     1  C   -0.616885   1.919926
     2  H    0.355398  -0.095723
     3  C    1.512628  -1.042249
     4  C   -0.910372   0.129375
     5  O   -0.288581  -0.135445
     6  O   -0.106282   0.003619
     7  C   -0.031912   0.000303
     8  C   -0.617824  -0.000613
     9  H    0.179673  -0.000145
    10  H    0.177409  -0.000012
    11  H    0.153656   0.000005
    12  H    0.154801   0.000001
    13  H    0.142125  -0.000067
    14  O   -0.375217   0.233919
    15  H    0.271383  -0.012896
 Sum of Mulliken charges =  -0.00000   1.00000

 Dipole moment (field-independent basis, Debye):
    X=             -2.0920    Y=             -0.8995    Z=             -1.2723  Tot=              2.6086
 Quadrupole moment (field-independent basis, Debye-Ang):
   XX=            -43.7142   YY=            -54.0715   ZZ=            -46.9824
   XY=              5.5662   XZ=             -5.9274   YZ=              0.0033

 517\PMP3-0=-419.2497282\MP4SDQ=-419.2581742\CCSD=-419.2696249\CCSD(T)=
 Normal termination of Gaussian 16 at Sun Apr 20 05:58:33 2025.
