 Gaussian 16, Revision A.03,
 Gaussian 16:  ES64L-G16RevA.03 25-Dec-2016

 --------------------------
 # ccsd(t)/6-311++g(d,p) sp
 --------------------------

 -------------------
 Title Card Required
 -------------------
 Symbolic Z-matrix:
 Charge =  0 Multiplicity = 2

                         Standard orientation:
 ---------------------------------------------------------------------
 Center     Atomic      Atomic             Coordinates (Angstroms)
 Number     Number       Type             X           Y           Z
 ---------------------------------------------------------------------
      1          6           0        2.245270   -0.379450   -0.057667
      2          1           0        3.605031   -0.894409   -0.153649
      3          6           0        1.138865    0.099417   -0.012791
      4          6           0       -0.214211    0.643735   -0.000061
      5          8           0       -0.450285    1.819081    0.016348
      6          8           0       -1.125704   -0.324581   -0.005987
      7          6           0       -2.499168    0.113723    0.012713
      8          6           0       -3.359894   -1.127879    0.000103
      9          1           0       -2.656505    0.718650    0.908047
     10          1           0       -2.672084    0.747848   -0.859230
     11          1           0       -3.169684   -1.717025   -0.897742
     12          1           0       -3.152669   -1.746668    0.873904
     13          1           0       -4.413711   -0.844729    0.014765
     14          8           0        4.566918   -0.573332    0.093421
     15          1           0        4.667014    0.269716   -0.370152
 ---------------------------------------------------------------------

 SCF Done:  E(UHF) =  -417.936876605     A.U. after   33 cycles
 E2 =    -0.1266733505D+01 EUMP2 =    -0.41920361010984D+03
 CCSD(T)= -0.41932320959D+03

 The electronic state is 2-A.
 Alpha  occ. eigenvalues --  -20.62461 -20.62071 -20.56692 -11.42390 -11.31416
 Alpha  occ. eigenvalues --  -11.30326 -11.26094 -11.23397  -1.48953  -1.41015
 Alpha  occ. eigenvalues --   -1.38452  -1.09197  -1.05623  -0.92991  -0.84103
 Alpha  occ. eigenvalues --   -0.80489  -0.76934  -0.70150  -0.69661  -0.67659
 Alpha  occ. eigenvalues --   -0.60375  -0.59743  -0.57194  -0.56402  -0.55888
 Alpha  occ. eigenvalues --   -0.52690  -0.52470  -0.48754  -0.47190  -0.45936
 Alpha  occ. eigenvalues --   -0.45567
 Alpha virt. eigenvalues --    0.03883   0.04693   0.06044   0.06261   0.06992
 Alpha virt. eigenvalues --    0.07921   0.08544   0.09547   0.11239   0.11799
 Alpha virt. eigenvalues --    0.12422   0.13904   0.15361   0.15455   0.15776

  Beta  occ. eigenvalues --  -20.62088 -20.60420 -20.57311 -11.41917 -11.30334
  Beta  occ. eigenvalues --  -11.27859 -11.26311 -11.23397  -1.49252  -1.39453
  Beta  occ. eigenvalues --   -1.34137  -1.08778  -1.04247  -0.91131  -0.83262
  Beta  occ. eigenvalues --   -0.77235  -0.72605  -0.70323  -0.70301  -0.61339
  Beta  occ. eigenvalues --   -0.60057  -0.58511  -0.56492  -0.53504  -0.52844
  Beta  occ. eigenvalues --   -0.52621  -0.49654  -0.48328  -0.44020  -0.43633
  Beta virt. eigenvalues --   -0.00754   0.03940   0.05807   0.06063   0.06283
  Beta virt. eigenvalues --    0.07010   0.08042   0.09405   0.10072   0.11263
  Beta virt. eigenvalues --    0.12508   0.12805   0.13862   0.15153   0.15972

 Mulliken charges and spin densities:
               1          2
     1  C   -0.656157   1.782651
     2  H    0.380891  -0.139804
     3  C    1.509667  -1.017818
     4  C   -0.925630   0.132972
     5  O   -0.290637  -0.128294
     6  O   -0.105670   0.003522
     7  C   -0.031119   0.000375
     8  C   -0.616833  -0.000556
     9  H    0.179154  -0.000135
    10  H    0.177229  -0.000008
    11  H    0.153737   0.000003
    12  H    0.154617   0.000002
    13  H    0.141764  -0.000065
    14  O   -0.342483   0.385693
    15  H    0.271469  -0.018538
 Sum of Mulliken charges =  -0.00000   1.00000

 Dipole moment (field-independent basis, Debye):
    X=             -1.6799    Y=             -0.7606    Z=             -1.1116  Tot=              2.1532
 Quadrupole moment (field-independent basis, Debye-Ang):
   XX=            -40.6590   YY=            -54.4496   ZZ=            -47.1012
   XY=              5.9631   XZ=             -5.2762   YZ=             -0.1773

 34\PMP3-0=-419.2497203\MP4SDQ=-419.2577086\CCSD=-419.2680187\CCSD(T)=-
 Normal termination of Gaussian 16 at Fri Apr 18 23:23:37 2025.
