 Gaussian 16, Revision A.03,
 Gaussian 16:  ES64L-G16RevA.03 25-Dec-2016

 --------------------------
 # ccsd(t)/6-311++g(d,p) sp
 --------------------------

 -------------------
 Title Card Required
 -------------------
 Symbolic Z-matrix:
 Charge =  0 Multiplicity = 2

                         Standard orientation:
 ---------------------------------------------------------------------
 Center     Atomic      Atomic             Coordinates (Angstroms)
 Number     Number       Type             X           Y           Z
 ---------------------------------------------------------------------
      1          6           0        2.252772   -0.385513   -0.060840
      2          1           0        3.329381   -0.834880   -0.120397
      3          6           0        1.146197    0.092960   -0.014505
      4          6           0       -0.208304    0.643369    0.000594
      5          8           0       -0.445951    1.818905    0.016906
      6          8           0       -1.123643   -0.323829   -0.006172
      7          6           0       -2.496382    0.116240    0.013099
      8          6           0       -3.359079   -1.124270    0.000096
      9          1           0       -2.653149    0.720990    0.908726
     10          1           0       -2.669215    0.751103   -0.858348
     11          1           0       -3.169854   -1.713212   -0.898114
     12          1           0       -3.152359   -1.743889    0.873450
     13          1           0       -4.412570   -0.839780    0.015214
     14          8           0        4.573709   -0.579131    0.090552
     15          1           0        4.683618    0.275399   -0.361483
 ---------------------------------------------------------------------

 SCF Done:  E(UHF) =  -417.959308578     A.U. after   42 cycles
 E2 =    -0.1267875947D+01 EUMP2 =    -0.41922718452546D+03
 CCSD(T)= -0.41933447929D+03

 The electronic state is 2-A.
 Alpha  occ. eigenvalues --  -20.67873 -20.61242 -20.55711 -11.41316 -11.29699
 Alpha  occ. eigenvalues --  -11.26443 -11.24640 -11.22903  -1.48029  -1.45116
 Alpha  occ. eigenvalues --   -1.37681  -1.07148  -1.04100  -0.91850  -0.84243
 Alpha  occ. eigenvalues --   -0.81298  -0.76037  -0.72615  -0.69363  -0.68805
 Alpha  occ. eigenvalues --   -0.61918  -0.59747  -0.59315  -0.57484  -0.55776
 Alpha  occ. eigenvalues --   -0.52049  -0.51979  -0.47709  -0.46491  -0.42125
 Alpha  occ. eigenvalues --   -0.41938
 Alpha virt. eigenvalues --    0.03792   0.04304   0.06322   0.06630   0.06812
 Alpha virt. eigenvalues --    0.08126   0.09518   0.09955   0.11574   0.12458
 Alpha virt. eigenvalues --    0.12896   0.14444   0.15389   0.15825   0.16389

  Beta  occ. eigenvalues --  -20.63967 -20.61254 -20.56003 -11.41105 -11.29702
  Beta  occ. eigenvalues --  -11.25551 -11.24506 -11.22903  -1.48171  -1.38155
  Beta  occ. eigenvalues --   -1.30692  -1.07280  -1.03408  -0.90888  -0.82825
  Beta  occ. eigenvalues --   -0.76742  -0.73411  -0.69444  -0.69124  -0.64149
  Beta  occ. eigenvalues --   -0.60200  -0.58904  -0.55859  -0.55312  -0.52489
  Beta  occ. eigenvalues --   -0.52084  -0.48223  -0.47203  -0.41547  -0.41347
  Beta virt. eigenvalues --    0.01906   0.04250   0.05811   0.06332   0.06635
  Beta virt. eigenvalues --    0.06855   0.08204   0.09670   0.10140   0.11646
  Beta virt. eigenvalues --    0.12926   0.13086   0.14446   0.15420   0.16175

 Mulliken charges and spin densities:
               1          2
     1  C   -0.781676   0.712781
     2  H    0.390485  -0.090650
     3  C    1.473415  -0.501274
     4  C   -0.930089   0.072951
     5  O   -0.305991  -0.060123
     6  O   -0.104849   0.001918
     7  C   -0.027669   0.000126
     8  C   -0.615204  -0.000101
     9  H    0.177138  -0.000082
    10  H    0.175659   0.000012
    11  H    0.153074   0.000001
    12  H    0.153679   0.000006
    13  H    0.139724  -0.000035
    14  O   -0.174132   0.900932
    15  H    0.276437  -0.036463
 Sum of Mulliken charges =  -0.00000   1.00000

 Dipole moment (field-independent basis, Debye):
    X=              0.3994    Y=             -0.8180    Z=             -0.9290  Tot=              1.3007
 Quadrupole moment (field-independent basis, Debye-Ang):
   XX=            -27.2464   YY=            -55.1239   ZZ=            -47.4248
   XY=              5.0736   XZ=             -4.6307   YZ=             -0.3493

 Normal termination of Gaussian 16 at Sun Apr 20 02:49:53 2025.
