 Gaussian 16, Revision A.03,
 Gaussian 16:  ES64L-G16RevA.03 25-Dec-2016

 --------------------------
 # ccsd(t)/6-311++g(d,p) sp
 --------------------------

 -------------------
 Title Card Required
 -------------------
 Symbolic Z-matrix:
 Charge =  0 Multiplicity = 2

                         Standard orientation:
 ---------------------------------------------------------------------
 Center     Atomic      Atomic             Coordinates (Angstroms)
 Number     Number       Type             X           Y           Z
 ---------------------------------------------------------------------
      1          6           0        3.341329   -0.483763   -0.443043
      2          1           0        4.334604   -0.748348   -0.721547
      3          6           0        2.223988   -0.187442   -0.129433
      4          6           0        0.883256    0.214429    0.263099
      5          8           0        0.624651    1.268514    0.783144
      6          8           0       -0.006584   -0.732161   -0.023601
      7          6           0       -1.359164   -0.471095    0.364969
      8          6           0       -2.229312   -1.605038   -0.100987
      9          1           0       -1.397929   -0.288195    1.440617
     10          1           0       -1.702226    0.450115   -0.146576
     11          1           0       -2.150490   -1.721845   -1.182379
     12          1           0       -1.944583   -2.543326    0.378028
     13          1           0       -3.267757   -1.383220    0.149563
     14          8           0       -1.856500    1.863075   -0.694123
     15          1           0       -1.124732    2.236863   -0.168695
 ---------------------------------------------------------------------

 SCF Done:  E(UHF) =  -417.987525005     A.U. after   30 cycles
 E2 =    -0.1267041436D+01 EUMP2 =    -0.41925456644097D+03
 CCSD(T)= -0.41935644107D+03

 The electronic state is 2-A.
 Alpha  occ. eigenvalues --  -20.62940 -20.62358 -20.57459 -11.42939 -11.29656
 Alpha  occ. eigenvalues --  -11.27401 -11.26615 -11.22834  -1.49549  -1.39398
 Alpha  occ. eigenvalues --   -1.39060  -1.08770  -1.04969  -0.92739  -0.84491
 Alpha  occ. eigenvalues --   -0.78590  -0.73559  -0.72546  -0.70754  -0.68353
 Alpha  occ. eigenvalues --   -0.65316  -0.60124  -0.59747  -0.56178  -0.55759
 Alpha  occ. eigenvalues --   -0.52922  -0.51300  -0.49641  -0.45752  -0.43340
 Alpha  occ. eigenvalues --   -0.43251
 Alpha virt. eigenvalues --    0.03658   0.04563   0.06276   0.06889   0.07650
 Alpha virt. eigenvalues --    0.07781   0.09107   0.10186   0.11140   0.11652
 Alpha virt. eigenvalues --    0.12100   0.14003   0.14957   0.15518   0.16410

  Beta  occ. eigenvalues --  -20.62353 -20.58925 -20.57438 -11.42948 -11.29141
  Beta  occ. eigenvalues --  -11.27410 -11.26607 -11.22856  -1.49477  -1.39314
  Beta  occ. eigenvalues --   -1.23979  -1.08534  -1.04488  -0.92698  -0.83392
  Beta  occ. eigenvalues --   -0.78057  -0.73462  -0.70568  -0.69890  -0.64724
  Beta  occ. eigenvalues --   -0.60198  -0.59395  -0.56084  -0.52774  -0.51854
  Beta  occ. eigenvalues --   -0.50765  -0.49615  -0.47310  -0.43331  -0.43279
  Beta virt. eigenvalues --    0.03652   0.04555   0.05862   0.06354   0.07380
  Beta virt. eigenvalues --    0.07741   0.08277   0.10058   0.10812   0.11166
  Beta virt. eigenvalues --    0.11832   0.12387   0.14056   0.15001   0.15529

 Mulliken charges and spin densities:
               1          2
     1  C   -0.803677  -0.005309
     2  H    0.205294   0.000366
     3  C    1.528897   0.001905
     4  C   -0.638888  -0.005189
     5  O   -0.344689   0.004311
     6  O   -0.091871  -0.004251
     7  C   -0.217768   0.166252
     8  C   -0.579416  -0.008851
     9  H    0.196441  -0.008257
    10  H    0.260589  -0.062737
    11  H    0.165579   0.001051
    12  H    0.151005   0.007701
    13  H    0.148205   0.000494
    14  O   -0.258285   0.941106
    15  H    0.278584  -0.028592
 Sum of Mulliken charges =  -0.00000   1.00000

 Dipole moment (field-independent basis, Debye):
    X=              1.1535    Y=             -1.6384    Z=              0.0526  Tot=              2.0044
 Quadrupole moment (field-independent basis, Debye-Ang):
   XX=            -37.8193   YY=            -49.1725   ZZ=            -49.2067
   XY=             -0.4178   XZ=             -5.2322   YZ=             -0.8898

 Normal termination of Gaussian 16 at Tue Apr 15 11:37:21 2025.
