 Gaussian 16, Revision A.03,
 Gaussian 16:  ES64L-G16RevA.03 25-Dec-2016

 --------------------------
 # ccsd(t)/6-311++g(d,p) sp
 --------------------------

 -------------------
 Title Card Required
 -------------------
 Symbolic Z-matrix:
 Charge =  0 Multiplicity = 2

                         Standard orientation:
 ---------------------------------------------------------------------
 Center     Atomic      Atomic             Coordinates (Angstroms)
 Number     Number       Type             X           Y           Z
 ---------------------------------------------------------------------
      1          6           0        2.252752   -0.385240   -0.060680
      2          1           0        3.355578   -0.835158   -0.119944
      3          6           0        1.145698    0.093356   -0.014420
      4          6           0       -0.208794    0.643344    0.000550
      5          8           0       -0.446261    1.818874    0.016913
      6          8           0       -1.123832   -0.323896   -0.006192
      7          6           0       -2.496632    0.116067    0.013061
      8          6           0       -3.359204   -1.124508    0.000039
      9          1           0       -2.653416    0.720791    0.908695
     10          1           0       -2.669453    0.750914   -0.858397
     11          1           0       -3.169925   -1.713428   -0.898172
     12          1           0       -3.152458   -1.744106    0.873398
     13          1           0       -4.412712   -0.840090    0.015141
     14          8           0        4.572256   -0.578984    0.090514
     15          1           0        4.682165    0.275015   -0.361904
 ---------------------------------------------------------------------

 SCF Done:  E(UHF) =  -417.955511058     A.U. after   42 cycles
 E2 =    -0.1268344573D+01 EUMP2 =    -0.41922385563066D+03
 CCSD(T)= -0.41933263600D+03

 The electronic state is 2-A.
 Alpha  occ. eigenvalues --  -20.68010 -20.61218 -20.55675 -11.41290 -11.29684
 Alpha  occ. eigenvalues --  -11.26639 -11.24536 -11.22893  -1.48005  -1.45339
 Alpha  occ. eigenvalues --   -1.37638  -1.07108  -1.04102  -0.91832  -0.84244
 Alpha  occ. eigenvalues --   -0.81384  -0.76036  -0.72703  -0.69345  -0.68772
 Alpha  occ. eigenvalues --   -0.61924  -0.59713  -0.59237  -0.57186  -0.55755
 Alpha  occ. eigenvalues --   -0.52033  -0.51942  -0.47652  -0.46436  -0.42193
 Alpha  occ. eigenvalues --   -0.41998
 Alpha virt. eigenvalues --    0.03790   0.04307   0.06329   0.06635   0.06822
 Alpha virt. eigenvalues --    0.08116   0.09546   0.09961   0.11584   0.12442
 Alpha virt. eigenvalues --    0.12900   0.14442   0.15428   0.15811   0.16384

  Beta  occ. eigenvalues --  -20.64170 -20.61231 -20.55999 -11.41056 -11.29688
  Beta  occ. eigenvalues --  -11.25539 -11.24471 -11.22893  -1.48163  -1.38165
  Beta  occ. eigenvalues --   -1.31207  -1.07268  -1.03347  -0.90791  -0.82757
  Beta  occ. eigenvalues --   -0.76673  -0.73509  -0.69436  -0.69126  -0.63667
  Beta  occ. eigenvalues --   -0.60214  -0.58899  -0.55853  -0.55321  -0.52506
  Beta  occ. eigenvalues --   -0.52072  -0.48229  -0.47225  -0.41543  -0.41315
  Beta virt. eigenvalues --    0.01599   0.04255   0.05651   0.06342   0.06640
  Beta virt. eigenvalues --    0.06873   0.08195   0.09694   0.10177   0.11637
  Beta virt. eigenvalues --    0.12934   0.13128   0.14436   0.15388   0.16189

 Mulliken charges and spin densities:
               1          2
     1  C   -0.783882   0.797553
     2  H    0.401098  -0.100964
     3  C    1.463242  -0.556346
     4  C   -0.927396   0.079950
     5  O   -0.305791  -0.066586
     6  O   -0.104762   0.002081
     7  C   -0.027527   0.000135
     8  C   -0.615471  -0.000125
     9  H    0.177068  -0.000086
    10  H    0.175577   0.000011
    11  H    0.153048   0.000002
    12  H    0.153657   0.000006
    13  H    0.139687  -0.000038
    14  O   -0.175884   0.880296
    15  H    0.277335  -0.035888
 Sum of Mulliken charges =  -0.00000   1.00000

 Dipole moment (field-independent basis, Debye):
    X=              0.4270    Y=             -0.8224    Z=             -0.9329  Tot=              1.3149
 Quadrupole moment (field-independent basis, Debye-Ang):
   XX=            -27.1407   YY=            -55.1281   ZZ=            -47.4304
   XY=              5.0551   XZ=             -4.6447   YZ=             -0.3474

 2\PMP3-0=-419.2570017\MP4SDQ=-419.2760015\CCSD=-419.2785588\CCSD(T)=-4
 Normal termination of Gaussian 16 at Thu Apr 17 23:07:21 2025.
