 Gaussian 16, Revision A.03,
 Gaussian 16:  ES64L-G16RevA.03 25-Dec-2016

 --------------------------
 # ccsd(t)/6-311++g(d,p) sp
 --------------------------

 -------------------
 Title Card Required
 -------------------
 Symbolic Z-matrix:
 Charge =  0 Multiplicity = 2

                         Standard orientation:
 ---------------------------------------------------------------------
 Center     Atomic      Atomic             Coordinates (Angstroms)
 Number     Number       Type             X           Y           Z
 ---------------------------------------------------------------------
      1          6           0        3.341032   -0.488697   -0.440210
      2          1           0        4.334296   -0.755086   -0.717114
      3          6           0        2.223669   -0.190534   -0.128565
      4          6           0        0.884909    0.216858    0.262367
      5          8           0        0.627375    1.273008    0.776568
      6          8           0       -0.010301   -0.729042   -0.019370
      7          6           0       -1.358186   -0.455854    0.360414
      8          6           0       -2.231177   -1.592818   -0.091986
      9          1           0       -1.403433   -0.245590    1.430967
     10          1           0       -1.695733    0.484201   -0.173737
     11          1           0       -2.151818   -1.725631   -1.171402
     12          1           0       -1.940910   -2.523303    0.400148
     13          1           0       -3.269688   -1.372078    0.157940
     14          8           0       -1.854817    1.828064   -0.697121
     15          1           0       -1.132246    2.227515   -0.179537
 ---------------------------------------------------------------------

 SCF Done:  E(UHF) =  -417.982170688     A.U. after   36 cycles
 E2 =    -0.1270515900D+01 EUMP2 =    -0.41925268658849D+03
 CCSD(T)= -0.41935525461D+03

 The electronic state is 2-A.
 Alpha  occ. eigenvalues --  -20.62781 -20.62395 -20.57506 -11.42954 -11.29854
 Alpha  occ. eigenvalues --  -11.27444 -11.26649 -11.22852  -1.49634  -1.39490
 Alpha  occ. eigenvalues --   -1.39129  -1.08810  -1.04958  -0.92788  -0.84553
 Alpha  occ. eigenvalues --   -0.78711  -0.73614  -0.72837  -0.70800  -0.68391
 Alpha  occ. eigenvalues --   -0.65198  -0.60138  -0.59621  -0.56243  -0.55677
 Alpha  occ. eigenvalues --   -0.52968  -0.51213  -0.49669  -0.44984  -0.43352
 Alpha  occ. eigenvalues --   -0.43236
 Alpha virt. eigenvalues --    0.03648   0.04568   0.06270   0.06898   0.07634
 Alpha virt. eigenvalues --    0.07775   0.09128   0.10168   0.11106   0.11644
 Alpha virt. eigenvalues --    0.12092   0.13970   0.15042   0.15516   0.16389

  Beta  occ. eigenvalues --  -20.62385 -20.58828 -20.57481 -11.42964 -11.29179
  Beta  occ. eigenvalues --  -11.27454 -11.26641 -11.22883  -1.49534  -1.39387
  Beta  occ. eigenvalues --   -1.24454  -1.08527  -1.04335  -0.92735  -0.83188
  Beta  occ. eigenvalues --   -0.78061  -0.73504  -0.70583  -0.69700  -0.64960
  Beta  occ. eigenvalues --   -0.60119  -0.59230  -0.56134  -0.52780  -0.51743
  Beta  occ. eigenvalues --   -0.50766  -0.49639  -0.47029  -0.43346  -0.43324
  Beta virt. eigenvalues --    0.03641   0.04548   0.05756   0.06340   0.07378
  Beta virt. eigenvalues --    0.07727   0.08259   0.10021   0.10713   0.11152
  Beta virt. eigenvalues --    0.11828   0.12413   0.14018   0.15086   0.15534

 Mulliken charges and spin densities:
               1          2
     1  C   -0.812770  -0.005659
     2  H    0.205218   0.000380
     3  C    1.545891   0.003353
     4  C   -0.637558  -0.003308
     5  O   -0.343926   0.005086
     6  O   -0.087922  -0.005688
     7  C   -0.232687   0.217188
     8  C   -0.583723  -0.014441
     9  H    0.199317  -0.010591
    10  H    0.270750  -0.085639
    11  H    0.166412   0.001675
    12  H    0.151438   0.010497
    13  H    0.148439   0.000691
    14  O   -0.267386   0.913721
    15  H    0.278506  -0.027265
 Sum of Mulliken charges =  -0.00000   1.00000

 Dipole moment (field-independent basis, Debye):
    X=              1.1897    Y=             -1.6438    Z=              0.0684  Tot=              2.0303
 Quadrupole moment (field-independent basis, Debye-Ang):
   XX=            -37.7848   YY=            -49.1845   ZZ=            -49.2042
   XY=             -0.4750   XZ=             -5.2467   YZ=             -0.8310

 59\PMP3-0=-419.2797051\MP4SDQ=-419.3023772\CCSD=-419.3017843\CCSD(T)=-
 Normal termination of Gaussian 16 at Tue Apr 15 10:54:29 2025.
