 Gaussian 16, Revision A.03,
 Gaussian 16:  ES64L-G16RevA.03 25-Dec-2016

 --------------------------
 # ccsd(t)/6-311++g(d,p) sp
 --------------------------

 -------------------
 Title Card Required
 -------------------
 Symbolic Z-matrix:
 Charge =  0 Multiplicity = 2

                         Standard orientation:
 ---------------------------------------------------------------------
 Center     Atomic      Atomic             Coordinates (Angstroms)
 Number     Number       Type             X           Y           Z
 ---------------------------------------------------------------------
      1          6           0        2.251621   -0.384057   -0.060128
      2          1           0        3.434421   -0.841257   -0.120963
      3          6           0        1.144065    0.094666   -0.014134
      4          6           0       -0.210261    0.643332    0.000410
      5          8           0       -0.447275    1.818817    0.016864
      6          8           0       -1.124393   -0.324093   -0.006222
      7          6           0       -2.497387    0.115499    0.012945
      8          6           0       -3.359543   -1.125299   -0.000078
      9          1           0       -2.654252    0.720188    0.908572
     10          1           0       -2.670191    0.750252   -0.858575
     11          1           0       -3.170077   -1.714189   -0.898261
     12          1           0       -3.152699   -1.744789    0.873327
     13          1           0       -4.413107   -0.841138    0.014953
     14          8           0        4.568763   -0.578185    0.090608
     15          1           0        4.678185    0.273769   -0.363145
 ---------------------------------------------------------------------

 SCF Done:  E(UHF) =  -417.944271390     A.U. after   43 cycles
 E2 =    -0.1269491392D+01 EUMP2 =    -0.41921376278138D+03
 CCSD(T)= -0.41932739705D+03

 The electronic state is 2-A.
 Alpha  occ. eigenvalues --  -20.67857 -20.61251 -20.55707 -11.41349 -11.29720
 Alpha  occ. eigenvalues --  -11.27577 -11.24455 -11.22923  -1.48049  -1.45433
 Alpha  occ. eigenvalues --   -1.37628  -1.07217  -1.04316  -0.91920  -0.84215
 Alpha  occ. eigenvalues --   -0.81590  -0.76129  -0.72340  -0.69388  -0.68788
 Alpha  occ. eigenvalues --   -0.61461  -0.59704  -0.59166  -0.56568  -0.55752
 Alpha  occ. eigenvalues --   -0.52066  -0.51915  -0.47630  -0.46369  -0.42796
 Alpha  occ. eigenvalues --   -0.42562
 Alpha virt. eigenvalues --    0.03856   0.04297   0.06320   0.06608   0.06859
 Alpha virt. eigenvalues --    0.08070   0.09535   0.09923   0.11575   0.12328
 Alpha virt. eigenvalues --    0.12863   0.14389   0.15555   0.15734   0.16289

  Beta  occ. eigenvalues --  -20.64327 -20.61268 -20.56132 -11.41036 -11.29725
  Beta  occ. eigenvalues --  -11.25743 -11.24555 -11.22924  -1.48258  -1.38321
  Beta  occ. eigenvalues --   -1.32644  -1.07401  -1.03325  -0.90614  -0.82660
  Beta  occ. eigenvalues --   -0.76582  -0.73790  -0.69507  -0.69255  -0.62002
  Beta  occ. eigenvalues --   -0.60358  -0.58968  -0.55903  -0.54934  -0.52649
  Beta  occ. eigenvalues --   -0.52117  -0.48388  -0.47389  -0.41822  -0.41517
  Beta virt. eigenvalues --    0.00518   0.04232   0.05344   0.06336   0.06613
  Beta virt. eigenvalues --    0.06924   0.08147   0.09711   0.10257   0.11574
  Beta virt. eigenvalues --    0.12901   0.13204   0.14358   0.15296   0.16208

 Mulliken charges and spin densities:
               1          2
     1  C   -0.773501   1.094869
     2  H    0.419558  -0.135609
     3  C    1.447875  -0.728855
     4  C   -0.923372   0.100538
     5  O   -0.303690  -0.087243
     6  O   -0.104771   0.002582
     7  C   -0.027550   0.000149
     8  C   -0.616219  -0.000227
     9  H    0.177113  -0.000100
    10  H    0.175566   0.000008
    11  H    0.153069   0.000003
    12  H    0.153703   0.000006
    13  H    0.139819  -0.000050
    14  O   -0.196519   0.787017
    15  H    0.278920  -0.033087
 Sum of Mulliken charges =  -0.00000   1.00000

 Dipole moment (field-independent basis, Debye):
    X=              0.2716    Y=             -0.8152    Z=             -0.9493  Tot=              1.2805
 Quadrupole moment (field-independent basis, Debye-Ang):
   XX=            -28.2509   YY=            -55.0729   ZZ=            -47.4023
   XY=              5.1562   XZ=             -4.6855   YZ=             -0.3357

 \PMP3-0=-419.2516015\MP4SDQ=-419.2673287\CCSD=-419.2725431\CCSD(T)=-41
 Normal termination of Gaussian 16 at Thu Apr 17 22:03:35 2025.
