 Gaussian 16, Revision A.03,
 Gaussian 16:  ES64L-G16RevA.03 25-Dec-2016

 --------------------------
 # ccsd(t)/6-311++g(d,p) sp
 --------------------------

 -------------------
 Title Card Required
 -------------------
 Symbolic Z-matrix:
 Charge =  0 Multiplicity = 2

                         Standard orientation:
 ---------------------------------------------------------------------
 Center     Atomic      Atomic             Coordinates (Angstroms)
 Number     Number       Type             X           Y           Z
 ---------------------------------------------------------------------
      1          6           0        2.242132   -0.376984   -0.055563
      2          1           0        3.664132   -0.932360   -0.183531
      3          6           0        1.136265    0.101982   -0.011760
      4          6           0       -0.216051    0.644151   -0.000536
      5          8           0       -0.451883    1.819440    0.015295
      6          8           0       -1.126278   -0.324811   -0.005751
      7          6           0       -2.499883    0.112773    0.012349
      8          6           0       -3.359820   -1.129281    0.000368
      9          1           0       -2.657648    0.718175    0.907282
     10          1           0       -2.672852    0.746279   -0.860034
     11          1           0       -3.169089   -1.718871   -0.897076
     12          1           0       -3.152435   -1.747372    0.874619
     13          1           0       -4.413784   -0.846717    0.014604
     14          8           0        4.568810   -0.569904    0.096843
     15          1           0        4.660618    0.267218   -0.376103
 ---------------------------------------------------------------------

 SCF Done:  E(UHF) =  -417.940046223     A.U. after   34 cycles
 E2 =    -0.1263644409D+01 EUMP2 =    -0.41920369063215D+03
 CCSD(T)= -0.41932377834D+03

 The electronic state is 2-A.
 Alpha  occ. eigenvalues --  -20.62194 -20.61036 -20.56824 -11.42516 -11.31915
 Alpha  occ. eigenvalues --  -11.30416 -11.26315 -11.23470  -1.49095  -1.40033
 Alpha  occ. eigenvalues --   -1.38580  -1.09541  -1.05778  -0.93145  -0.84115
 Alpha  occ. eigenvalues --   -0.79817  -0.77000  -0.70273  -0.69779  -0.66986
 Alpha  occ. eigenvalues --   -0.60480  -0.59801  -0.57204  -0.56419  -0.54882
 Alpha  occ. eigenvalues --   -0.52787  -0.52555  -0.48959  -0.47427  -0.46288
 Alpha  occ. eigenvalues --   -0.45908
 Alpha virt. eigenvalues --    0.03839   0.04789   0.05996   0.06204   0.07026
 Alpha virt. eigenvalues --    0.07871   0.08385   0.09492   0.11197   0.11721
 Alpha virt. eigenvalues --    0.12338   0.13780   0.15285   0.15329   0.15843

  Beta  occ. eigenvalues --  -20.62212 -20.59440 -20.57468 -11.42023 -11.30424
  Beta  occ. eigenvalues --  -11.28118 -11.26511 -11.23471  -1.49405  -1.39621
  Beta  occ. eigenvalues --   -1.34732  -1.08989  -1.04370  -0.91212  -0.83358
  Beta  occ. eigenvalues --   -0.77356  -0.72745  -0.70464  -0.70438  -0.61482
  Beta  occ. eigenvalues --   -0.60136  -0.58624  -0.56584  -0.53626  -0.52882
  Beta  occ. eigenvalues --   -0.52236  -0.49837  -0.48462  -0.44321  -0.43924
  Beta virt. eigenvalues --   -0.00530   0.03895   0.05957   0.06026   0.06240
  Beta virt. eigenvalues --    0.07039   0.08017   0.09357   0.10056   0.11260
  Beta virt. eigenvalues --    0.12438   0.12753   0.13759   0.15207   0.15928

 Mulliken charges and spin densities:
               1          2
     1  C   -0.628215   1.884141
     2  H    0.365257  -0.111108
     3  C    1.512612  -1.040441
     4  C   -0.915628   0.132385
     5  O   -0.288853  -0.133638
     6  O   -0.106034   0.003611
     7  C   -0.031736   0.000362
     8  C   -0.617394  -0.000598
     9  H    0.179567  -0.000142
    10  H    0.177434  -0.000010
    11  H    0.153732   0.000004
    12  H    0.154771   0.000002
    13  H    0.142075  -0.000066
    14  O   -0.368498   0.280051
    15  H    0.270909  -0.014551
 Sum of Mulliken charges =  -0.00000   1.00000

 Dipole moment (field-independent basis, Debye):
    X=             -2.0152    Y=             -0.8351    Z=             -1.2085  Tot=              2.4937
 Quadrupole moment (field-independent basis, Debye-Ang):
   XX=            -43.0298   YY=            -54.2100   ZZ=            -47.0241
   XY=              5.7862   XZ=             -5.6664   YZ=             -0.0712

 88\PMP3-0=-419.2494685\MP4SDQ=-419.2576844\CCSD=-419.2688527\CCSD(T)=-
 Normal termination of Gaussian 16 at Fri Apr 18 00:12:20 2025.
