 Gaussian 16, Revision A.03,
 Gaussian 16:  ES64L-G16RevA.03 25-Dec-2016

 --------------------------
 # ccsd(t)/6-311++g(d,p) sp
 --------------------------

 -------------------
 Title Card Required
 -------------------
 Symbolic Z-matrix:
 Charge =  0 Multiplicity = 2

                         Standard orientation:
 ---------------------------------------------------------------------
 Center     Atomic      Atomic             Coordinates (Angstroms)
 Number     Number       Type             X           Y           Z
 ---------------------------------------------------------------------
      1          6           0        2.249413   -0.382429   -0.059350
      2          1           0        3.512215   -0.855576   -0.127465
      3          6           0        1.142142    0.096305   -0.013725
      4          6           0       -0.211822    0.643413    0.000230
      5          8           0       -0.448439    1.818838    0.016688
      6          8           0       -1.124958   -0.324296   -0.006197
      7          6           0       -2.498156    0.114837    0.012815
      8          6           0       -3.359804   -1.126248   -0.000107
      9          1           0       -2.655170    0.719568    0.908367
     10          1           0       -2.670972    0.749398   -0.858834
     11          1           0       -3.170083   -1.715185   -0.898198
     12          1           0       -3.152835   -1.745523    0.873413
     13          1           0       -4.413448   -0.842424    0.014800
     14          8           0        4.566591   -0.576763    0.091213
     15          1           0        4.674107    0.272244   -0.364898
 ---------------------------------------------------------------------

 SCF Done:  E(UHF) =  -417.936807100     A.U. after   37 cycles
 E2 =    -0.1269751122D+01 EUMP2 =    -0.41920655822142D+03
 CCSD(T)= -0.41932411411D+03

 The electronic state is 2-A.
 Alpha  occ. eigenvalues --  -20.65997 -20.61573 -20.56100 -11.41774 -11.29962
 Alpha  occ. eigenvalues --  -11.29364 -11.25061 -11.23112  -1.48404  -1.43884
 Alpha  occ. eigenvalues --   -1.37938  -1.07956  -1.04936  -0.92356  -0.84041
 Alpha  occ. eigenvalues --   -0.81450  -0.76481  -0.70397  -0.69688  -0.69094
 Alpha  occ. eigenvalues --   -0.59993  -0.59479  -0.59391  -0.56673  -0.55950
 Alpha  occ. eigenvalues --   -0.52313  -0.52115  -0.48027  -0.46602  -0.44257
 Alpha  occ. eigenvalues --   -0.43952
 Alpha virt. eigenvalues --    0.03991   0.04353   0.06218   0.06469   0.06923
 Alpha virt. eigenvalues --    0.07997   0.09186   0.09757   0.11444   0.12083
 Alpha virt. eigenvalues --    0.12692   0.14205   0.15567   0.15677   0.15968

  Beta  occ. eigenvalues --  -20.63040 -20.61592 -20.56631 -11.41375 -11.29969
  Beta  occ. eigenvalues --  -11.26628 -11.25264 -11.23113  -1.48664  -1.38802
  Beta  occ. eigenvalues --   -1.33492  -1.07957  -1.03690  -0.90757  -0.82858
  Beta  occ. eigenvalues --   -0.76780  -0.73365  -0.69835  -0.69698  -0.60798
  Beta  occ. eigenvalues --   -0.60238  -0.59059  -0.56141  -0.54006  -0.53016
  Beta  occ. eigenvalues --   -0.52371  -0.48920  -0.47800  -0.42767  -0.42410
  Beta virt. eigenvalues --   -0.00457   0.04115   0.05430   0.06234   0.06479
  Beta virt. eigenvalues --    0.06974   0.08081   0.09597   0.10213   0.11426
  Beta virt. eigenvalues --    0.12745   0.13078   0.14156   0.15200   0.16134

 Mulliken charges and spin densities:
               1          2
     1  C   -0.727374   1.451573
     2  H    0.408481  -0.162809
     3  C    1.473041  -0.897905
     4  C   -0.928034   0.119836
     5  O   -0.297998  -0.109403
     6  O   -0.105117   0.003094
     7  C   -0.028922   0.000214
     8  C   -0.616531  -0.000389
     9  H    0.177866  -0.000115
    10  H    0.176204   0.000002
    11  H    0.153358   0.000003
    12  H    0.154058   0.000005
    13  H    0.140592  -0.000060
    14  O   -0.256171   0.623473
    15  H    0.276547  -0.027519
 Sum of Mulliken charges =  -0.00000   1.00000

 Dipole moment (field-independent basis, Debye):
    X=             -0.5069    Y=             -0.7644    Z=             -0.9926  Tot=              1.3515
 Quadrupole moment (field-independent basis, Debye-Ang):
   XX=            -33.1460   YY=            -54.8579   ZZ=            -47.2785
   XY=              5.5989   XZ=             -4.8190   YZ=             -0.2946

 09\PMP3-0=-419.2502808\MP4SDQ=-419.2609892\CCSD=-419.2688371\CCSD(T)=-
 Normal termination of Gaussian 16 at Fri Apr 18 03:21:14 2025.
