 Gaussian 16, Revision A.03,
 Gaussian 16:  ES64L-G16RevA.03 25-Dec-2016

 --------------------------
 # ccsd(t)/6-311++g(d,p) sp
 --------------------------

 -------------------
 Title Card Required
 -------------------
 Symbolic Z-matrix:
 Charge =  0 Multiplicity = 2

                         Standard orientation:
 ---------------------------------------------------------------------
 Center     Atomic      Atomic             Coordinates (Angstroms)
 Number     Number       Type             X           Y           Z
 ---------------------------------------------------------------------
      1          6           0       -2.239313   -0.374389    0.053284
      2          1           0       -3.718299   -0.972501    0.218249
      3          6           0       -1.133787    0.104371    0.010728
      4          6           0        0.217774    0.644688    0.000932
      5          8           0        0.453649    1.819903   -0.014317
      6          8           0        1.126911   -0.325042    0.005464
      7          6           0        2.500577    0.111783   -0.012070
      8          6           0        3.359699   -1.130754   -0.000739
      9          1           0        2.658848    0.717691   -0.906570
     10          1           0        2.673714    0.744638    0.860759
     11          1           0        3.168400   -1.720827    0.896270
     12          1           0        3.152101   -1.748117   -0.875457
     13          1           0        4.413846   -0.848870   -0.014561
     14          8           0       -4.571040   -0.566195   -0.100499
     15          1           0       -4.654462    0.264466    0.383318
 ---------------------------------------------------------------------

 SCF Done:  E(UHF) =  -417.943268642     A.U. after   34 cycles
 E2 =    -0.1261230248D+01 EUMP2 =    -0.41920449888984D+03
 CCSD(T)= -0.41932469685D+03

 The electronic state is 2-A.
 Alpha  occ. eigenvalues --  -20.62205 -20.60322 -20.56822 -11.42502 -11.32022
 Alpha  occ. eigenvalues --  -11.30423 -11.26289 -11.23480  -1.49112  -1.39569
 Alpha  occ. eigenvalues --   -1.38589  -1.09609  -1.05802  -0.93159  -0.84061
 Alpha  occ. eigenvalues --   -0.79197  -0.76932  -0.70292  -0.69787  -0.66747
 Alpha  occ. eigenvalues --   -0.60492  -0.59795  -0.57441  -0.56430  -0.54252
 Alpha  occ. eigenvalues --   -0.52799  -0.52556  -0.48988  -0.47486  -0.46349
 Alpha  occ. eigenvalues --   -0.45952
 Alpha virt. eigenvalues --    0.03829   0.04802   0.05986   0.06193   0.07058
 Alpha virt. eigenvalues --    0.07815   0.08376   0.09481   0.11203   0.11703
 Alpha virt. eigenvalues --    0.12309   0.13705   0.15241   0.15315   0.15918

  Beta  occ. eigenvalues --  -20.62223 -20.59002 -20.57478 -11.42000 -11.30431
  Beta  occ. eigenvalues --  -11.28099 -11.26474 -11.23481  -1.49427  -1.39651
  Beta  occ. eigenvalues --   -1.35235  -1.09019  -1.04368  -0.91196  -0.83355
  Beta  occ. eigenvalues --   -0.77361  -0.73014  -0.70484  -0.70460  -0.61508
  Beta  occ. eigenvalues --   -0.60137  -0.58854  -0.56598  -0.53649  -0.52893
  Beta  occ. eigenvalues --   -0.52050  -0.49864  -0.48486  -0.44360  -0.43956
  Beta virt. eigenvalues --   -0.00236   0.03889   0.05990   0.06068   0.06247
  Beta virt. eigenvalues --    0.07078   0.07977   0.09354   0.10085   0.11305
  Beta virt. eigenvalues --    0.12416   0.12775   0.13714   0.15291   0.15928

 Mulliken charges and spin densities:
               1          2
     1  C   -0.612631   1.931941
     2  H    0.350647  -0.089370
     3  C    1.512707  -1.041180
     4  C   -0.908470   0.127539
     5  O   -0.288605  -0.136043
     6  O   -0.106406   0.003614
     7  C   -0.031980   0.000265
     8  C   -0.618040  -0.000618
     9  H    0.179690  -0.000145
    10  H    0.177364  -0.000012
    11  H    0.153604   0.000005
    12  H    0.154803   0.000001
    13  H    0.142120  -0.000067
    14  O   -0.376559   0.216367
    15  H    0.271756  -0.012296
 Sum of Mulliken charges =  -0.00000   1.00000

 Dipole moment (field-independent basis, Debye):
    X=              2.1030    Y=             -0.9344    Z=              1.3044  Tot=              2.6452
 Quadrupole moment (field-independent basis, Debye-Ang):
   XX=            -43.8874   YY=            -54.0061   ZZ=            -46.9633
   XY=             -5.4362   XZ=             -6.0597   YZ=             -0.0427

 73\PMP3-0=-419.2499518\MP4SDQ=-419.2584985\CCSD=-419.2700359\CCSD(T)=-
 Normal termination of Gaussian 16 at Fri Apr 18 09:38:38 2025.
