 Gaussian 16, Revision A.03,
 Gaussian 16:  ES64L-G16RevA.03 25-Dec-2016

 --------------------------
 # ccsd(t)/6-311++g(d,p) sp
 --------------------------

 -------------------
 Title Card Required
 -------------------
 Symbolic Z-matrix:
 Charge =  0 Multiplicity = 2

                         Standard orientation:
 ---------------------------------------------------------------------
 Center     Atomic      Atomic             Coordinates (Angstroms)
 Number     Number       Type             X           Y           Z
 ---------------------------------------------------------------------
      1          6           0        2.246356   -0.380248   -0.058024
      2          1           0        3.582816   -0.883639   -0.145739
      3          6           0        1.139729    0.098574   -0.013023
      4          6           0       -0.213593    0.643645   -0.000047
      5          8           0       -0.449807    1.819009    0.016254
      6          8           0       -1.125517   -0.324506   -0.006059
      7          6           0       -2.498918    0.114020    0.012633
      8          6           0       -3.359891   -1.127446    0.000026
      9          1           0       -2.656202    0.718984    0.907958
     10          1           0       -2.671773    0.748169   -0.859305
     11          1           0       -3.169774   -1.716630   -0.897815
     12          1           0       -3.152765   -1.746276    0.873823
     13          1           0       -4.413658   -0.844119    0.014687
     14          8           0        4.566620   -0.574268    0.092985
     15          1           0        4.668897    0.270362   -0.368436
 ---------------------------------------------------------------------

 SCF Done:  E(UHF) =  -417.936061156     A.U. after   35 cycles
 E2 =    -0.1267827053D+01 EUMP2 =    -0.41920388820905D+03
 CCSD(T)= -0.41932317808D+03

 The electronic state is 2-A.
 Alpha  occ. eigenvalues --  -20.63229 -20.61979 -20.56586 -11.42281 -11.31059
 Alpha  occ. eigenvalues --  -11.30259 -11.25907 -11.23344  -1.48850  -1.41585
 Alpha  occ. eigenvalues --   -1.38356  -1.08957  -1.05508  -0.92874  -0.84072
 Alpha  occ. eigenvalues --   -0.80731  -0.76859  -0.70064  -0.69575  -0.68118
 Alpha  occ. eigenvalues --   -0.60298  -0.59691  -0.57377  -0.56549  -0.56122
 Alpha  occ. eigenvalues --   -0.52620  -0.52403  -0.48610  -0.47052  -0.45661
 Alpha  occ. eigenvalues --   -0.45297
 Alpha virt. eigenvalues --    0.03911   0.04625   0.06078   0.06300   0.06978
 Alpha virt. eigenvalues --    0.07937   0.08666   0.09585   0.11276   0.11850
 Alpha virt. eigenvalues --    0.12475   0.13968   0.15400   0.15547   0.15762

  Beta  occ. eigenvalues --  -20.61997 -20.60977 -20.57190 -11.41821 -11.30267
  Beta  occ. eigenvalues --  -11.27642 -11.26132 -11.23344  -1.49143  -1.39334
  Beta  occ. eigenvalues --   -1.33935  -1.08625  -1.04148  -0.91060  -0.83186
  Beta  occ. eigenvalues --   -0.77146  -0.72666  -0.70229  -0.70194  -0.61238
  Beta  occ. eigenvalues --   -0.60007  -0.58572  -0.56427  -0.53419  -0.52993
  Beta  occ. eigenvalues --   -0.52653  -0.49520  -0.48232  -0.43795  -0.43414
  Beta virt. eigenvalues --   -0.00773   0.03972   0.05725   0.06095   0.06318
  Beta virt. eigenvalues --    0.07002   0.08047   0.09441   0.10097   0.11286
  Beta virt. eigenvalues --    0.12554   0.12855   0.13921   0.15151   0.16004

 Mulliken charges and spin densities:
               1          2
     1  C   -0.670769   1.723500
     2  H    0.386935  -0.150268
     3  C    1.504117  -1.000196
     4  C   -0.927811   0.131530
     5  O   -0.291958  -0.125036
     6  O   -0.105542   0.003451
     7  C   -0.030727   0.000346
     8  C   -0.616715  -0.000526
     9  H    0.178899  -0.000131
    10  H    0.177043  -0.000006
    11  H    0.153680   0.000003
    12  H    0.154511   0.000003
    13  H    0.141544  -0.000065
    14  O   -0.325575   0.437945
    15  H    0.272368  -0.020551
 Sum of Mulliken charges =  -0.00000   1.00000

 Dipole moment (field-independent basis, Debye):
    X=             -1.4572    Y=             -0.7494    Z=             -1.0799  Tot=              1.9625
 Quadrupole moment (field-independent basis, Debye-Ang):
   XX=            -39.1963   YY=            -54.5453   ZZ=            -47.1380
   XY=              5.9383   XZ=             -5.1510   YZ=             -0.2081

 SD=-419.2679132\CCSD(T)=-419.3231781\S2=1.138439\S2-1=1.040893\S2A=0.8
 Normal termination of Gaussian 16 at Fri Apr 18 10:42:11 2025.
