 Gaussian 16, Revision A.03,
 Gaussian 16:  ES64L-G16RevA.03 25-Dec-2016

 --------------------------
 # ccsd(t)/6-311++g(d,p) sp
 --------------------------

 -------------------
 Title Card Required
 -------------------
 Symbolic Z-matrix:
 Charge =  0 Multiplicity = 2

                         Standard orientation:
 ---------------------------------------------------------------------
 Center     Atomic      Atomic             Coordinates (Angstroms)
 Number     Number       Type             X           Y           Z
 ---------------------------------------------------------------------
      1          6           0       -2.236894   -0.371673    0.050780
      2          1           0       -3.774920   -1.010157    0.252677
      3          6           0       -1.131519    0.106389    0.009758
      4          6           0        0.219372    0.645306    0.001307
      5          8           0        0.455630    1.820415   -0.013230
      6          8           0        1.127640   -0.325283    0.005194
      7          6           0        2.501305    0.110752   -0.011742
      8          6           0        3.359616   -1.132285   -0.001113
      9          1           0        2.660178    0.717221   -0.905766
     10          1           0        2.674691    0.742918    0.861551
     11          1           0        3.167699   -1.722890    0.895425
     12          1           0        3.151787   -1.748878   -0.876323
     13          1           0        4.413965   -0.851138   -0.014484
     14          8           0       -4.572689   -0.562554   -0.104186
     15          1           0       -4.649335    0.261365    0.390757
 ---------------------------------------------------------------------

 SCF Done:  E(UHF) =  -417.946552149     A.U. after   30 cycles
 E2 =    -0.1259157033D+01 EUMP2 =    -0.41920570918206D+03
 CCSD(T)= -0.41932579475D+03

 The electronic state is 2-A.
 Alpha  occ. eigenvalues --  -20.62168 -20.59873 -20.56769 -11.42437 -11.31983
 Alpha  occ. eigenvalues --  -11.30393 -11.26164 -11.23463  -1.49074  -1.39368
 Alpha  occ. eigenvalues --   -1.38548  -1.09571  -1.05775  -0.93116  -0.83982
 Alpha  occ. eigenvalues --   -0.78671  -0.76799  -0.70266  -0.69750  -0.66638
 Alpha  occ. eigenvalues --   -0.60462  -0.59773  -0.57816  -0.56413  -0.53798
 Alpha  occ. eigenvalues --   -0.52772  -0.52521  -0.48944  -0.47462  -0.46311
 Alpha  occ. eigenvalues --   -0.45894
 Alpha virt. eigenvalues --    0.03835   0.04780   0.05993   0.06201   0.07090
 Alpha virt. eigenvalues --    0.07760   0.08431   0.09488   0.11225   0.11710
 Alpha virt. eigenvalues --    0.12304   0.13648   0.15226   0.15326   0.15912

  Beta  occ. eigenvalues --  -20.62186 -20.58758 -20.57431 -11.41930 -11.30402
  Beta  occ. eigenvalues --  -11.27971 -11.26348 -11.23464  -1.49392  -1.39622
  Beta  occ. eigenvalues --   -1.35758  -1.08974  -1.04315  -0.91138  -0.83309
  Beta  occ. eigenvalues --   -0.77314  -0.73372  -0.70452  -0.70431  -0.61484
  Beta  occ. eigenvalues --   -0.60104  -0.59137  -0.56580  -0.53630  -0.52870
  Beta  occ. eigenvalues --   -0.51989  -0.49832  -0.48461  -0.44298  -0.43888
  Beta virt. eigenvalues --    0.00076   0.03900   0.06001   0.06119   0.06278
  Beta virt. eigenvalues --    0.07124   0.07930   0.09371   0.10136   0.11369
  Beta virt. eigenvalues --    0.12413   0.12827   0.13695   0.15380   0.15950

 Mulliken charges and spin densities:
               1          2
     1  C   -0.599920   1.958212
     2  H    0.335717  -0.070779
     3  C    1.513955  -1.031764
     4  C   -0.905307   0.120469
     5  O   -0.288947  -0.137310
     6  O   -0.106726   0.003582
     7  C   -0.032112   0.000148
     8  C   -0.618666  -0.000638
     9  H    0.179655  -0.000147
    10  H    0.177169  -0.000015
    11  H    0.153425   0.000007
    12  H    0.154779   0.000002
    13  H    0.142047  -0.000068
    14  O   -0.377897   0.169014
    15  H    0.272828  -0.010715
 Sum of Mulliken charges =  -0.00000   1.00000

 Dipole moment (field-independent basis, Debye):
    X=              2.0846    Y=             -1.0400    Z=              1.3977  Tot=              2.7168
 Quadrupole moment (field-independent basis, Debye-Ang):
   XX=            -44.0864   YY=            -53.8174   ZZ=            -46.9012
   XY=             -5.0185   XZ=             -6.4537   YZ=             -0.1618

 6\PMP3-0=-419.2509278\MP4SDQ=-419.2597404\CCSD=-419.2714158\CCSD(T)=-4
 Normal termination of Gaussian 16 at Fri Apr 18 07:36:42 2025.
