 Gaussian 16, Revision A.03,
 Gaussian 16:  ES64L-G16RevA.03 25-Dec-2016

 --------------------------
 # ccsd(t)/6-311++g(d,p) sp
 --------------------------

 -------------------
 Title Card Required
 -------------------
 Symbolic Z-matrix:
 Charge =  0 Multiplicity = 2

                         Standard orientation:
 ---------------------------------------------------------------------
 Center     Atomic      Atomic             Coordinates (Angstroms)
 Number     Number       Type             X           Y           Z
 ---------------------------------------------------------------------
      1          6           0        3.340943   -0.490198   -0.439179
      2          1           0        4.334303   -0.757041   -0.715399
      3          6           0        2.223520   -0.191526   -0.128261
      4          6           0        0.885709    0.217861    0.262216
      5          8           0        0.627995    1.274282    0.774125
      6          8           0       -0.012224   -0.728300   -0.017800
      7          6           0       -1.357216   -0.451629    0.358983
      8          6           0       -2.231598   -1.589360   -0.088938
      9          1           0       -1.405715   -0.227600    1.426634
     10          1           0       -1.694320    0.513591   -0.186220
     11          1           0       -2.151878   -1.728377   -1.167485
     12          1           0       -1.937924   -2.516609    0.408208
     13          1           0       -3.270152   -1.370044    0.161229
     14          8           0       -1.854157    1.815319   -0.697780
     15          1           0       -1.135382    2.224790   -0.184254
 ---------------------------------------------------------------------

 SCF Done:  E(UHF) =  -417.978220311     A.U. after   35 cycles
 E2 =    -0.1273360040D+01 EUMP2 =    -0.41925158035117D+03
 CCSD(T)= -0.41935465570D+03

 The electronic state is 2-A.
 Alpha  occ. eigenvalues --  -20.62572 -20.62473 -20.57564 -11.42992 -11.30173
 Alpha  occ. eigenvalues --  -11.27490 -11.26688 -11.22925  -1.49716  -1.39588
 Alpha  occ. eigenvalues --   -1.39040  -1.08856  -1.04975  -0.92856  -0.84564
 Alpha  occ. eigenvalues --   -0.78797  -0.73660  -0.72957  -0.70858  -0.68339
 Alpha  occ. eigenvalues --   -0.65056  -0.60229  -0.59547  -0.56331  -0.55510
 Alpha  occ. eigenvalues --   -0.53058  -0.51217  -0.49712  -0.44465  -0.43385
 Alpha  occ. eigenvalues --   -0.43141
 Alpha virt. eigenvalues --    0.03636   0.04560   0.06262   0.06911   0.07603
 Alpha virt. eigenvalues --    0.07771   0.09140   0.10151   0.11094   0.11633
 Alpha virt. eigenvalues --    0.12076   0.13945   0.15066   0.15502   0.16369

  Beta  occ. eigenvalues --  -20.62456 -20.58689 -20.57537 -11.43002 -11.29361
  Beta  occ. eigenvalues --  -11.27500 -11.26680 -11.22963  -1.49591  -1.39465
  Beta  occ. eigenvalues --   -1.24755  -1.08536  -1.04237  -0.92793  -0.83036
  Beta  occ. eigenvalues --   -0.78073  -0.73549  -0.70619  -0.69511  -0.65030
  Beta  occ. eigenvalues --   -0.60135  -0.59091  -0.56213  -0.52837  -0.51682
  Beta  occ. eigenvalues --   -0.50691  -0.49679  -0.46802  -0.43372  -0.43362
  Beta virt. eigenvalues --    0.03627   0.04534   0.05654   0.06322   0.07349
  Beta virt. eigenvalues --    0.07711   0.08227   0.09988   0.10642   0.11147
  Beta virt. eigenvalues --    0.11807   0.12406   0.13994   0.15113   0.15527

 Mulliken charges and spin densities:
               1          2
     1  C   -0.815000  -0.005771
     2  H    0.205398   0.000374
     3  C    1.552808   0.004597
     4  C   -0.636858  -0.001528
     5  O   -0.342698   0.005653
     6  O   -0.084578  -0.006867
     7  C   -0.236408   0.264177
     8  C   -0.587272  -0.019932
     9  H    0.201951  -0.012446
    10  H    0.272442  -0.107532
    11  H    0.167300   0.002244
    12  H    0.152098   0.013058
    13  H    0.148913   0.000869
    14  O   -0.276562   0.889134
    15  H    0.278467  -0.026029
 Sum of Mulliken charges =  -0.00000   1.00000

 Dipole moment (field-independent basis, Debye):
    X=              1.2344    Y=             -1.7048    Z=              0.1007  Tot=              2.1072
 Quadrupole moment (field-independent basis, Debye-Ang):
   XX=            -37.7769   YY=            -49.2531   ZZ=            -49.2192
   XY=             -0.3580   XZ=             -5.3002   YZ=             -0.7540

 Normal termination of Gaussian 16 at Tue Apr 15 09:32:17 2025.
