 Gaussian 16, Revision A.03,
 Gaussian 16:  ES64L-G16RevA.03 25-Dec-2016

 --------------------------
 # ccsd(t)/6-311++g(d,p) sp
 --------------------------

 -------------------
 Title Card Required
 -------------------
 Symbolic Z-matrix:
 Charge =  0 Multiplicity = 2

                         Standard orientation:
 ---------------------------------------------------------------------
 Center     Atomic      Atomic             Coordinates (Angstroms)
 Number     Number       Type             X           Y           Z
 ---------------------------------------------------------------------
      1          6           0        3.341273   -0.484814   -0.442503
      2          1           0        4.334529   -0.749796   -0.720705
      3          6           0        2.223942   -0.188088   -0.129267
      4          6           0        0.883585    0.214916    0.262945
      5          8           0        0.625300    1.269471    0.781866
      6          8           0       -0.007218   -0.731466   -0.022771
      7          6           0       -1.359025   -0.467974    0.364078
      8          6           0       -2.229761   -1.602437   -0.099134
      9          1           0       -1.398983   -0.280075    1.438865
     10          1           0       -1.701215    0.455417   -0.152161
     11          1           0       -2.150848   -1.722348   -1.180165
     12          1           0       -1.944333   -2.539367    0.382403
     13          1           0       -3.268193   -1.380559    0.151193
     14          8           0       -1.856188    1.856025   -0.694772
     15          1           0       -1.126205    2.234869   -0.170725
 ---------------------------------------------------------------------

 SCF Done:  E(UHF) =  -417.986631128     A.U. after   30 cycles
 E2 =    -0.1267594533D+01 EUMP2 =    -0.41925422566177D+03
 CCSD(T)= -0.41935621673D+03

 The electronic state is 2-A.
 Alpha  occ. eigenvalues --  -20.62922 -20.62361 -20.57464 -11.42939 -11.29678
 Alpha  occ. eigenvalues --  -11.27406 -11.26619 -11.22832  -1.49562  -1.39410
 Alpha  occ. eigenvalues --   -1.39082  -1.08775  -1.04966  -0.92745  -0.84499
 Alpha  occ. eigenvalues --   -0.78609  -0.73566  -0.72603  -0.70759  -0.68367
 Alpha  occ. eigenvalues --   -0.65301  -0.60115  -0.59730  -0.56187  -0.55754
 Alpha  occ. eigenvalues --   -0.52925  -0.51277  -0.49644  -0.45623  -0.43339
 Alpha  occ. eigenvalues --   -0.43252
 Alpha virt. eigenvalues --    0.03657   0.04564   0.06275   0.06889   0.07649
 Alpha virt. eigenvalues --    0.07781   0.09111   0.10183   0.11133   0.11651
 Alpha virt. eigenvalues --    0.12100   0.13997   0.14974   0.15519   0.16407

  Beta  occ. eigenvalues --  -20.62355 -20.58915 -20.57442 -11.42948 -11.29138
  Beta  occ. eigenvalues --  -11.27415 -11.26611 -11.22856  -1.49485  -1.39324
  Beta  occ. eigenvalues --   -1.24061  -1.08531  -1.04463  -0.92702  -0.83355
  Beta  occ. eigenvalues --   -0.78055  -0.73467  -0.70567  -0.69862  -0.64773
  Beta  occ. eigenvalues --   -0.60178  -0.59372  -0.56089  -0.52770  -0.51830
  Beta  occ. eigenvalues --   -0.50772  -0.49617  -0.47265  -0.43333  -0.43285
  Beta virt. eigenvalues --    0.03651   0.04554   0.05845   0.06352   0.07382
  Beta virt. eigenvalues --    0.07740   0.08275   0.10052   0.10796   0.11162
  Beta virt. eigenvalues --    0.11833   0.12394   0.14049   0.15019   0.15530

 Mulliken charges and spin densities:
               1          2
     1  C   -0.805562  -0.005365
     2  H    0.205259   0.000368
     3  C    1.532111   0.002115
     4  C   -0.638680  -0.004902
     5  O   -0.344621   0.004438
     6  O   -0.091190  -0.004488
     7  C   -0.221189   0.174092
     8  C   -0.579925  -0.009692
     9  H    0.196889  -0.008634
    10  H    0.262941  -0.066323
    11  H    0.165714   0.001147
    12  H    0.151035   0.008135
    13  H    0.148240   0.000526
    14  O   -0.259590   0.936981
    15  H    0.278569  -0.028396
 Sum of Mulliken charges =  -0.00000   1.00000

 Dipole moment (field-independent basis, Debye):
    X=              1.1571    Y=             -1.6347    Z=              0.0535  Tot=              2.0035
 Quadrupole moment (field-independent basis, Debye-Ang):
   XX=            -37.8124   YY=            -49.1701   ZZ=            -49.2044
   XY=             -0.4413   XZ=             -5.2309   YZ=             -0.8836

 903\PMP3-0=-419.2815731\MP4SDQ=-419.3041383\CCSD=-419.3032102\CCSD(T)=
 Normal termination of Gaussian 16 at Tue Apr 15 07:24:41 2025.
