 Gaussian 16, Revision A.03,
 Gaussian 16:  ES64L-G16RevA.03 25-Dec-2016

 --------------------------
 # ccsd(t)/6-311++g(d,p) sp
 --------------------------

 -------------------
 Title Card Required
 -------------------
 Symbolic Z-matrix:
 Charge =  0 Multiplicity = 2

                         Standard orientation:
 ---------------------------------------------------------------------
 Center     Atomic      Atomic             Coordinates (Angstroms)
 Number     Number       Type             X           Y           Z
 ---------------------------------------------------------------------
      1          6           0        3.341375   -0.482727   -0.443578
      2          1           0        4.334668   -0.746919   -0.722382
      3          6           0        2.224020   -0.186807   -0.129603
      4          6           0        0.882939    0.213957    0.263258
      5          8           0        0.623985    1.267527    0.784418
      6          8           0       -0.006030   -0.732855   -0.024446
      7          6           0       -1.359227   -0.474347    0.365928
      8          6           0       -2.228855   -1.607631   -0.102903
      9          1           0       -1.396781   -0.296830    1.442561
     10          1           0       -1.703760    0.446513   -0.141382
     11          1           0       -2.150125   -1.721394   -1.184632
     12          1           0       -1.944789   -2.547436    0.373481
     13          1           0       -3.267320   -1.386120    0.147966
     14          8           0       -1.856740    1.870144   -0.693398
     15          1           0       -1.123120    2.238989   -0.166812
 ---------------------------------------------------------------------

 SCF Done:  E(UHF) =  -417.988263934     A.U. after   30 cycles
 E2 =    -0.1266613512D+01 EUMP2 =    -0.41925487744651D+03
 CCSD(T)= -0.41935666542D+03

 The electronic state is 2-A.
 Alpha  occ. eigenvalues --  -20.62953 -20.62359 -20.57456 -11.42941 -11.29656
 Alpha  occ. eigenvalues --  -11.27397 -11.26613 -11.22838  -1.49540  -1.39390
 Alpha  occ. eigenvalues --   -1.39035  -1.08765  -1.04969  -0.92737  -0.84472
 Alpha  occ. eigenvalues --   -0.78572  -0.73554  -0.72492  -0.70750  -0.68336
 Alpha  occ. eigenvalues --   -0.65326  -0.60136  -0.59758  -0.56174  -0.55760
 Alpha  occ. eigenvalues --   -0.52922  -0.51316  -0.49640  -0.45850  -0.43341
 Alpha  occ. eigenvalues --   -0.43250
 Alpha virt. eigenvalues --    0.03658   0.04561   0.06277   0.06888   0.07649
 Alpha virt. eigenvalues --    0.07782   0.09104   0.10187   0.11148   0.11652
 Alpha virt. eigenvalues --    0.12100   0.14008   0.14938   0.15518   0.16413

  Beta  occ. eigenvalues --  -20.62354 -20.58932 -20.57436 -11.42950 -11.29161
  Beta  occ. eigenvalues --  -11.27407 -11.26605 -11.22860  -1.49470  -1.39308
  Beta  occ. eigenvalues --   -1.23908  -1.08536  -1.04506  -0.92697  -0.83414
  Beta  occ. eigenvalues --   -0.78056  -0.73459  -0.70569  -0.69906  -0.64678
  Beta  occ. eigenvalues --   -0.60219  -0.59412  -0.56082  -0.52779  -0.51868
  Beta  occ. eigenvalues --   -0.50754  -0.49615  -0.47342  -0.43331  -0.43276
  Beta virt. eigenvalues --    0.03653   0.04554   0.05874   0.06355   0.07376
  Beta virt. eigenvalues --    0.07741   0.08276   0.10061   0.10823   0.11171
  Beta virt. eigenvalues --    0.11829   0.12379   0.14063   0.14983   0.15527

 Mulliken charges and spin densities:
               1          2
     1  C   -0.801593  -0.005260
     2  H    0.205351   0.000363
     3  C    1.525600   0.001757
     4  C   -0.639170  -0.005382
     5  O   -0.344679   0.004206
     6  O   -0.092298  -0.004072
     7  C   -0.214696   0.160369
     8  C   -0.578816  -0.008274
     9  H    0.196085  -0.007944
    10  H    0.258224  -0.060200
    11  H    0.165487   0.000977
    12  H    0.150993   0.007377
    13  H    0.148206   0.000469
    14  O   -0.257327   0.944367
    15  H    0.278634  -0.028752
 Sum of Mulliken charges =  -0.00000   1.00000

 Dipole moment (field-independent basis, Debye):
    X=              1.1522    Y=             -1.6446    Z=              0.0526  Tot=              2.0087
 Quadrupole moment (field-independent basis, Debye-Ang):
   XX=            -37.8268   YY=            -49.1777   ZZ=            -49.2101
   XY=             -0.3875   XZ=             -5.2348   YZ=             -0.8947

 Normal termination of Gaussian 16 at Tue Apr 15 06:39:50 2025.
