 Gaussian 16, Revision A.03,
 Gaussian 16:  ES64L-G16RevA.03 25-Dec-2016

 --------------------------
 # ccsd(t)/6-311++g(d,p) sp
 --------------------------

 -------------------
 Title Card Required
 -------------------
 Symbolic Z-matrix:
 Charge =  0 Multiplicity = 2

                         Standard orientation:
 ---------------------------------------------------------------------
 Center     Atomic      Atomic             Coordinates (Angstroms)
 Number     Number       Type             X           Y           Z
 ---------------------------------------------------------------------
      1          6           0        3.341768   -0.488693   -0.438982
      2          1           0        4.335596   -0.754322   -0.715254
      3          6           0        2.223816   -0.191438   -0.128272
      4          6           0        0.888920    0.220397    0.263193
      5          8           0        0.627741    1.273978    0.771792
      6          8           0       -0.017057   -0.728986   -0.015300
      7          6           0       -1.347854   -0.464883    0.363880
      8          6           0       -2.229512   -1.589185   -0.083940
      9          1           0       -1.412379   -0.174569    1.413282
     10          1           0       -1.740464    0.793256   -0.303978
     11          1           0       -2.148955   -1.740036   -1.160980
     12          1           0       -1.927050   -2.513442    0.420894
     13          1           0       -3.267925   -1.375990    0.169241
     14          8           0       -1.854502    1.783057   -0.691739
     15          1           0       -1.151118    2.223516   -0.196506
 ---------------------------------------------------------------------

 SCF Done:  E(UHF) =  -417.977392414     A.U. after   29 cycles
 E2 =    -0.1296210274D+01 EUMP2 =    -0.41927360268840D+03
 CCSD(T)= -0.41936864293D+03

 The electronic state is 2-A.
 Alpha  occ. eigenvalues --  -20.64843 -20.58575 -20.54580 -11.44087 -11.34045
 Alpha  occ. eigenvalues --  -11.28307 -11.27375 -11.24968  -1.51636  -1.41229
 Alpha  occ. eigenvalues --   -1.32697  -1.10421  -1.06713  -0.94522  -0.85843
 Alpha  occ. eigenvalues --   -0.80330  -0.74372  -0.73716  -0.71993  -0.67071
 Alpha  occ. eigenvalues --   -0.62685  -0.60850  -0.58466  -0.58080  -0.55287
 Alpha  occ. eigenvalues --   -0.52840  -0.50680  -0.48419  -0.44272  -0.44118
 Alpha  occ. eigenvalues --   -0.40104
 Alpha virt. eigenvalues --    0.03340   0.04085   0.05881   0.06797   0.07009
 Alpha virt. eigenvalues --    0.07808   0.09429   0.09951   0.10829   0.11381
 Alpha virt. eigenvalues --    0.11855   0.13474   0.14694   0.14996   0.15985

  Beta  occ. eigenvalues --  -20.64661 -20.58537 -20.53209 -11.44077 -11.31612
  Beta  occ. eigenvalues --  -11.28278 -11.27410 -11.25113  -1.51017  -1.40808
  Beta  occ. eigenvalues --   -1.28350  -1.09258  -1.04777  -0.94211  -0.82831
  Beta  occ. eigenvalues --   -0.79014  -0.74316  -0.71527  -0.68569  -0.64360
  Beta  occ. eigenvalues --   -0.61682  -0.58849  -0.58039  -0.54789  -0.53064
  Beta  occ. eigenvalues --   -0.51249  -0.50184  -0.46849  -0.44098  -0.44061
  Beta virt. eigenvalues --    0.03336   0.04090   0.05043   0.06016   0.06935
  Beta virt. eigenvalues --    0.07819   0.08102   0.09730   0.10543   0.10874
  Beta virt. eigenvalues --    0.11426   0.12273   0.13642   0.14795   0.15356

 Mulliken charges and spin densities:
               1          2
     1  C   -0.800091   0.014987
     2  H    0.209323  -0.001193
     3  C    1.547537  -0.005613
     4  C   -0.650083   0.016647
     5  O   -0.315774   0.008945
     6  O   -0.049819  -0.012223
     7  C   -0.191011   0.887693
     8  C   -0.617855  -0.094172
     9  H    0.239426  -0.028877
    10  H    0.390727  -0.107677
    11  H    0.186117   0.012483
    12  H    0.167814   0.053264
    13  H    0.164003   0.004302
    14  O   -0.547623   0.255904
    15  H    0.267310  -0.004471
 Sum of Mulliken charges =  -0.00000   1.00000

 Dipole moment (field-independent basis, Debye):
    X=              1.9868    Y=             -3.9496    Z=              1.0265  Tot=              4.5387
 Quadrupole moment (field-independent basis, Debye-Ang):
   XX=            -37.8874   YY=            -52.5453   ZZ=            -49.4354
   XY=              4.3130   XZ=             -7.0444   YZ=              1.1337

 01\PMP3-0=-419.2914838\MP4SDQ=-419.3158808\CCSD=-419.3135384\CCSD(T)=-
 Normal termination of Gaussian 16 at Tue Apr 15 05:53:24 2025.
