 Gaussian 16, Revision A.03,
 Gaussian 16:  ES64L-G16RevA.03 25-Dec-2016

 --------------------------
 # ccsd(t)/6-311++g(d,p) sp
 --------------------------

 -------------------
 Title Card Required
 -------------------
 Symbolic Z-matrix:
 Charge =  0 Multiplicity = 2

                         Standard orientation:
 ---------------------------------------------------------------------
 Center     Atomic      Atomic             Coordinates (Angstroms)
 Number     Number       Type             X           Y           Z
 ---------------------------------------------------------------------
      1          6           0        3.341222   -0.490622   -0.438348
      2          1           0        4.334827   -0.757297   -0.714238
      3          6           0        2.223531   -0.192174   -0.128029
      4          6           0        0.887809    0.219822    0.262633
      5          8           0        0.628202    1.274827    0.771353
      6          8           0       -0.015903   -0.728367   -0.015614
      7          6           0       -1.352376   -0.454756    0.360089
      8          6           0       -2.231057   -1.587529   -0.084782
      9          1           0       -1.410196   -0.192363    1.418019
     10          1           0       -1.712531    0.661227   -0.245325
     11          1           0       -2.150635   -1.735734   -1.161974
     12          1           0       -1.930827   -2.511227    0.419250
     13          1           0       -3.269430   -1.371875    0.167082
     14          8           0       -1.853797    1.793187   -0.695681
     15          1           0       -1.144003    2.221647   -0.192655
 ---------------------------------------------------------------------

 SCF Done:  E(UHF) =  -417.963217919     A.U. after   30 cycles
 E2 =    -0.1291628540D+01 EUMP2 =    -0.41925484645869D+03
 CCSD(T)= -0.41935597174D+03

 The electronic state is 2-A.
 Alpha  occ. eigenvalues --  -20.63806 -20.58907 -20.58131 -11.43583 -11.33140
 Alpha  occ. eigenvalues --  -11.27942 -11.27078 -11.24133  -1.50777  -1.40536
 Alpha  occ. eigenvalues --   -1.35608  -1.09698  -1.05998  -0.93797  -0.85263
 Alpha  occ. eigenvalues --   -0.79637  -0.74038  -0.73252  -0.71567  -0.67264
 Alpha  occ. eigenvalues --   -0.62345  -0.61132  -0.60028  -0.57554  -0.54398
 Alpha  occ. eigenvalues --   -0.52424  -0.51621  -0.50271  -0.44045  -0.43797
 Alpha  occ. eigenvalues --   -0.41531
 Alpha virt. eigenvalues --    0.03478   0.04305   0.06074   0.06947   0.07249
 Alpha virt. eigenvalues --    0.07792   0.09279   0.10004   0.10970   0.11513
 Alpha virt. eigenvalues --    0.11932   0.13689   0.14886   0.15213   0.16155

  Beta  occ. eigenvalues --  -20.63705 -20.58092 -20.55978 -11.43589 -11.31339
  Beta  occ. eigenvalues --  -11.27941 -11.27084 -11.24229  -1.50396  -1.40233
  Beta  occ. eigenvalues --   -1.25693  -1.08926  -1.04495  -0.93608  -0.82812
  Beta  occ. eigenvalues --   -0.78616  -0.73987  -0.71149  -0.68833  -0.64034
  Beta  occ. eigenvalues --   -0.60999  -0.58771  -0.57293  -0.53897  -0.51872
  Beta  occ. eigenvalues --   -0.50313  -0.48439  -0.47147  -0.43787  -0.43698
  Beta virt. eigenvalues --    0.03462   0.04254   0.04817   0.06129   0.07074
  Beta virt. eigenvalues --    0.07651   0.07979   0.09821   0.10438   0.11006
  Beta virt. eigenvalues --    0.11578   0.12281   0.13780   0.14975   0.15347

 Mulliken charges and spin densities:
               1          2
     1  C   -0.809263  -0.000493
     2  H    0.207517  -0.000096
     3  C    1.556991   0.007206
     4  C   -0.639054   0.010849
     5  O   -0.326863   0.008343
     6  O   -0.064200  -0.011180
     7  C   -0.211394   0.633888
     8  C   -0.605188  -0.063282
     9  H    0.224670  -0.022873
    10  H    0.301214  -0.218142
    11  H    0.178500   0.007352
    12  H    0.161296   0.035354
    13  H    0.157921   0.002455
    14  O   -0.405273   0.626213
    15  H    0.273125  -0.015595
 Sum of Mulliken charges =  -0.00000   1.00000

 Dipole moment (field-independent basis, Debye):
    X=              1.6690    Y=             -2.9584    Z=              0.6273  Tot=              3.4541
 Quadrupole moment (field-independent basis, Debye-Ang):
   XX=            -37.8701   YY=            -50.8867   ZZ=            -49.3382
   XY=              2.2567   XZ=             -6.2778   YZ=              0.2577

 Normal termination of Gaussian 16 at Tue Apr 15 05:14:17 2025.
