 Gaussian 16, Revision A.03,
 Gaussian 16:  ES64L-G16RevA.03 25-Dec-2016

 --------------------------
 # ccsd(t)/6-311++g(d,p) sp
 --------------------------

 -------------------
 Title Card Required
 -------------------
 Symbolic Z-matrix:
 Charge =  0 Multiplicity = 2

                         Standard orientation:
 ---------------------------------------------------------------------
 Center     Atomic      Atomic             Coordinates (Angstroms)
 Number     Number       Type             X           Y           Z
 ---------------------------------------------------------------------
      1          6           0        3.340967   -0.491217   -0.438302
      2          1           0        4.334434   -0.758298   -0.714135
      3          6           0        2.223425   -0.192312   -0.127998
      4          6           0        0.886982    0.219197    0.262331
      5          8           0        0.628346    1.275061    0.771794
      6          8           0       -0.014787   -0.728050   -0.016187
      7          6           0       -1.354912   -0.450543    0.358497
      8          6           0       -2.231708   -1.587108   -0.085937
      9          1           0       -1.408637   -0.204953    1.421114
     10          1           0       -1.698666    0.581266   -0.211779
     11          1           0       -2.151502   -1.732667   -1.163478
     12          1           0       -1.933698   -2.511337    0.416351
     13          1           0       -3.270147   -1.369905    0.165141
     14          8           0       -1.853612    1.801155   -0.697466
     15          1           0       -1.139889    2.222460   -0.189883
 ---------------------------------------------------------------------

 SCF Done:  E(UHF) =  -417.969216602     A.U. after   34 cycles
 E2 =    -0.1280995713D+01 EUMP2 =    -0.41925021231495D+03
 CCSD(T)= -0.41935386001D+03

 The electronic state is 2-A.
 Alpha  occ. eigenvalues --  -20.62857 -20.61598 -20.57756 -11.43166 -11.31292
 Alpha  occ. eigenvalues --  -11.27640 -11.26817 -11.23282  -1.50032  -1.39914
 Alpha  occ. eigenvalues --   -1.38218  -1.09080  -1.05230  -0.93140  -0.84680
 Alpha  occ. eigenvalues --   -0.79051  -0.73782  -0.73108  -0.71085  -0.67998
 Alpha  occ. eigenvalues --   -0.64331  -0.60620  -0.59605  -0.56705  -0.54610
 Alpha  occ. eigenvalues --   -0.53451  -0.51419  -0.49887  -0.43947  -0.43520
 Alpha  occ. eigenvalues --   -0.42417
 Alpha virt. eigenvalues --    0.03589   0.04498   0.06219   0.06948   0.07487
 Alpha virt. eigenvalues --    0.07767   0.09174   0.10097   0.11062   0.11595
 Alpha virt. eigenvalues --    0.12021   0.13864   0.15046   0.15420   0.16299

  Beta  occ. eigenvalues --  -20.62816 -20.57989 -20.57722 -11.43175 -11.30084
  Beta  occ. eigenvalues --  -11.27647 -11.26812 -11.23344  -1.49824  -1.39723
  Beta  occ. eigenvalues --   -1.25291  -1.08632  -1.04173  -0.93040  -0.82787
  Beta  occ. eigenvalues --   -0.78187  -0.73694  -0.70776  -0.69116  -0.64877
  Beta  occ. eigenvalues --   -0.60369  -0.58844  -0.56545  -0.53138  -0.51617
  Beta  occ. eigenvalues --   -0.50219  -0.49800  -0.46471  -0.43512  -0.43442
  Beta virt. eigenvalues --    0.03577   0.04457   0.05317   0.06254   0.07236
  Beta virt. eigenvalues --    0.07669   0.08125   0.09911   0.10508   0.11112
  Beta virt. eigenvalues --    0.11726   0.12355   0.13923   0.15110   0.15474

 Mulliken charges and spin densities:
               1          2
     1  C   -0.814571  -0.005050
     2  H    0.206136   0.000281
     3  C    1.559535   0.007248
     4  C   -0.636592   0.003677
     5  O   -0.337716   0.006988
     6  O   -0.075964  -0.009712
     7  C   -0.232247   0.407988
     8  C   -0.594875  -0.036923
     9  H    0.210037  -0.017392
    10  H    0.274183  -0.169540
    11  H    0.170813   0.004060
    12  H    0.154823   0.021174
    13  H    0.151524   0.001435
    14  O   -0.312674   0.808098
    15  H    0.277588  -0.022330
 Sum of Mulliken charges =  -0.00000   1.00000

 Dipole moment (field-independent basis, Debye):
    X=              1.3820    Y=             -2.0533    Z=              0.2543  Tot=              2.4881
 Quadrupole moment (field-independent basis, Debye-Ang):
   XX=            -37.7988   YY=            -49.6746   ZZ=            -49.2649
   XY=              0.3755   XZ=             -5.5810   YZ=             -0.4476

 55\PMP3-0=-419.2760363\MP4SDQ=-419.2988077\CCSD=-419.2989613\CCSD(T)=-
 Normal termination of Gaussian 16 at Tue Apr 15 01:56:37 2025.
