 Gaussian 16, Revision A.03,
 Gaussian 16:  ES64L-G16RevA.03 25-Dec-2016

 --------------------------
 # ccsd(t)/6-311++g(d,p) sp
 --------------------------

 -------------------
 Title Card Required
 -------------------
 Symbolic Z-matrix:
 Charge =  0 Multiplicity = 2

                         Standard orientation:
 ---------------------------------------------------------------------
 Center     Atomic      Atomic             Coordinates (Angstroms)
 Number     Number       Type             X           Y           Z
 ---------------------------------------------------------------------
      1          6           0        3.340918   -0.490753   -0.438773
      2          1           0        4.334335   -0.757739   -0.714711
      3          6           0        2.223463   -0.191910   -0.128141
      4          6           0        0.886151    0.218354    0.262207
      5          8           0        0.628191    1.274708    0.773109
      6          8           0       -0.013204   -0.728108   -0.017128
      7          6           0       -1.356543   -0.450446    0.358525
      8          6           0       -2.231730   -1.588190   -0.087688
      9          1           0       -1.406824   -0.219100    1.424553
     10          1           0       -1.694533    0.533062   -0.193453
     11          1           0       -2.151814   -1.729897   -1.165839
     12          1           0       -1.936395   -2.514112    0.411573
     13          1           0       -3.270274   -1.369654    0.162717
     14          8           0       -1.853880    1.809805   -0.697872
     15          1           0       -1.136902    2.223871   -0.186491
 ---------------------------------------------------------------------

 SCF Done:  E(UHF) =  -417.975587340     A.U. after   35 cycles
 E2 =    -0.1275369559D+01 EUMP2 =    -0.41925095689906D+03
 CCSD(T)= -0.41935431705D+03

 The electronic state is 2-A.
 Alpha  occ. eigenvalues --  -20.62549 -20.62377 -20.57611 -11.43029 -11.30438
 Alpha  occ. eigenvalues --  -11.27526 -11.26718 -11.22997  -1.49784  -1.39666
 Alpha  occ. eigenvalues --   -1.38905  -1.08899  -1.05012  -0.92917  -0.84577
 Alpha  occ. eigenvalues --   -0.78858  -0.73692  -0.73015  -0.70908  -0.68272
 Alpha  occ. eigenvalues --   -0.64922  -0.60314  -0.59527  -0.56410  -0.55337
 Alpha  occ. eigenvalues --   -0.53142  -0.51247  -0.49750  -0.44211  -0.43416
 Alpha  occ. eigenvalues --   -0.43004
 Alpha virt. eigenvalues --    0.03626   0.04550   0.06254   0.06921   0.07576
 Alpha virt. eigenvalues --    0.07769   0.09148   0.10137   0.11086   0.11624
 Alpha virt. eigenvalues --    0.12063   0.13926   0.15071   0.15487   0.16353

  Beta  occ. eigenvalues --  -20.62527 -20.58555 -20.57581 -11.43039 -11.29526
  Beta  occ. eigenvalues --  -11.27535 -11.26711 -11.23042  -1.49639  -1.39526
  Beta  occ. eigenvalues --   -1.24931  -1.08552  -1.04191  -0.92846  -0.82947
  Beta  occ. eigenvalues --   -0.78090  -0.73583  -0.70652  -0.69389  -0.65034
  Beta  occ. eigenvalues --   -0.60174  -0.59006  -0.56283  -0.52896  -0.51650
  Beta  occ. eigenvalues --   -0.50603  -0.49713  -0.46668  -0.43406  -0.43379
  Beta virt. eigenvalues --    0.03616   0.04519   0.05573   0.06306   0.07322
  Beta virt. eigenvalues --    0.07699   0.08201   0.09966   0.10599   0.11141
  Beta virt. eigenvalues --    0.11788   0.12395   0.13977   0.15121   0.15518

 Mulliken charges and spin densities:
               1          2
     1  C   -0.815445  -0.005737
     2  H    0.205571   0.000361
     3  C    1.555825   0.005422
     4  C   -0.636585  -0.000209
     5  O   -0.341603   0.006031
     6  O   -0.082262  -0.007679
     7  C   -0.236794   0.299784
     8  C   -0.589528  -0.024135
     9  H    0.203915  -0.013764
    10  H    0.272640  -0.123899
    11  H    0.168060   0.002681
    12  H    0.152678   0.015019
    13  H    0.149414   0.001005
    14  O   -0.284258   0.870235
    15  H    0.278372  -0.025113
 Sum of Mulliken charges =  -0.00000   1.00000

 Dipole moment (field-independent basis, Debye):
    X=              1.2699    Y=             -1.7712    Z=              0.1319  Tot=              2.1834
 Quadrupole moment (field-independent basis, Debye-Ang):
   XX=            -37.7777   YY=            -49.3297   ZZ=            -49.2315
   XY=             -0.2191   XZ=             -5.3553   YZ=             -0.6876

 \PMP3-0=-419.2774542\MP4SDQ=-419.3002322\CCSD=-419.3001179\CCSD(T)=-41
 Normal termination of Gaussian 16 at Thu Apr 17 17:56:42 2025.
