 Gaussian 16, Revision A.03,
 Gaussian 16:  ES64L-G16RevA.03 25-Dec-2016

 --------------------------
 # ccsd(t)/6-311++g(d,p) sp
 --------------------------

 -------------------
 Title Card Required
 -------------------
 Symbolic Z-matrix:
 Charge =  0 Multiplicity = 2

                         Standard orientation:
 ---------------------------------------------------------------------
 Center     Atomic      Atomic             Coordinates (Angstroms)
 Number     Number       Type             X           Y           Z
 ---------------------------------------------------------------------
      1          6           0        3.341648   -0.489166   -0.438799
      2          1           0        4.335430   -0.755041   -0.714969
      3          6           0        2.223750   -0.191627   -0.128201
      4          6           0        0.888699    0.220302    0.263072
      5          8           0        0.627844    1.274188    0.771598
      6          8           0       -0.016841   -0.728872   -0.015304
      7          6           0       -1.348873   -0.462437    0.362972
      8          6           0       -2.229864   -1.588815   -0.084017
      9          1           0       -1.411891   -0.178396    1.414384
     10          1           0       -1.734265    0.767324   -0.292047
     11          1           0       -2.149327   -1.739233   -1.161056
     12          1           0       -1.927725   -2.512827    0.420842
     13          1           0       -3.268259   -1.375111    0.168878
     14          8           0       -1.854319    1.784815   -0.692604
     15          1           0       -1.149590    2.222693   -0.195716
 ---------------------------------------------------------------------

 SCF Done:  E(UHF) =  -417.973011009     A.U. after   30 cycles
 E2 =    -0.1297097100D+01 EUMP2 =    -0.41927010810835D+03
 CCSD(T)= -0.41936576205D+03

 The electronic state is 2-A.
 Alpha  occ. eigenvalues --  -20.64792 -20.58545 -20.55079 -11.44053 -11.34162
 Alpha  occ. eigenvalues --  -11.28280 -11.27356 -11.24949  -1.51587  -1.41180
 Alpha  occ. eigenvalues --   -1.32712  -1.10395  -1.06691  -0.94484  -0.85874
 Alpha  occ. eigenvalues --   -0.80300  -0.74348  -0.73698  -0.71980  -0.66884
 Alpha  occ. eigenvalues --   -0.62638  -0.60800  -0.58448  -0.58322  -0.55255
 Alpha  occ. eigenvalues --   -0.52786  -0.50663  -0.48680  -0.44255  -0.44096
 Alpha  occ. eigenvalues --   -0.40366
 Alpha virt. eigenvalues --    0.03348   0.04094   0.05891   0.06812   0.07021
 Alpha virt. eigenvalues --    0.07810   0.09422   0.09951   0.10839   0.11394
 Alpha virt. eigenvalues --    0.11867   0.13491   0.14696   0.15006   0.15999

  Beta  occ. eigenvalues --  -20.64617 -20.58506 -20.53449 -11.44046 -11.31809
  Beta  occ. eigenvalues --  -11.28255 -11.27386 -11.25085  -1.50992  -1.40771
  Beta  occ. eigenvalues --   -1.27539  -1.09247  -1.04817  -0.94183  -0.82888
  Beta  occ. eigenvalues --   -0.79038  -0.74295  -0.71520  -0.68620  -0.63934
  Beta  occ. eigenvalues --   -0.61645  -0.58841  -0.58004  -0.54717  -0.52677
  Beta  occ. eigenvalues --   -0.51043  -0.49870  -0.46800  -0.44077  -0.44032
  Beta virt. eigenvalues --    0.03341   0.04090   0.04887   0.06011   0.06940
  Beta virt. eigenvalues --    0.07817   0.07983   0.09731   0.10512   0.10877
  Beta virt. eigenvalues --    0.11437   0.12260   0.13645   0.14796   0.15320

 Mulliken charges and spin densities:
               1          2
     1  C   -0.801495   0.012042
     2  H    0.209118  -0.000990
     3  C    1.548833  -0.002848
     4  C   -0.647394   0.015928
     5  O   -0.316210   0.008861
     6  O   -0.051759  -0.011108
     7  C   -0.194390   0.854077
     8  C   -0.615934  -0.089609
     9  H    0.238761  -0.027270
    10  H    0.378977  -0.133193
    11  H    0.185846   0.011671
    12  H    0.167646   0.050941
    13  H    0.163871   0.003971
    14  O   -0.533125   0.313578
    15  H    0.267255  -0.006052
 Sum of Mulliken charges =  -0.00000   1.00000

 Dipole moment (field-independent basis, Debye):
    X=              1.9662    Y=             -3.9054    Z=              1.0093  Tot=              4.4874
 Quadrupole moment (field-independent basis, Debye-Ang):
   XX=            -37.9015   YY=            -52.4166   ZZ=            -49.4291
   XY=              4.2144   XZ=             -7.0045   YZ=              1.0657

 04\PMP3-0=-419.2883931\MP4SDQ=-419.3126467\CCSD=-419.3103996\CCSD(T)=-
 Normal termination of Gaussian 16 at Thu Apr 17 13:50:30 2025.
