 Gaussian 16, Revision A.03,
 Gaussian 16:  ES64L-G16RevA.03 25-Dec-2016

 --------------------------
 # ccsd(t)/6-311++g(d,p) sp
 --------------------------

 -------------------
 Title Card Required
 -------------------
 Symbolic Z-matrix:
 Charge =  0 Multiplicity = 2

                         Standard orientation:
 ---------------------------------------------------------------------
 Center     Atomic      Atomic             Coordinates (Angstroms)
 Number     Number       Type             X           Y           Z
 ---------------------------------------------------------------------
      1          6           0        3.341424   -0.489978   -0.438522
      2          1           0        4.335117   -0.756287   -0.714528
      3          6           0        2.223632   -0.191944   -0.128095
      4          6           0        0.888266    0.220092    0.262844
      5          8           0        0.628038    1.274548    0.771373
      6          8           0       -0.016411   -0.728618   -0.015403
      7          6           0       -1.350685   -0.458273    0.361417
      8          6           0       -2.230502   -1.588111   -0.084307
      9          1           0       -1.411040   -0.185337    1.416253
     10          1           0       -1.722931    0.714506   -0.268470
     11          1           0       -2.150009   -1.737548   -1.161391
     12          1           0       -1.929204   -2.511848    0.420312
     13          1           0       -3.268875   -1.373428    0.168063
     14          8           0       -1.854020    1.788746   -0.694226
     15          1           0       -1.146733    2.221822   -0.194214
 ---------------------------------------------------------------------

 SCF Done:  E(UHF) =  -417.965794904     A.U. after   31 cycles
 E2 =    -0.1296464047D+01 EUMP2 =    -0.41926225895131D+03
 CCSD(T)= -0.41936013217D+03

 The electronic state is 2-A.
 Alpha  occ. eigenvalues --  -20.64462 -20.58398 -20.56653 -11.43887 -11.34011
 Alpha  occ. eigenvalues --  -11.28158 -11.27260 -11.24698  -1.51308  -1.40953
 Alpha  occ. eigenvalues --   -1.33622  -1.10167  -1.06482  -0.94254  -0.85721
 Alpha  occ. eigenvalues --   -0.80079  -0.74237  -0.73523  -0.71854  -0.66848
 Alpha  occ. eigenvalues --   -0.62386  -0.60700  -0.59378  -0.58120  -0.54989
 Alpha  occ. eigenvalues --   -0.52584  -0.50548  -0.49841  -0.44178  -0.43990
 Alpha  occ. eigenvalues --   -0.40978
 Alpha virt. eigenvalues --    0.03393   0.04163   0.05954   0.06874   0.07094
 Alpha virt. eigenvalues --    0.07810   0.09375   0.09959   0.10887   0.11442
 Alpha virt. eigenvalues --    0.11892   0.13563   0.14756   0.15073   0.16056

  Beta  occ. eigenvalues --  -20.64315 -20.58358 -20.54391 -11.43887 -11.31880
  Beta  occ. eigenvalues --  -11.28145 -11.27277 -11.24816  -1.50798  -1.40584
  Beta  occ. eigenvalues --   -1.26286  -1.09145  -1.04759  -0.93994  -0.82914
  Beta  occ. eigenvalues --   -0.78936  -0.74188  -0.71406  -0.68734  -0.63618
  Beta  occ. eigenvalues --   -0.61429  -0.58795  -0.57779  -0.54435  -0.52200
  Beta  occ. eigenvalues --   -0.50651  -0.48579  -0.47214  -0.43975  -0.43910
  Beta virt. eigenvalues --    0.03380   0.04131   0.04698   0.06044   0.06985
  Beta virt. eigenvalues --    0.07730   0.07909   0.09761   0.10461   0.10920
  Beta virt. eigenvalues --    0.11486   0.12255   0.13686   0.14852   0.15295

 Mulliken charges and spin densities:
               1          2
     1  C   -0.804916   0.005515
     2  H    0.208485  -0.000535
     3  C    1.552524   0.002988
     4  C   -0.642622   0.014055
     5  O   -0.319601   0.008719
     6  O   -0.056990  -0.010455
     7  C   -0.200315   0.764236
     8  C   -0.611637  -0.078487
     9  H    0.234081  -0.024918
    10  H    0.342455  -0.188436
    11  H    0.183518   0.009722
    12  H    0.165672   0.044520
    13  H    0.162069   0.003236
    14  O   -0.481808   0.460179
    15  H    0.269083  -0.010339
 Sum of Mulliken charges =  -0.00000   1.00000

 Dipole moment (field-independent basis, Debye):
    X=              1.8633    Y=             -3.5926    Z=              0.8842  Tot=              4.1426
 Quadrupole moment (field-independent basis, Debye-Ang):
   XX=            -37.9043   YY=            -51.8445   ZZ=            -49.3943
   XY=              3.5641   XZ=             -6.7608   YZ=              0.7708

 Normal termination of Gaussian 16 at Tue Apr 15 03:15:20 2025.
