 Gaussian 16, Revision A.03,
 Gaussian 16:  ES64L-G16RevA.03 25-Dec-2016

 --------------------------
 # ccsd(t)/6-311++g(d,p) sp
 --------------------------

 -------------------
 Title Card Required
 -------------------
 Symbolic Z-matrix:
 Charge =  0 Multiplicity = 2

                         Standard orientation:
 ---------------------------------------------------------------------
 Center     Atomic      Atomic             Coordinates (Angstroms)
 Number     Number       Type             X           Y           Z
 ---------------------------------------------------------------------
      1          6           0        3.341320   -0.490321   -0.438422
      2          1           0        4.334969   -0.756822   -0.714364
      3          6           0        2.223579   -0.192070   -0.128058
      4          6           0        0.888043    0.219965    0.262736
      5          8           0        0.628125    1.274698    0.771338
      6          8           0       -0.016171   -0.728491   -0.015494
      7          6           0       -1.351539   -0.456443    0.360728
      8          6           0       -2.230789   -1.587801   -0.084521
      9          1           0       -1.410625   -0.188797    1.417134
     10          1           0       -1.717625    0.687896   -0.256836
     11          1           0       -2.150328   -1.736658   -1.161650
     12          1           0       -1.929996   -2.511488    0.419849
     13          1           0       -3.269160   -1.372634    0.167596
     14          8           0       -1.853900    1.790901   -0.694976
     15          1           0       -1.145356    2.221656   -0.193445
 ---------------------------------------------------------------------

 SCF Done:  E(UHF) =  -417.963784535     A.U. after   31 cycles
 E2 =    -0.1294538162D+01 EUMP2 =    -0.41925832269732D+03
 CCSD(T)= -0.41935779569D+03

 The electronic state is 2-A.
 Alpha  occ. eigenvalues --  -20.64163 -20.58275 -20.57739 -11.43747 -11.33662
 Alpha  occ. eigenvalues --  -11.28058 -11.27177 -11.24445  -1.51064  -1.40762
 Alpha  occ. eigenvalues --   -1.34531  -1.09952  -1.06269  -0.94046  -0.85518
 Alpha  occ. eigenvalues --   -0.79876  -0.74144  -0.73380  -0.71729  -0.67015
 Alpha  occ. eigenvalues --   -0.62226  -0.60804  -0.59933  -0.57865  -0.54725
 Alpha  occ. eigenvalues --   -0.52438  -0.50788  -0.50394  -0.44116  -0.43901
 Alpha  occ. eigenvalues --   -0.41273
 Alpha virt. eigenvalues --    0.03432   0.04228   0.06010   0.06915   0.07163
 Alpha virt. eigenvalues --    0.07804   0.09330   0.09976   0.10927   0.11476
 Alpha virt. eigenvalues --    0.11909   0.13622   0.14816   0.15136   0.16102

  Beta  occ. eigenvalues --  -20.64038 -20.58235 -20.55134 -11.43750 -11.31682
  Beta  occ. eigenvalues --  -11.28051 -11.27188 -11.24553  -1.50616  -1.40423
  Beta  occ. eigenvalues --   -1.25913  -1.09046  -1.04645  -0.93819  -0.82872
  Beta  occ. eigenvalues --   -0.78795  -0.74096  -0.71291  -0.68783  -0.63752
  Beta  occ. eigenvalues --   -0.61235  -0.58779  -0.57563  -0.54190  -0.52029
  Beta  occ. eigenvalues --   -0.50480  -0.47925  -0.47631  -0.43889  -0.43811
  Beta virt. eigenvalues --    0.03418   0.04183   0.04718   0.06083   0.07026
  Beta virt. eigenvalues --    0.07678   0.07937   0.09789   0.10444   0.10960
  Beta virt. eigenvalues --    0.11528   0.12264   0.13728   0.14909   0.15312

 Mulliken charges and spin densities:
               1          2
     1  C   -0.807034   0.002301
     2  H    0.208031  -0.000304
     3  C    1.554812   0.005487
     4  C   -0.640660   0.012675
     5  O   -0.322862   0.008584
     6  O   -0.060400  -0.010810
     7  C   -0.204851   0.704224
     8  C   -0.608699  -0.071440
     9  H    0.229811  -0.023985
    10  H    0.320735  -0.209428
    11  H    0.181268   0.008571
    12  H    0.163711   0.040222
    13  H    0.160225   0.002846
    14  O   -0.445054   0.543984
    15  H    0.270967  -0.012929
 Sum of Mulliken charges =  -0.00000   1.00000

 Dipole moment (field-independent basis, Debye):
    X=              1.7747    Y=             -3.3046    Z=              0.7680  Tot=              3.8288
 Quadrupole moment (field-independent basis, Debye-Ang):
   XX=            -37.8912   YY=            -51.3933   ZZ=            -49.3674
   XY=              2.9705   XZ=             -6.5414   YZ=              0.5327

 Normal termination of Gaussian 16 at Tue Apr 15 10:12:36 2025.
