 Gaussian 16, Revision A.03,
 Gaussian 16:  ES64L-G16RevA.03 25-Dec-2016

 --------------------------
 # ccsd(t)/6-311++g(d,p) sp
 --------------------------

 -------------------
 Title Card Required
 -------------------
 Symbolic Z-matrix:
 Charge =  0 Multiplicity = 2

                         Standard orientation:
 ---------------------------------------------------------------------
 Center     Atomic      Atomic             Coordinates (Angstroms)
 Number     Number       Type             X           Y           Z
 ---------------------------------------------------------------------
      1          6           0        3.341219   -0.485813   -0.441940
      2          1           0        4.334469   -0.751163   -0.719824
      3          6           0        2.223888   -0.188712   -0.129091
      4          6           0        0.883897    0.215389    0.262788
      5          8           0        0.625883    1.270414    0.780554
      6          8           0       -0.007876   -0.730814   -0.021915
      7          6           0       -1.358907   -0.464778    0.363122
      8          6           0       -2.230152   -1.599921   -0.097274
      9          1           0       -1.400121   -0.271409    1.436878
     10          1           0       -1.699676    0.460461   -0.157340
     11          1           0       -2.151141   -1.722977   -1.177933
     12          1           0       -1.943738   -2.535249    0.386920
     13          1           0       -3.268591   -1.378061    0.152842
     14          8           0       -1.855894    1.848965   -0.695438
     15          1           0       -1.127773    2.232880   -0.172784
 ---------------------------------------------------------------------

 SCF Done:  E(UHF) =  -417.985744367     A.U. after   30 cycles
 E2 =    -0.1268141364D+01 EUMP2 =    -0.41925388573111D+03
 CCSD(T)= -0.41935598636D+03

 The electronic state is 2-A.
 Alpha  occ. eigenvalues --  -20.62901 -20.62364 -20.57469 -11.42939 -11.29693
 Alpha  occ. eigenvalues --  -11.27412 -11.26623 -11.22831  -1.49575  -1.39422
 Alpha  occ. eigenvalues --   -1.39104  -1.08781  -1.04965  -0.92751  -0.84517
 Alpha  occ. eigenvalues --   -0.78630  -0.73574  -0.72659  -0.70765  -0.68380
 Alpha  occ. eigenvalues --   -0.65285  -0.60110  -0.59711  -0.56195  -0.55747
 Alpha  occ. eigenvalues --   -0.52929  -0.51260  -0.49647  -0.45500  -0.43340
 Alpha  occ. eigenvalues --   -0.43252
 Alpha virt. eigenvalues --    0.03656   0.04566   0.06274   0.06890   0.07648
 Alpha virt. eigenvalues --    0.07780   0.09115   0.10181   0.11126   0.11650
 Alpha virt. eigenvalues --    0.12100   0.13992   0.14992   0.15519   0.16403

  Beta  occ. eigenvalues --  -20.62357 -20.58903 -20.57447 -11.42948 -11.29129
  Beta  occ. eigenvalues --  -11.27421 -11.26615 -11.22856  -1.49494  -1.39334
  Beta  occ. eigenvalues --   -1.24144  -1.08529  -1.04438  -0.92706  -0.83325
  Beta  occ. eigenvalues --   -0.78057  -0.73473  -0.70568  -0.69836  -0.64820
  Beta  occ. eigenvalues --   -0.60159  -0.59348  -0.56094  -0.52768  -0.51814
  Beta  occ. eigenvalues --   -0.50778  -0.49619  -0.47223  -0.43334  -0.43291
  Beta virt. eigenvalues --    0.03649   0.04554   0.05830   0.06351   0.07384
  Beta virt. eigenvalues --    0.07739   0.08274   0.10047   0.10780   0.11159
  Beta virt. eigenvalues --    0.11834   0.12401   0.14042   0.15036   0.15532

 Mulliken charges and spin densities:
               1          2
     1  C   -0.807544  -0.005411
     2  H    0.205220   0.000371
     3  C    1.535493   0.002313
     4  C   -0.638386  -0.004627
     5  O   -0.344565   0.004565
     6  O   -0.090616  -0.004713
     7  C   -0.224162   0.181804
     8  C   -0.580700  -0.010497
     9  H    0.197343  -0.009015
    10  H    0.265140  -0.069684
    11  H    0.165832   0.001243
    12  H    0.151084   0.008559
    13  H    0.148252   0.000556
    14  O   -0.260925   0.932727
    15  H    0.278534  -0.028190
 Sum of Mulliken charges =  -0.00000   1.00000

 Dipole moment (field-independent basis, Debye):
    X=              1.1612    Y=             -1.6315    Z=              0.0547  Tot=              2.0033
 Quadrupole moment (field-independent basis, Debye-Ang):
   XX=            -37.8050   YY=            -49.1678   ZZ=            -49.2024
   XY=             -0.4636   XZ=             -5.2305   YZ=             -0.8756

 Normal termination of Gaussian 16 at Tue Apr 15 08:50:59 2025.
