 Gaussian 16, Revision A.03,
 Gaussian 16:  ES64L-G16RevA.03 25-Dec-2016

 --------------------------
 # ccsd(t)/6-311++g(d,p) sp
 --------------------------

 -------------------
 Title Card Required
 -------------------
 Symbolic Z-matrix:
 Charge =  0 Multiplicity = 2

                         Standard orientation:
 ---------------------------------------------------------------------
 Center     Atomic      Atomic             Coordinates (Angstroms)
 Number     Number       Type             X           Y           Z
 ---------------------------------------------------------------------
      1          6           0        3.340922   -0.491108   -0.438473
      2          1           0        4.334382   -0.758173   -0.714257
      3          6           0        2.223427   -0.192181   -0.128054
      4          6           0        0.886592    0.218828    0.262249
      5          8           0        0.628312    1.274974    0.772304
      6          8           0       -0.014093   -0.728033   -0.016571
      7          6           0       -1.355753   -0.450044    0.358335
      8          6           0       -2.231774   -1.587410   -0.086664
      9          1           0       -1.407891   -0.211383    1.422650
     10          1           0       -1.695820    0.555873   -0.201992
     11          1           0       -2.151692   -1.731375   -1.164468
     12          1           0       -1.934928   -2.512279    0.414378
     13          1           0       -3.270274   -1.369596    0.164054
     14          8           0       -1.853703    1.804991   -0.697775
     15          1           0       -1.138389    2.222973   -0.188394
 ---------------------------------------------------------------------

 SCF Done:  E(UHF) =  -417.972499440     A.U. after   35 cycles
 E2 =    -0.1277912706D+01 EUMP2 =    -0.41925041214588D+03
 CCSD(T)= -0.41935400839D+03

 The electronic state is 2-A.
 Alpha  occ. eigenvalues --  -20.62671 -20.62070 -20.57674 -11.43085 -11.30806
 Alpha  occ. eigenvalues --  -11.27575 -11.26760 -11.23111  -1.49885  -1.39773
 Alpha  occ. eigenvalues --   -1.38652  -1.08970  -1.05091  -0.93008  -0.84609
 Alpha  occ. eigenvalues --   -0.78939  -0.73732  -0.73067  -0.70981  -0.68162
 Alpha  occ. eigenvalues --   -0.64699  -0.60442  -0.59540  -0.56530  -0.55053
 Alpha  occ. eigenvalues --   -0.53269  -0.51310  -0.49806  -0.44029  -0.43460
 Alpha  occ. eigenvalues --   -0.42756
 Alpha virt. eigenvalues --    0.03611   0.04531   0.06241   0.06934   0.07539
 Alpha virt. eigenvalues --    0.07768   0.09159   0.10120   0.11077   0.11612
 Alpha virt. eigenvalues --    0.12044   0.13900   0.15066   0.15461   0.16330

  Beta  occ. eigenvalues --  -20.62642 -20.58336 -20.57642 -11.43094 -11.29763
  Beta  occ. eigenvalues --  -11.27583 -11.26754 -11.23163  -1.49714  -1.39611
  Beta  occ. eigenvalues --   -1.25116  -1.08582  -1.04164  -0.92925  -0.82858
  Beta  occ. eigenvalues --   -0.78124  -0.73631  -0.70703  -0.69253  -0.64992
  Beta  occ. eigenvalues --   -0.60249  -0.58919  -0.56390  -0.52992  -0.51623
  Beta  occ. eigenvalues --   -0.50451  -0.49761  -0.46544  -0.43452  -0.43403
  Beta virt. eigenvalues --    0.03600   0.04495   0.05462   0.06284   0.07284
  Beta virt. eigenvalues --    0.07685   0.08167   0.09940   0.10553   0.11130
  Beta virt. eigenvalues --    0.11761   0.12378   0.13954   0.15121   0.15501

 Mulliken charges and spin densities:
               1          2
     1  C   -0.815311  -0.005535
     2  H    0.205816   0.000332
     3  C    1.558191   0.006346
     4  C   -0.636471   0.001523
     5  O   -0.339975   0.006479
     6  O   -0.079393  -0.008655
     7  C   -0.235589   0.347309
     8  C   -0.592064  -0.029758
     9  H    0.206559  -0.015426
    10  H    0.272866  -0.144906
    11  H    0.169185   0.003276
    12  H    0.153546   0.017682
    13  H    0.150245   0.001190
    14  O   -0.295726   0.844038
    15  H    0.278120  -0.023895
 Sum of Mulliken charges =  -0.00000   1.00000

 Dipole moment (field-independent basis, Debye):
    X=              1.3184    Y=             -1.8816    Z=              0.1809  Tot=              2.3046
 Quadrupole moment (field-independent basis, Debye-Ang):
   XX=            -37.7846   YY=            -49.4627   ZZ=            -49.2467
   XY=              0.0141   XZ=             -5.4447   YZ=             -0.5892

 Normal termination of Gaussian 16 at Tue Apr 15 08:07:36 2025.
