 Gaussian 16, Revision A.03,
 Gaussian 16:  ES64L-G16RevA.03 25-Dec-2016

 --------------------------
 # ccsd(t)/6-311++g(d,p) sp
 --------------------------

 -------------------
 Title Card Required
 -------------------
 Symbolic Z-matrix:
 Charge =  0 Multiplicity = 2

                         Standard orientation:
 ---------------------------------------------------------------------
 Center     Atomic      Atomic             Coordinates (Angstroms)
 Number     Number       Type             X           Y           Z
 ---------------------------------------------------------------------
      1          6           0        3.341045   -0.491074   -0.438285
      2          1           0        4.334561   -0.758037   -0.714115
      3          6           0        2.223453   -0.192299   -0.127999
      4          6           0        0.887287    0.219448    0.262431
      5          8           0        0.628316    1.275010    0.771571
      6          8           0       -0.015226   -0.728144   -0.015954
      7          6           0       -1.354048   -0.451794    0.358972
      8          6           0       -2.231518   -1.587170   -0.085477
      9          1           0       -1.409223   -0.200287    1.419961
     10          1           0       -1.703071    0.607933   -0.222817
     11          1           0       -2.151217   -1.733754   -1.162871
     12          1           0       -1.932649   -2.511110    0.417540
     13          1           0       -3.269922   -1.370505    0.165869
     14          8           0       -1.853652    1.798266   -0.696932
     15          1           0       -1.141297    2.222041   -0.190896
 ---------------------------------------------------------------------

 SCF Done:  E(UHF) =  -417.966224501     A.U. after   33 cycles
 E2 =    -0.1284500114D+01 EUMP2 =    -0.41925072461499D+03
 CCSD(T)= -0.41935404876D+03

 The electronic state is 2-A.
 Alpha  occ. eigenvalues --  -20.63119 -20.60908 -20.57861 -11.43279 -11.31883
 Alpha  occ. eigenvalues --  -11.27724 -11.26890 -11.23518  -1.50236  -1.40092
 Alpha  occ. eigenvalues --   -1.37552  -1.09240  -1.05442  -0.93321  -0.84811
 Alpha  occ. eigenvalues --   -0.79204  -0.73848  -0.73138  -0.71224  -0.67785
 Alpha  occ. eigenvalues --   -0.63763  -0.60845  -0.59731  -0.56944  -0.54020
 Alpha  occ. eigenvalues --   -0.53643  -0.51575  -0.49995  -0.43941  -0.43597
 Alpha  occ. eigenvalues --   -0.42073
 Alpha virt. eigenvalues --    0.03559   0.04448   0.06184   0.06960   0.07420
 Alpha virt. eigenvalues --    0.07771   0.09198   0.10069   0.11040   0.11573
 Alpha virt. eigenvalues --    0.11992   0.13815   0.15009   0.15363   0.16258

  Beta  occ. eigenvalues --  -20.63062 -20.57824 -20.57474 -11.43287 -11.30483
  Beta  occ. eigenvalues --  -11.27729 -11.26888 -11.23592  -1.49980  -1.39866
  Beta  occ. eigenvalues --   -1.25438  -1.08707  -1.04235  -0.93198  -0.82752
  Beta  occ. eigenvalues --   -0.78291  -0.73777  -0.70878  -0.68994  -0.64668
  Beta  occ. eigenvalues --   -0.60541  -0.58795  -0.56755  -0.53344  -0.51652
  Beta  occ. eigenvalues --   -0.50076  -0.49626  -0.46513  -0.43590  -0.43502
  Beta virt. eigenvalues --    0.03546   0.04402   0.05144   0.06218   0.07181
  Beta virt. eigenvalues --    0.07654   0.08078   0.09882   0.10471   0.11085
  Beta virt. eigenvalues --    0.11681   0.12329   0.13882   0.15081   0.15436

 Mulliken charges and spin densities:
               1          2
     1  C   -0.813154  -0.004121
     2  H    0.206536   0.000196
     3  C    1.559511   0.007888
     4  C   -0.637061   0.006156
     5  O   -0.334689   0.007507
     6  O   -0.072097  -0.010650
     7  C   -0.226628   0.480139
     8  C   -0.597910  -0.045407
     9  H    0.214380  -0.019476
    10  H    0.278303  -0.194143
    11  H    0.173005   0.005035
    12  H    0.156597   0.025486
    13  H    0.153327   0.001738
    14  O   -0.336730   0.760040
    15  H    0.276611  -0.020388
 Sum of Mulliken charges =  -0.00000   1.00000

 Dipole moment (field-independent basis, Debye):
    X=              1.4633    Y=             -2.2993    Z=              0.3567  Tot=              2.7487
 Quadrupole moment (field-independent basis, Debye-Ang):
   XX=            -37.8201   YY=            -49.9902   ZZ=            -49.2861
   XY=              0.8899   XZ=             -5.7718   YZ=             -0.2550

 Normal termination of Gaussian 16 at Thu Apr 17 13:09:58 2025.
