 Gaussian 16, Revision A.03,
 Gaussian 16:  ES64L-G16RevA.03 25-Dec-2016

 -----------------------------------------------------
 # opt=(calcfc,tight,ts,noeigentest) freq 6-31+g m062x
 -----------------------------------------------------

 -------------------
 Title Card Required
 -------------------
 Symbolic Z-matrix:
 Charge =  0 Multiplicity = 2

 SCF Done:  E(UM062X) =  -419.925771492     A.U. after   22 cycles
 SCF Done:  E(UM062X) =  -419.921479982     A.U. after   21 cycles
 SCF Done:  E(UM062X) =  -419.915615893     A.U. after   20 cycles
 SCF Done:  E(UM062X) =  -419.926035877     A.U. after   20 cycles
 SCF Done:  E(UM062X) =  -419.933917057     A.U. after   22 cycles
 SCF Done:  E(UM062X) =  -419.928437416     A.U. after   23 cycles
 SCF Done:  E(UM062X) =  -419.926323896     A.U. after   22 cycles
 SCF Done:  E(UM062X) =  -419.921529570     A.U. after   22 cycles
 SCF Done:  E(UM062X) =  -419.918577643     A.U. after   22 cycles
 SCF Done:  E(UM062X) =  -419.923040692     A.U. after   22 cycles
 SCF Done:  E(UM062X) =  -419.921388432     A.U. after   18 cycles
 SCF Done:  E(UM062X) =  -419.921390336     A.U. after   16 cycles
 SCF Done:  E(UM062X) =  -419.921390427     A.U. after   15 cycles
 SCF Done:  E(UM062X) =  -419.921390389     A.U. after   13 cycles
 SCF Done:  E(UM062X) =  -419.921390410     A.U. after   11 cycles
 SCF Done:  E(UM062X) =  -419.921390402     A.U. after   14 cycles
 SCF Done:  E(UM062X) =  -419.921390416     A.U. after   14 cycles
 SCF Done:  E(UM062X) =  -419.921390412     A.U. after    7 cycles
 SCF Done:  E(UM062X) =  -419.921390413     A.U. after    5 cycles
 Optimization completed.
    -- Stationary point found.
 Normal termination of Gaussian 16 at Fri Jun  6 14:58:45 2025.

 ------------------------------------------------------------------
 #N Geom=AllCheck Guess=TCheck SCRF=Check GenChk UM062X/6-31+G Freq
 ------------------------------------------------------------------

 Structure from the checkpoint file:  "ethyl_propiolate.chk"
 -------------------
 Title Card Required
 -------------------
 Charge =  0 Multiplicity = 2

                         Standard orientation:
 ---------------------------------------------------------------------
 Center     Atomic      Atomic             Coordinates (Angstroms)
 Number     Number       Type             X           Y           Z
 ---------------------------------------------------------------------
      1          8           0        4.585353   -0.342233    0.320154
      2          1           0        4.707347    0.569136   -0.018781
      3          6           0        2.289635   -0.190234   -0.088193
      4          1           0        3.773546   -0.778109   -0.126999
      5          6           0        1.105902    0.091725   -0.114597
      6          6           0       -0.293362    0.440960   -0.173081
      7          8           0       -0.733480    1.574888    0.010367
      8          8           0       -1.071073   -0.631407   -0.461237
      9          6           0       -2.525762   -0.410583   -0.530120
     10          6           0       -3.125834   -0.386563    0.864077
     11          1           0       -2.878044   -1.255497   -1.119975
     12          1           0       -2.704063    0.524583   -1.065836
     13          1           0       -4.214648   -0.303392    0.796799
     14          1           0       -2.881840   -1.307038    1.399895
     15          1           0       -2.752163    0.468494    1.432110
 ---------------------------------------------------------------------

 SCF Done:  E(UM062X) =  -419.921390413     A.U. after    1 cycles

 The electronic state is 2-A.
 Alpha  occ. eigenvalues --  -19.71518 -19.70850 -19.66733 -10.73585 -10.62818
 Alpha  occ. eigenvalues --  -10.62111 -10.59841 -10.54971  -1.26275  -1.20086
 Alpha  occ. eigenvalues --   -1.17096  -0.91654  -0.88102  -0.78674  -0.71571
 Alpha  occ. eigenvalues --   -0.68384  -0.63890  -0.57959  -0.56209  -0.55191
 Alpha  occ. eigenvalues --   -0.54091  -0.49562  -0.47070  -0.46685  -0.45391
 Alpha  occ. eigenvalues --   -0.42753  -0.42022  -0.39849  -0.38616  -0.38071
 Alpha  occ. eigenvalues --   -0.37103
 Alpha virt. eigenvalues --   -0.03149   0.01009   0.02162   0.02999   0.03432
 Alpha virt. eigenvalues --    0.04699   0.04951   0.06491   0.07417   0.08302
 Alpha virt. eigenvalues --    0.08815   0.08969   0.09314   0.11352   0.12407

  Beta  occ. eigenvalues --  -19.70861 -19.70661 -19.66751 -10.73558 -10.62112
  Beta  occ. eigenvalues --  -10.61686 -10.59755 -10.54971  -1.26294  -1.17292
  Beta  occ. eigenvalues --   -1.17134  -0.90920  -0.87242  -0.78107  -0.71012
  Beta  occ. eigenvalues --   -0.66004  -0.63830  -0.57990  -0.56268  -0.54356
  Beta  occ. eigenvalues --   -0.49565  -0.49425  -0.47075  -0.45345  -0.43310
  Beta  occ. eigenvalues --   -0.42317  -0.39199  -0.38462  -0.36874  -0.36331
  Beta virt. eigenvalues --   -0.16375  -0.02123   0.01459   0.02309   0.03463
  Beta virt. eigenvalues --    0.03753   0.04786   0.05015   0.06573   0.07671
  Beta virt. eigenvalues --    0.08290   0.08868   0.09050   0.09466   0.11617

 Mulliken charges and spin densities:
               1          2
     1  O   -0.553262   0.352184
     2  H    0.440319  -0.014183
     3  C   -0.237720   0.748086
     4  H    0.481637  -0.025359
     5  C   -0.092345  -0.045840
     6  C    0.215954  -0.003813
     7  O   -0.360512  -0.008719
     8  O   -0.223279  -0.001671
     9  C   -0.227983   0.000158
    10  C   -0.565431  -0.000666
    11  H    0.221913  -0.000053
    12  H    0.234808  -0.000039
    13  H    0.207987  -0.000113
    14  H    0.221337  -0.000004
    15  H    0.236574   0.000032
 Sum of Mulliken charges =  -0.00000   1.00000

 Dipole moment (field-independent basis, Debye):
    X=             -0.8051    Y=             -0.4784    Z=             -1.3587  Tot=              1.6502
 Quadrupole moment (field-independent basis, Debye-Ang):
   XX=            -36.4813   YY=            -53.4234   ZZ=            -48.7338
   XY=              8.5110   XZ=             -4.8433   YZ=             -0.3395

  Exact polarizability: 145.620 -10.353  60.888   3.006   0.987  47.041
 Approx polarizability: 121.847 -14.699  75.928   3.729   3.465  48.545

 ******    1 imaginary frequencies (negative Signs) ******

                      1                      2                      3
                      A                      A                      A
 Frequencies --   -798.5113                42.9027                55.4648
 Red. masses --      1.0402                 3.4930                 5.9435
 Frc consts  --      0.3908                 0.0038                 0.0108
 IR Inten    --    145.7658                13.6960                 2.3956

                      4                      5                      6
                      A                      A                      A
 Frequencies --     73.9918               102.3532               124.9956
 Red. masses --      1.6636                 2.5912                 3.4880
 Frc consts  --      0.0054                 0.0160                 0.0321
 IR Inten    --     40.5118                14.6568                45.4051

                      7                      8                      9
                      A                      A                      A
 Frequencies --    174.2344               209.9531               260.9809
 Red. masses --      3.4115                 1.4484                 3.3894
 Frc consts  --      0.0610                 0.0376                 0.1360
 IR Inten    --      4.9592                19.0036                34.2131

                     10                     11                     12
                      A                      A                      A
 Frequencies --    323.5650               363.5836               428.6564
 Red. masses --      3.4717                 3.7035                 3.6886
 Frc consts  --      0.2141                 0.2885                 0.3993
 IR Inten    --      9.6326                 5.4687                24.0467

                     13                     14                     15
                      A                      A                      A
 Frequencies --    499.8683               576.2751               628.9561
 Red. masses --      1.3398                 4.9800                 9.1785
 Frc consts  --      0.1972                 0.9744                 2.1392
 IR Inten    --    241.7599                 6.5773                44.3341

                     16                     17                     18
                      A                      A                      A
 Frequencies --    809.5641               816.7714               872.8986
 Red. masses --      2.4313                 2.9846                 2.4453
 Frc consts  --      0.9388                 1.1731                 1.0978
 IR Inten    --      9.9688                12.6468                 4.1714

                     19                     20                     21
                      A                      A                      A
 Frequencies --    933.8139              1070.7574              1145.8836
 Red. masses --      3.0633                 3.7773                 1.9832
 Frc consts  --      1.5738                 2.5516                 1.5342
 IR Inten    --      6.2118                35.5415                31.2629

                     22                     23                     24
                      A                      A                      A
 Frequencies --   1219.3759              1282.1035              1340.9774
 Red. masses --      1.7024                 5.4510                 1.1654
 Frc consts  --      1.4914                 5.2792                 1.2347
 IR Inten    --      3.3107               761.7642                55.3782

                     25                     26                     27
                      A                      A                      A
 Frequencies --   1419.4438              1427.0334              1458.4121
 Red. masses --      1.1241                 1.3231                 1.2374
 Frc consts  --      1.3344                 1.5875                 1.5507
 IR Inten    --     77.9775                12.0951                21.1005

                     28                     29                     30
                      A                      A                      A
 Frequencies --   1528.0997              1530.7050              1544.7050
 Red. masses --      1.0500                 1.0874                 1.0521
 Frc consts  --      1.4445                 1.5012                 1.4791
 IR Inten    --     19.6966                10.7000                14.9344

                     31                     32                     33
                      A                      A                      A
 Frequencies --   1724.6208              2255.5939              2709.9783
 Red. masses --     11.1810                 9.5390                 1.0882
 Frc consts  --     19.5938                28.5939                 4.7086
 IR Inten    --    281.8071               297.4126               534.6401

                     34                     35                     36
                      A                      A                      A
 Frequencies --   3089.3657              3125.7034              3168.4101
 Red. masses --      1.0353                 1.0612                 1.0984
 Frc consts  --      5.8220                 6.1089                 6.4967
 IR Inten    --     13.9021                16.4874                20.7692

                     37                     38                     39
                      A                      A                      A
 Frequencies --   3175.9983              3203.2277              3703.8800
 Red. masses --      1.1022                 1.1065                 1.0680
 Frc consts  --      6.5506                 6.6892                 8.6328
 IR Inten    --      1.8510                15.0638               137.9891

 - Thermochemistry -
 -------------------
 Temperature   298.150 Kelvin.  Pressure   1.00000 Atm.
 Atom     1 has atomic number  8 and mass  15.99491

 Molecular mass:   115.03952 amu.
 Principal axes and moments of inertia in atomic units:
                           1         2         3
     Eigenvalues --   301.357242666.489542789.13249
           X            0.99993   0.00856  -0.00848
           Y           -0.00869   0.99984  -0.01549
           Z            0.00835   0.01556   0.99984
 This molecule is an asymmetric top.
 Rotational symmetry number  1.
 Rotational temperatures (Kelvin)      0.28741     0.03248     0.03105
 Rotational constants (GHZ):           5.98871     0.67682     0.64706
    1 imaginary frequencies ignored.
 Zero-point vibrational energy     289634.5 (Joules/Mol)
                                   69.22430 (Kcal/Mol)
 Warning -- explicit consideration of  13 degrees of freedom as
           vibrations may cause significant error
 Vibrational temperatures:     61.73    79.80   106.46   147.26   179.84
          (Kelvin)            250.68   302.08   375.49   465.54   523.12
                              616.74   719.20   829.13   904.93  1164.78
                             1175.15  1255.91  1343.55  1540.58  1648.67
                             1754.41  1844.66  1929.37  2042.26  2053.18
                             2098.33  2198.59  2202.34  2222.49  2481.34
                             3245.30  3899.05  4444.91  4497.19  4558.64
                             4569.55  4608.73  5329.06

 Zero-point correction=                           0.110316 (Hartree/Particle)
 Thermal correction to Energy=                    0.120584
 Thermal correction to Enthalpy=                  0.121528
 Thermal correction to Gibbs Free Energy=         0.072691
 Sum of electronic and zero-point Energies=           -419.811074
 Sum of electronic and thermal Energies=              -419.800807
 Sum of electronic and thermal Enthalpies=            -419.799862
 Sum of electronic and thermal Free Energies=         -419.848699

                     E (Thermal)             CV                S
                      KCal/Mol        Cal/Mol-Kelvin    Cal/Mol-Kelvin
 Total                   75.668             32.890            102.786
 Electronic               0.000              0.000              1.377
 Translational            0.889              2.981             40.136
 Rotational               0.889              2.981             29.195
 Vibrational             73.890             26.928             32.077
 Vibration     1          0.595              1.980              5.120
 Vibration     2          0.596              1.975              4.612
 Vibration     3          0.599              1.966              4.044
 Vibration     4          0.604              1.947              3.409
 Vibration     5          0.610              1.928              3.022
 Vibration     6          0.627              1.874              2.389
 Vibration     7          0.642              1.826              2.044
 Vibration     8          0.669              1.744              1.655
 Vibration     9          0.708              1.628              1.292
 Vibration    10          0.737              1.547              1.107
 Vibration    11          0.790              1.408              0.863
 Vibration    12          0.855              1.250              0.658
 Vibration    13          0.933              1.083              0.492

                           ! Non-Optimized Parameters !
 Normal termination of Gaussian 16 at Fri Jun  6 14:59:15 2025.
