 Gaussian 16, Revision A.03,
 Gaussian 16:  ES64L-G16RevA.03 25-Dec-2016

 -----------------------------------------------------
 # opt=(calcfc,tight,ts,noeigentest) freq 6-31+g m062x
 -----------------------------------------------------

 -------------------
 Title Card Required
 -------------------
 Symbolic Z-matrix:
 Charge =  0 Multiplicity = 2

 SCF Done:  E(UM062X) =  -419.920114286     A.U. after   20 cycles
 SCF Done:  E(UM062X) =  -419.937878571     A.U. after   20 cycles
 SCF Done:  E(UM062X) =  -419.946062786     A.U. after   20 cycles
 SCF Done:  E(UM062X) =  -419.949418643     A.U. after   21 cycles
 SCF Done:  E(UM062X) =  -419.950992708     A.U. after   20 cycles
 SCF Done:  E(UM062X) =  -419.952637224     A.U. after   21 cycles
 SCF Done:  E(UM062X) =  -419.952944179     A.U. after   20 cycles
 SCF Done:  E(UM062X) =  -419.952954211     A.U. after   16 cycles
 SCF Done:  E(UM062X) =  -419.952957402     A.U. after   14 cycles
 SCF Done:  E(UM062X) =  -419.952970629     A.U. after   17 cycles
 SCF Done:  E(UM062X) =  -419.953896513     A.U. after   18 cycles
 SCF Done:  E(UM062X) =  -419.953899383     A.U. after   16 cycles
 SCF Done:  E(UM062X) =  -419.953901356     A.U. after   15 cycles
 SCF Done:  E(UM062X) =  -419.953904570     A.U. after   17 cycles
 SCF Done:  E(UM062X) =  -419.953905135     A.U. after   16 cycles
 SCF Done:  E(UM062X) =  -419.953905174     A.U. after   14 cycles
 SCF Done:  E(UM062X) =  -419.953905178     A.U. after   13 cycles
 SCF Done:  E(UM062X) =  -419.953905174     A.U. after   12 cycles
 SCF Done:  E(UM062X) =  -419.953905178     A.U. after   12 cycles
 Optimization completed.
    -- Stationary point found.
 Normal termination of Gaussian 16 at Fri Jun  6 15:07:04 2025.

 ------------------------------------------------------------------
 #N Geom=AllCheck Guess=TCheck SCRF=Check GenChk UM062X/6-31+G Freq
 ------------------------------------------------------------------

 Structure from the checkpoint file:  "ethyl_propiolate.chk"
 -------------------
 Title Card Required
 -------------------
 Charge =  0 Multiplicity = 2

                         Standard orientation:
 ---------------------------------------------------------------------
 Center     Atomic      Atomic             Coordinates (Angstroms)
 Number     Number       Type             X           Y           Z
 ---------------------------------------------------------------------
      1          8           0       -2.595129   -1.769496   -0.298963
      2          1           0       -1.805777   -2.288558   -0.009298
      3          6           0        3.217872   -1.019682    0.419736
      4          1           0        4.099371   -1.564467    0.671814
      5          6           0        2.224118   -0.396305    0.131923
      6          6           0        1.067003    0.382033   -0.226675
      7          8           0        1.090529    1.501499   -0.728766
      8          8           0       -0.095193   -0.278252    0.062965
      9          6           0       -1.346980    0.377886   -0.274950
     10          6           0       -1.855897    1.247141    0.842290
     11          1           0       -2.101563   -0.577588   -0.400923
     12          1           0       -1.276012    0.850278   -1.256646
     13          1           0       -2.852838    1.622579    0.598985
     14          1           0       -1.913447    0.677201    1.772482
     15          1           0       -1.188085    2.104111    0.987761
 ---------------------------------------------------------------------

 SCF Done:  E(UM062X) =  -419.953905178     A.U. after    1 cycles

 The electronic state is 2-A.
 Alpha  occ. eigenvalues --  -19.72344 -19.68011 -19.67899 -10.74668 -10.64386
 Alpha  occ. eigenvalues --  -10.60405 -10.60015 -10.56068  -1.27609  -1.18598
 Alpha  occ. eigenvalues --   -1.13212  -0.92411  -0.88973  -0.79938  -0.72738
 Alpha  occ. eigenvalues --   -0.66053  -0.62780  -0.60691  -0.58275  -0.57338
 Alpha  occ. eigenvalues --   -0.52626  -0.50909  -0.49510  -0.47947  -0.45494
 Alpha  occ. eigenvalues --   -0.41021  -0.40845  -0.40372  -0.38564  -0.37816
 Alpha  occ. eigenvalues --   -0.34656
 Alpha virt. eigenvalues --   -0.03880   0.01636   0.02200   0.02804   0.03304
 Alpha virt. eigenvalues --    0.04143   0.04802   0.06095   0.07609   0.07850
 Alpha virt. eigenvalues --    0.08024   0.08605   0.09791   0.10692   0.12175

  Beta  occ. eigenvalues --  -19.72341 -19.67893 -19.66770 -10.74648 -10.63883
  Beta  occ. eigenvalues --  -10.60404 -10.60016 -10.56077  -1.27511  -1.18467
  Beta  occ. eigenvalues --   -1.08773  -0.91969  -0.88343  -0.79709  -0.71708
  Beta  occ. eigenvalues --   -0.65547  -0.62535  -0.59030  -0.57351  -0.55974
  Beta  occ. eigenvalues --   -0.50965  -0.50509  -0.47979  -0.46266  -0.42808
  Beta  occ. eigenvalues --   -0.40435  -0.39563  -0.38534  -0.38176  -0.37729
  Beta virt. eigenvalues --   -0.11193  -0.03806   0.01656   0.02271   0.02904
  Beta virt. eigenvalues --    0.03399   0.04253   0.04881   0.06130   0.07653
  Beta virt. eigenvalues --    0.07925   0.08103   0.08664   0.10055   0.10723

 Mulliken charges and spin densities:
               1          2
     1  O   -0.509620   0.645956
     2  H    0.407551  -0.021183
     3  C    0.249908   0.005877
     4  H    0.353282  -0.000029
     5  C    0.219763   0.001356
     6  C   -0.551497  -0.001218
     7  O   -0.336193   0.004336
     8  O   -0.261745  -0.016873
     9  C   -0.313568   0.457010
    10  C   -0.496596  -0.025484
    11  H    0.287865  -0.073444
    12  H    0.253026  -0.008137
    13  H    0.226278   0.001154
    14  H    0.234410   0.005031
    15  H    0.237135   0.025648
 Sum of Mulliken charges =  -0.00000   1.00000

 Dipole moment (field-independent basis, Debye):
    X=              1.9615    Y=             -0.8045    Z=              1.5087  Tot=              2.6021
 Quadrupole moment (field-independent basis, Debye-Ang):
   XX=            -46.4570   YY=            -49.0880   ZZ=            -48.7976
   XY=            -13.5602   XZ=              1.5420   YZ=              0.3495

  Exact polarizability:  93.660  -0.127  83.569   5.301  -4.518  48.420
 Approx polarizability:  93.370  -7.153  94.347   8.113 -12.929  53.101

 ******    1 imaginary frequencies (negative Signs) ******

                      1                      2                      3
                      A                      A                      A
 Frequencies --  -1370.8320                35.9404                66.3803
 Red. masses --      1.1164                 7.5627                 5.3439
 Frc consts  --      1.2361                 0.0058                 0.0139
 IR Inten    --   1901.4986                 5.3835                 2.8203

                      4                      5                      6
                      A                      A                      A
 Frequencies --     94.4104               115.4022               169.1072
 Red. masses --      3.8652                 3.0195                 2.3274
 Frc consts  --      0.0203                 0.0237                 0.0392
 IR Inten    --      2.5279                 3.8886                10.9180

                      7                      8                      9
                      A                      A                      A
 Frequencies --    210.9744               217.1746               282.8341
 Red. masses --      1.1275                 1.3516                 3.9543
 Frc consts  --      0.0296                 0.0376                 0.1864
 IR Inten    --     60.3672                71.1080                19.9710

                     10                     11                     12
                      A                      A                      A
 Frequencies --    320.2936               426.5991               549.4250
 Red. masses --      4.0311                 3.6958                 5.0349
 Frc consts  --      0.2437                 0.3963                 0.8955
 IR Inten    --      1.3969                 9.7792                 5.1260

                     13                     14                     15
                      A                      A                      A
 Frequencies --    611.5568               675.9156               793.6208
 Red. masses --      3.9276                 3.1592                 2.8331
 Frc consts  --      0.8655                 0.8504                 1.0513
 IR Inten    --     15.1093                 2.6491                66.8677

                     16                     17                     18
                      A                      A                      A
 Frequencies --    812.9603               828.5966               850.8922
 Red. masses --      1.4660                 1.5460                 1.2541
 Frc consts  --      0.5709                 0.6254                 0.5350
 IR Inten    --    182.8806               322.0872                45.4350

                     19                     20                     21
                      A                      A                      A
 Frequencies --    874.0876               880.2930               955.7752
 Red. masses --      2.1991                 2.1635                 3.7209
 Frc consts  --      0.9899                 0.9878                 2.0027
 IR Inten    --     26.3659                78.4101                 0.2980

                     22                     23                     24
                      A                      A                      A
 Frequencies --   1098.8680              1144.6574              1192.2327
 Red. masses --      3.1505                 1.8698                 1.6568
 Frc consts  --      2.2414                 1.4435                 1.3875
 IR Inten    --     38.2535                80.9384                14.0263

                     25                     26                     27
                      A                      A                      A
 Frequencies --   1270.4699              1288.9183              1382.9411
 Red. masses --      6.2036                 1.1697                 1.2770
 Frc consts  --      5.8996                 1.1450                 1.4389
 IR Inten    --    638.9227                28.5487                 0.7783

                     28                     29                     30
                      A                      A                      A
 Frequencies --   1452.1249              1517.9745              1521.5624
 Red. masses --      1.2381                 1.0494                 1.0421
 Frc consts  --      1.5383                 1.4247                 1.4215
 IR Inten    --     20.8759                 9.0187                 8.2148

                     31                     32                     33
                      A                      A                      A
 Frequencies --   1549.5278              1737.7283              2284.9611
 Red. masses --      1.0816                12.1261                 5.7937
 Frc consts  --      1.5301                21.5743                17.8222
 IR Inten    --     35.9389               283.7184                94.2553

                     34                     35                     36
                      A                      A                      A
 Frequencies --   3076.0899              3155.5321              3161.9557
 Red. masses --      1.0374                 1.0930                 1.0899
 Frc consts  --      5.7838                 6.4121                 6.4203
 IR Inten    --      3.3246                 5.9319                 3.8007

                     37                     38                     39
                      A                      A                      A
 Frequencies --   3184.3835              3514.7094              3599.8494
 Red. masses --      1.0995                 1.1709                 1.0658
 Frc consts  --      6.5688                 8.5220                 8.1378
 IR Inten    --      9.7119                59.6905                28.2393

 - Thermochemistry -
 -------------------
 Temperature   298.150 Kelvin.  Pressure   1.00000 Atm.
 Atom     1 has atomic number  8 and mass  15.99491

 Molecular mass:   115.03952 amu.
 Principal axes and moments of inertia in atomic units:
                           1         2         3
     Eigenvalues --   603.099581627.793582024.02722
           X            0.99933  -0.03656  -0.00357
           Y            0.03663   0.99909   0.02171
           Z            0.00277  -0.02182   0.99976
 This molecule is an asymmetric top.
 Rotational symmetry number  1.
 Warning -- assumption of classical behavior for rotation
           may cause significant error
 Rotational temperatures (Kelvin)      0.14361     0.05321     0.04279
 Rotational constants (GHZ):           2.99244     1.10870     0.89166
    1 imaginary frequencies ignored.
 Zero-point vibrational energy     280564.5 (Joules/Mol)
                                   67.05653 (Kcal/Mol)
 Warning -- explicit consideration of  12 degrees of freedom as
           vibrations may cause significant error
 Vibrational temperatures:     51.71    95.51   135.84   166.04   243.31
          (Kelvin)            303.55   312.47   406.94   460.83   613.78
                              790.50   879.89   972.49  1141.84  1169.67
                             1192.17  1224.24  1257.62  1266.55  1375.15
                             1581.03  1646.91  1715.36  1827.92  1854.47
                             1989.74  2089.28  2184.03  2189.19  2229.42
                             2500.20  3287.55  4425.81  4540.11  4549.35
                             4581.62  5056.88  5179.38

 Zero-point correction=                           0.106861 (Hartree/Particle)
 Thermal correction to Energy=                    0.116656
 Thermal correction to Enthalpy=                  0.117600
 Thermal correction to Gibbs Free Energy=         0.070088
 Sum of electronic and zero-point Energies=           -419.847044
 Sum of electronic and thermal Energies=              -419.837249
 Sum of electronic and thermal Enthalpies=            -419.836305
 Sum of electronic and thermal Free Energies=         -419.883817

                     E (Thermal)             CV                S
                      KCal/Mol        Cal/Mol-Kelvin    Cal/Mol-Kelvin
 Total                   73.203             32.550             99.998
 Electronic               0.000              0.000              1.377
 Translational            0.889              2.981             40.136
 Rotational               0.889              2.981             29.076
 Vibrational             71.425             26.588             29.409
 Vibration     1          0.594              1.982              5.471
 Vibration     2          0.598              1.970              4.258
 Vibration     3          0.603              1.953              3.567
 Vibration     4          0.608              1.937              3.176
 Vibration     5          0.625              1.880              2.445
 Vibration     6          0.643              1.824              2.035
 Vibration     7          0.646              1.815              1.983
 Vibration     8          0.682              1.705              1.516
 Vibration     9          0.706              1.635              1.309
 Vibration    10          0.788              1.412              0.870
 Vibration    11          0.905              1.141              0.545
 Vibration    12          0.971              1.007              0.430

                           ! Non-Optimized Parameters !
 Normal termination of Gaussian 16 at Fri Jun  6 15:07:37 2025.
