 Gaussian 16, Revision A.03,
 Gaussian 16:  ES64L-G16RevA.03 25-Dec-2016

 -----------------------
 # ccsd(t)/6-311++g** sp
 -----------------------

 -------------------
 Title Card Required
 -------------------
 Symbolic Z-matrix:
 Charge =  0 Multiplicity = 2

                         Standard orientation:
 ---------------------------------------------------------------------
 Center     Atomic      Atomic             Coordinates (Angstroms)
 Number     Number       Type             X           Y           Z
 ---------------------------------------------------------------------
      1          8           0        2.595129    1.769496   -0.298963
      2          1           0        1.805777    2.288558   -0.009298
      3          6           0       -3.217872    1.019682    0.419736
      4          1           0       -4.099371    1.564467    0.671814
      5          6           0       -2.224118    0.396305    0.131923
      6          6           0       -1.067003   -0.382033   -0.226675
      7          8           0       -1.090529   -1.501499   -0.728766
      8          8           0        0.095193    0.278252    0.062965
      9          6           0        1.346980   -0.377886   -0.274950
     10          6           0        1.855897   -1.247141    0.842290
     11          1           0        2.101563    0.577588   -0.400923
     12          1           0        1.276012   -0.850278   -1.256646
     13          1           0        2.852838   -1.622579    0.598985
     14          1           0        1.913447   -0.677201    1.772482
     15          1           0        1.188085   -2.104111    0.987761
 ---------------------------------------------------------------------

 SCF Done:  E(UHF) =  -417.954835793     A.U. after   34 cycles
 E2 =    -0.1290439285D+01 EUMP2 =    -0.41924527507726D+03
 CCSD(T)= -0.41934755599D+03

 The electronic state is 2-A.
 Alpha  occ. eigenvalues --  -20.62635 -20.62288 -20.57272 -11.43215 -11.31641
 Alpha  occ. eigenvalues --  -11.28389 -11.27469 -11.23214  -1.47259  -1.38828
 Alpha  occ. eigenvalues --   -1.37248  -1.08926  -1.04894  -0.93407  -0.85425
 Alpha  occ. eigenvalues --   -0.76972  -0.74462  -0.72661  -0.69187  -0.66762
 Alpha  occ. eigenvalues --   -0.65565  -0.60363  -0.58852  -0.55786  -0.55214
 Alpha  occ. eigenvalues --   -0.53791  -0.49463  -0.48445  -0.43895  -0.43462
 Alpha  occ. eigenvalues --   -0.43392
 Alpha virt. eigenvalues --    0.03368   0.04774   0.05929   0.06331   0.06907
 Alpha virt. eigenvalues --    0.08066   0.08899   0.09829   0.11102   0.11635
 Alpha virt. eigenvalues --    0.11875   0.13720   0.14391   0.15442   0.16412

  Beta  occ. eigenvalues --  -20.62351 -20.59079 -20.57268 -11.43176 -11.30298
  Beta  occ. eigenvalues --  -11.28381 -11.27477 -11.23289  -1.47163  -1.37354
  Beta  occ. eigenvalues --   -1.26029  -1.08548  -1.03468  -0.93182  -0.83198
  Beta  occ. eigenvalues --   -0.76529  -0.73622  -0.69551  -0.66220  -0.65901
  Beta  occ. eigenvalues --   -0.60710  -0.58567  -0.55505  -0.54142  -0.51009
  Beta  occ. eigenvalues --   -0.50113  -0.48633  -0.46419  -0.43522  -0.43425
  Beta virt. eigenvalues --    0.03344   0.04382   0.05217   0.06344   0.06826
  Beta virt. eigenvalues --    0.07121   0.08098   0.09097   0.09964   0.11385
  Beta virt. eigenvalues --    0.11878   0.11984   0.13768   0.14417   0.15513

 Mulliken charges and spin densities:
               1          2
     1  O   -0.309068   0.787357
     2  H    0.271280  -0.030826
     3  C   -0.654454   0.004141
     4  H    0.216278  -0.000280
     5  C    1.333959  -0.004707
     6  C   -0.734451   0.004999
     7  O   -0.291641   0.000521
     8  O   -0.090527  -0.030859
     9  C   -0.386924   0.457780
    10  C   -0.305529  -0.040153
    11  H    0.263484  -0.157386
    12  H    0.205316  -0.019136
    13  H    0.148670   0.001815
    14  H    0.159997   0.005826
    15  H    0.173610   0.020907
 Sum of Mulliken charges =  -0.00000   1.00000

 Dipole moment (field-independent basis, Debye):
    X=             -1.2659    Y=              1.9417    Z=              1.4745  Tot=              2.7472
 Quadrupole moment (field-independent basis, Debye-Ang):
   XX=            -43.5372   YY=            -47.7808   ZZ=            -48.7089
   XY=            -11.3811   XZ=             -2.3116   YZ=             -0.3625

 PMP3-0=-419.2676786\MP4SDQ=-419.2922678\CCSD=-419.2914553\CCSD(T)=-419
 Normal termination of Gaussian 16 at Sun Jun  8 03:15:13 2025.
