 Gaussian 16, Revision A.03,
 Gaussian 16:  ES64L-G16RevA.03 25-Dec-2016

 ------------------------------------------------------------
 # opt=(calcfc,tight,ts,noeigentest) freq 6-311++g(d,p) m062x
 ------------------------------------------------------------

 -------------------
 Title Card Required
 -------------------
 Symbolic Z-matrix:
 Charge =  0 Multiplicity = 2

 SCF Done:  E(UM062X) =  -420.196109319     A.U. after   19 cycles
 SCF Done:  E(UM062X) =  -420.199039139     A.U. after   18 cycles
 SCF Done:  E(UM062X) =  -420.198983589     A.U. after   17 cycles
 SCF Done:  E(UM062X) =  -420.199069500     A.U. after   17 cycles
 SCF Done:  E(UM062X) =  -420.198902670     A.U. after   17 cycles
 SCF Done:  E(UM062X) =  -420.199044977     A.U. after   16 cycles
 SCF Done:  E(UM062X) =  -420.198989184     A.U. after   17 cycles
 SCF Done:  E(UM062X) =  -420.199068252     A.U. after   17 cycles
 SCF Done:  E(UM062X) =  -420.199068787     A.U. after   16 cycles
 SCF Done:  E(UM062X) =  -420.199073920     A.U. after   15 cycles
 SCF Done:  E(UM062X) =  -420.199073845     A.U. after   13 cycles
 SCF Done:  E(UM062X) =  -420.199073980     A.U. after   13 cycles
 SCF Done:  E(UM062X) =  -420.199073980     A.U. after    5 cycles
 Optimization completed.
    -- Stationary point found.
 Normal termination of Gaussian 16 at Fri Jun  6 18:40:54 2025.

 ----------------------------------------------------------------------
 #N Geom=AllCheck Guess=TCheck SCRF=Check GenChk UM062X/6-311++G(d,p) F
 req
 ----------------------------------------------------------------------

 Structure from the checkpoint file:  "ethyl_propiolate.chk"
 -------------------
 Title Card Required
 -------------------
 Charge =  0 Multiplicity = 2

                         Standard orientation:
 ---------------------------------------------------------------------
 Center     Atomic      Atomic             Coordinates (Angstroms)
 Number     Number       Type             X           Y           Z
 ---------------------------------------------------------------------
      1          8           0        2.642657    1.760767   -0.247830
      2          1           0        1.825601    2.232326   -0.016733
      3          6           0       -3.192667    1.029321    0.403153
      4          1           0       -4.073240    1.575232    0.649911
      5          6           0       -2.203043    0.414183    0.125456
      6          6           0       -1.033921   -0.374690   -0.228189
      7          8           0       -1.078374   -1.476831   -0.693885
      8          8           0        0.096246    0.297826    0.036892
      9          6           0        1.317454   -0.370530   -0.282857
     10          6           0        1.772892   -1.293589    0.815459
     11          1           0        2.085695    0.519179   -0.378881
     12          1           0        1.247531   -0.833070   -1.267799
     13          1           0        2.755127   -1.699934    0.571026
     14          1           0        1.841766   -0.753202    1.760344
     15          1           0        1.068997   -2.122792    0.922583
 ---------------------------------------------------------------------

 SCF Done:  E(UM062X) =  -420.199073980     A.U. after    1 cycles

 The electronic state is 2-A.
 Alpha  occ. eigenvalues --  -19.69941 -19.66320 -19.64524 -10.71971 -10.62838
 Alpha  occ. eigenvalues --  -10.57982 -10.57535 -10.54931  -1.27216  -1.17964
 Alpha  occ. eigenvalues --   -1.13088  -0.91722  -0.88111  -0.79413  -0.71887
 Alpha  occ. eigenvalues --   -0.66200  -0.62287  -0.60537  -0.58399  -0.57510
 Alpha  occ. eigenvalues --   -0.53850  -0.50779  -0.50039  -0.47741  -0.45743
 Alpha  occ. eigenvalues --   -0.41892  -0.40970  -0.40588  -0.38141  -0.37284
 Alpha  occ. eigenvalues --   -0.36030
 Alpha virt. eigenvalues --   -0.02624  -0.00525   0.00583   0.01426   0.01859
 Alpha virt. eigenvalues --    0.03219   0.03383   0.04642   0.05996   0.06012
 Alpha virt. eigenvalues --    0.06565   0.07378   0.08019   0.09422   0.10219

  Beta  occ. eigenvalues --  -19.69936 -19.65007 -19.64520 -10.71957 -10.62456
  Beta  occ. eigenvalues --  -10.57982 -10.57535 -10.54935  -1.27124  -1.17866
  Beta  occ. eigenvalues --   -1.07875  -0.91229  -0.87676  -0.79189  -0.70940
  Beta  occ. eigenvalues --   -0.65811  -0.61958  -0.59699  -0.57711  -0.55257
  Beta  occ. eigenvalues --   -0.51695  -0.50458  -0.47915  -0.46489  -0.42978
  Beta  occ. eigenvalues --   -0.40586  -0.39908  -0.38823  -0.38130  -0.37245
  Beta virt. eigenvalues --   -0.11228  -0.02584  -0.00402   0.00636   0.01664
  Beta virt. eigenvalues --    0.01969   0.03263   0.03420   0.04831   0.06053
  Beta virt. eigenvalues --    0.06095   0.06682   0.07498   0.08066   0.09586

 Mulliken charges and spin densities:
               1          2
     1  O   -0.337056   0.708276
     2  H    0.256827  -0.015124
     3  C   -0.562093   0.000345
     4  H    0.188050  -0.000016
     5  C    1.111784   0.003868
     6  C   -0.720137   0.005371
     7  O   -0.201133   0.001065
     8  O    0.000139  -0.008774
     9  C   -0.479945   0.328978
    10  C   -0.341503  -0.006027
    11  H    0.300768  -0.037624
    12  H    0.227776  -0.002452
    13  H    0.181130   0.000220
    14  H    0.183694   0.003135
    15  H    0.191698   0.018760
 Sum of Mulliken charges =  -0.00000   1.00000

 Dipole moment (field-independent basis, Debye):
    X=             -1.4350    Y=              0.8458    Z=              1.2303  Tot=              2.0708
 Quadrupole moment (field-independent basis, Debye-Ang):
   XX=            -46.0050   YY=            -48.1071   ZZ=            -48.1751
   XY=            -12.0162   XZ=             -1.8245   YZ=             -0.3215

  Exact polarizability:  95.158   0.129  84.770  -4.594   3.356  51.395
 Approx polarizability:  96.358  -6.250  95.470  -6.854  10.008  60.708

 ******    1 imaginary frequencies (negative Signs) ******

                      1                      2                      3
                      A                      A                      A
 Frequencies --   -998.4854                56.1718                64.7383
 Red. masses --      1.3093                 7.6862                 5.4412
 Frc consts  --      0.7691                 0.0143                 0.0134
 IR Inten    --   1604.4470                 4.2155                 2.4964

                      4                      5                      6
                      A                      A                      A
 Frequencies --     92.9748               111.9058               163.1929
 Red. masses --      4.3735                 2.6816                 2.8592
 Frc consts  --      0.0223                 0.0198                 0.0449
 IR Inten    --      1.3401                 3.8463                10.0055

                      7                      8                      9
                      A                      A                      A
 Frequencies --    203.9495               219.5165               270.0747
 Red. masses --      1.1156                 1.2747                 4.2939
 Frc consts  --      0.0273                 0.0362                 0.1845
 IR Inten    --    101.2442                 2.1579                 3.7823

                     10                     11                     12
                      A                      A                      A
 Frequencies --    295.2266               420.0548               555.7472
 Red. masses --      4.0097                 3.6301                 4.4972
 Frc consts  --      0.2059                 0.3774                 0.8184
 IR Inten    --      8.8025                 4.1817                 3.3998

                     13                     14                     15
                      A                      A                      A
 Frequencies --    603.2561               712.6817               743.5706
 Red. masses --      6.3856                 1.7628                 1.3192
 Frc consts  --      1.3692                 0.5275                 0.4297
 IR Inten    --     13.0029                11.6651                36.1244

                     16                     17                     18
                      A                      A                      A
 Frequencies --    773.8459               782.3785               807.5364
 Red. masses --      1.6541                 3.7117                 1.1390
 Frc consts  --      0.5836                 1.3386                 0.4376
 IR Inten    --     11.1371                52.2549                67.3998

                     19                     20                     21
                      A                      A                      A
 Frequencies --    897.7695               941.8166               999.9371
 Red. masses --      2.7561                 2.3485                 2.6099
 Frc consts  --      1.3088                 1.2273                 1.5375
 IR Inten    --     36.2786               189.9145               818.5247

                     22                     23                     24
                      A                      A                      A
 Frequencies --   1108.5196              1129.8086              1185.2827
 Red. masses --      3.1158                 2.1327                 1.5244
 Frc consts  --      2.2559                 1.6039                 1.2618
 IR Inten    --    106.7531                26.7306                28.0227

                     25                     26                     27
                      A                      A                      A
 Frequencies --   1279.9502              1313.8374              1370.3372
 Red. masses --      5.8475                 1.1297                 1.2149
 Frc consts  --      5.6443                 1.1489                 1.3441
 IR Inten    --    617.5030                38.4134                 0.5882

                     28                     29                     30
                      A                      A                      A
 Frequencies --   1413.9434              1483.9703              1490.4031
 Red. masses --      1.3378                 1.0440                 1.0412
 Frc consts  --      1.5758                 1.3546                 1.3627
 IR Inten    --     25.4467                 9.1934                 4.3574

                     31                     32                     33
                      A                      A                      A
 Frequencies --   1557.5166              1847.5973              2269.6947
 Red. masses --      1.1256                12.3850                 5.7445
 Frc consts  --      1.6087                24.9093                17.4358
 IR Inten    --    101.4840               324.5228                79.5961

                     34                     35                     36
                      A                      A                      A
 Frequencies --   3067.8496              3132.3071              3146.4432
 Red. masses --      1.0354                 1.0867                 1.1007
 Frc consts  --      5.7417                 6.2818                 6.4206
 IR Inten    --      3.0974                 5.3930                 2.7962

                     37                     38                     39
                      A                      A                      A
 Frequencies --   3162.7156              3489.2524              3798.1390
 Red. masses --      1.1022                 1.1713                 1.0669
 Frc consts  --      6.4958                 8.4020                 9.0677
 IR Inten    --      8.6756                62.6100                42.8228

 - Thermochemistry -
 -------------------
 Temperature   298.150 Kelvin.  Pressure   1.00000 Atm.
 Atom     1 has atomic number  8 and mass  15.99491

 Molecular mass:   115.03952 amu.
 Principal axes and moments of inertia in atomic units:
                           1         2         3
     Eigenvalues --   596.557791597.906752002.96660
           X            0.99929  -0.03770   0.00280
           Y            0.03775   0.99906  -0.02142
           Z           -0.00199   0.02151   0.99977
 This molecule is an asymmetric top.
 Rotational symmetry number  1.
 Warning -- assumption of classical behavior for rotation
           may cause significant error
 Rotational temperatures (Kelvin)      0.14519     0.05420     0.04324
 Rotational constants (GHZ):           3.02526     1.12944     0.90103
    1 imaginary frequencies ignored.
 Zero-point vibrational energy     280906.6 (Joules/Mol)
                                   67.13828 (Kcal/Mol)
 Warning -- explicit consideration of  12 degrees of freedom as
           vibrations may cause significant error
 Vibrational temperatures:     80.82    93.14   133.77   161.01   234.80
          (Kelvin)            293.44   315.84   388.58   424.77   604.37
                              799.60   867.95  1025.39  1069.83  1113.39
                             1125.67  1161.86  1291.69  1355.06  1438.69
                             1594.91  1625.54  1705.36  1841.56  1890.32
                             1971.61  2034.35  2135.10  2144.36  2240.92
                             2658.28  3265.58  4413.95  4506.69  4527.03
                             4550.44  5020.26  5464.67

 Zero-point correction=                           0.106992 (Hartree/Particle)
 Thermal correction to Energy=                    0.116842
 Thermal correction to Enthalpy=                  0.117786
 Thermal correction to Gibbs Free Energy=         0.070462
 Sum of electronic and zero-point Energies=           -420.092082
 Sum of electronic and thermal Energies=              -420.082232
 Sum of electronic and thermal Enthalpies=            -420.081288
 Sum of electronic and thermal Free Energies=         -420.128612

                     E (Thermal)             CV                S
                      KCal/Mol        Cal/Mol-Kelvin    Cal/Mol-Kelvin
 Total                   73.319             32.721             99.601
 Electronic               0.000              0.000              1.377
 Translational            0.889              2.981             40.136
 Rotational               0.889              2.981             29.036
 Vibrational             71.542             26.760             29.052
 Vibration     1          0.596              1.975              4.587
 Vibration     2          0.597              1.971              4.307
 Vibration     3          0.602              1.954              3.596
 Vibration     4          0.607              1.940              3.236
 Vibration     5          0.623              1.888              2.512
 Vibration     6          0.640              1.834              2.097
 Vibration     7          0.647              1.811              1.963
 Vibration     8          0.674              1.728              1.596
 Vibration     9          0.689              1.683              1.444
 Vibration    10          0.783              1.427              0.892
 Vibration    11          0.911              1.127              0.532
 Vibration    12          0.962              1.025              0.444

 Optimization completed.
    -- Stationary point found.

 1\1\GINC-AJ\Freq\UM062X\6-311++G(d,p)\C5H7O3(2)\AAYUSH\06-Jun-2025\0\\
 #N Geom=AllCheck Guess=TCheck SCRF=Check GenChk UM062X/6-311++G(d,p) F
 req\\Title Card Required\\0,2\O,-2.6270225948,-1.8072755379,-0.2815938
 296\H,-1.8038235439,-2.2688054004,-0.0520545181\C,3.1912741925,-0.9904
 544487,0.4184215711\H,4.0791000464,-1.5255138964,0.6629504086\C,2.1934
 758372,-0.3875068769,0.1432554995\C,1.0138384766,0.3873278604,-0.20648
 77513\O,1.0431610168,1.4967955115,-0.6556923928\O,-0.1068047589,-0.307
 3646441,0.0412727357\C,-1.3367578414,0.3456321962,-0.2766854795\C,-1.8

 Normal termination of Gaussian 16 at Fri Jun  6 18:42:49 2025.
