 Gaussian 16, Revision A.03,
 Gaussian 16:  ES64L-G16RevA.03 25-Dec-2016

 -----------------------
 # ccsd(t)/6-311++g** sp
 -----------------------

 -------------------
 Title Card Required
 -------------------
 Symbolic Z-matrix:
 Charge =  0 Multiplicity = 2

                         Standard orientation:
 ---------------------------------------------------------------------
 Center     Atomic      Atomic             Coordinates (Angstroms)
 Number     Number       Type             X           Y           Z
 ---------------------------------------------------------------------
      1          8           0        4.585353   -0.342233    0.320154
      2          1           0        4.707347    0.569136   -0.018781
      3          6           0        2.289635   -0.190234   -0.088193
      4          1           0        3.773546   -0.778109   -0.126999
      5          6           0        1.105902    0.091725   -0.114597
      6          6           0       -0.293362    0.440960   -0.173081
      7          8           0       -0.733480    1.574888    0.010367
      8          8           0       -1.071073   -0.631407   -0.461237
      9          6           0       -2.525762   -0.410583   -0.530120
     10          6           0       -3.125834   -0.386563    0.864077
     11          1           0       -2.878044   -1.255497   -1.119975
     12          1           0       -2.704063    0.524583   -1.065836
     13          1           0       -4.214648   -0.303392    0.796799
     14          1           0       -2.881840   -1.307038    1.399895
     15          1           0       -2.752163    0.468494    1.432110
 ---------------------------------------------------------------------

 SCF Done:  E(UHF) =  -417.932542642     A.U. after   34 cycles
 E2 =    -0.1265417766D+01 EUMP2 =    -0.41919796040782D+03
 CCSD(T)= -0.41932207889D+03

 The electronic state is 2-A.
 Alpha  occ. eigenvalues --  -20.61643 -20.61128 -20.56764 -11.42935 -11.32417
 Alpha  occ. eigenvalues --  -11.30566 -11.26686 -11.23177  -1.46596  -1.39136
 Alpha  occ. eigenvalues --   -1.36196  -1.09386  -1.04926  -0.93444  -0.84664
 Alpha  occ. eigenvalues --   -0.78960  -0.75384  -0.68995  -0.67040  -0.65767
 Alpha  occ. eigenvalues --   -0.63581  -0.58455  -0.57075  -0.54932  -0.54516
 Alpha  occ. eigenvalues --   -0.53843  -0.51108  -0.48561  -0.47492  -0.46229
 Alpha  occ. eigenvalues --   -0.44917
 Alpha virt. eigenvalues --    0.03959   0.04634   0.05709   0.06405   0.07271
 Alpha virt. eigenvalues --    0.07561   0.08011   0.09176   0.11043   0.12055
 Alpha virt. eigenvalues --    0.12822   0.13379   0.14255   0.15377   0.15652

  Beta  occ. eigenvalues --  -20.61633 -20.59615 -20.57691 -11.42310 -11.30576
  Beta  occ. eigenvalues --  -11.28637 -11.26755 -11.23178  -1.47030  -1.37681
  Beta  occ. eigenvalues --   -1.34160  -1.08846  -1.03753  -0.91374  -0.83599
  Beta  occ. eigenvalues --   -0.75558  -0.73239  -0.69840  -0.66362  -0.63929
  Beta  occ. eigenvalues --   -0.59071  -0.57795  -0.56128  -0.54378  -0.52031
  Beta  occ. eigenvalues --   -0.51299  -0.49522  -0.48154  -0.44493  -0.44044
  Beta virt. eigenvalues --   -0.00156   0.04059   0.05683   0.05947   0.06420
  Beta virt. eigenvalues --    0.07385   0.08053   0.09152   0.09525   0.11401
  Beta virt. eigenvalues --    0.12469   0.13327   0.13682   0.14585   0.15128

 Mulliken charges and spin densities:
               1          2
     1  O   -0.361449   0.257690
     2  H    0.286544  -0.016418
     3  C   -0.596097   2.015474
     4  H    0.367528  -0.087527
     5  C    1.381339  -1.183616
     6  C   -0.969432   0.205301
     7  O   -0.281660  -0.195363
     8  O   -0.112316   0.004648
     9  C   -0.156461   0.002099
    10  C   -0.361978  -0.001541
    11  H    0.169900  -0.000307
    12  H    0.177636   0.000058
    13  H    0.135888  -0.000219
    14  H    0.145936  -0.000122
    15  H    0.174623  -0.000158
 Sum of Mulliken charges =  -0.00000   1.00000

 Dipole moment (field-independent basis, Debye):
    X=             -1.3873    Y=             -0.8171    Z=             -1.3702  Tot=              2.1142
 Quadrupole moment (field-independent basis, Debye-Ang):
   XX=            -41.5522   YY=            -52.5193   ZZ=            -48.0514
   XY=              7.9333   XZ=             -4.3618   YZ=             -0.3129

 6\PMP3-0=-419.2460128\MP4SDQ=-419.2525814\CCSD=-419.2655921\CCSD(T)=-4
 Normal termination of Gaussian 16 at Sun Jun  8 04:04:28 2025.
