 Gaussian 16, Revision A.03,
 Gaussian 16:  ES64L-G16RevA.03 25-Dec-2016

 ------------------------------------------------------------
 # opt=(calcfc,tight,ts,noeigentest) freq 6-311++g(d,p) m062x
 ------------------------------------------------------------

 -------------------
 Title Card Required
 -------------------
 Symbolic Z-matrix:
 Charge =  0 Multiplicity = 2

 SCF Done:  E(UM062X) =  -420.202684988     A.U. after   25 cycles
 SCF Done:  E(UM062X) =  -420.205959331     A.U. after   21 cycles
 SCF Done:  E(UM062X) =  -420.206003712     A.U. after   21 cycles
 SCF Done:  E(UM062X) =  -420.206024540     A.U. after   21 cycles
 SCF Done:  E(UM062X) =  -420.206027403     A.U. after   19 cycles
 SCF Done:  E(UM062X) =  -420.206028613     A.U. after   19 cycles
 SCF Done:  E(UM062X) =  -420.206007043     A.U. after   21 cycles
 SCF Done:  E(UM062X) =  -420.206028175     A.U. after   20 cycles
 SCF Done:  E(UM062X) =  -420.206028422     A.U. after   19 cycles
 SCF Done:  E(UM062X) =  -420.206027918     A.U. after   19 cycles
 SCF Done:  E(UM062X) =  -420.206027907     A.U. after   18 cycles
 SCF Done:  E(UM062X) =  -420.206027162     A.U. after   19 cycles
 SCF Done:  E(UM062X) =  -420.206027823     A.U. after   19 cycles
 SCF Done:  E(UM062X) =  -420.206027911     A.U. after   18 cycles
 SCF Done:  E(UM062X) =  -420.206027896     A.U. after   18 cycles
 SCF Done:  E(UM062X) =  -420.206027902     A.U. after    9 cycles
 SCF Done:  E(UM062X) =  -420.206027902     A.U. after    5 cycles
 SCF Done:  E(UM062X) =  -420.206027903     A.U. after    7 cycles
 SCF Done:  E(UM062X) =  -420.206027900     A.U. after    7 cycles
 Optimization completed on the basis of negligible forces.
    -- Stationary point found.
 Normal termination of Gaussian 16 at Fri Jun  6 18:50:01 2025.

 ----------------------------------------------------------------------
 #N Geom=AllCheck Guess=TCheck SCRF=Check GenChk UM062X/6-311++G(d,p) F
 req
 ----------------------------------------------------------------------

 Structure from the checkpoint file:  "ethyl_propiolate.chk"
 -------------------
 Title Card Required
 -------------------
 Charge =  0 Multiplicity = 2

                         Standard orientation:
 ---------------------------------------------------------------------
 Center     Atomic      Atomic             Coordinates (Angstroms)
 Number     Number       Type             X           Y           Z
 ---------------------------------------------------------------------
      1          8           0        3.935042    1.498699    0.031682
      2          1           0        4.518521    0.876798   -0.435242
      3          6           0       -3.342300    1.231372   -0.486211
      4          1           0       -4.195424    1.790163   -0.792207
      5          6           0       -2.382224    0.602842   -0.142228
      6          6           0       -1.225740   -0.145243    0.331639
      7          8           0       -0.918687   -0.236809    1.487365
      8          8           0       -0.572527   -0.710386   -0.685402
      9          6           0        0.605635   -1.464259   -0.339977
     10          6           0        1.793824   -0.545524   -0.126836
     11          1           0        0.755676   -2.126364   -1.190966
     12          1           0        0.395032   -2.056649    0.551051
     13          1           0        2.684938   -1.147162    0.068475
     14          1           0        1.963245    0.064517   -1.016514
     15          1           0        1.632214    0.111537    0.727919
 ---------------------------------------------------------------------

 SCF Done:  E(UM062X) =  -420.206027900     A.U. after    1 cycles

 The electronic state is 2-A.
 Alpha  occ. eigenvalues --  -19.69790 -19.68282 -19.63087 -10.70520 -10.60715
 Alpha  occ. eigenvalues --  -10.56794 -10.56409 -10.54038  -1.25617  -1.16314
 Alpha  occ. eigenvalues --   -1.15104  -0.90295  -0.86837  -0.78055  -0.70454
 Alpha  occ. eigenvalues --   -0.64491  -0.60937  -0.58438  -0.57064  -0.56469
 Alpha  occ. eigenvalues --   -0.53591  -0.51165  -0.49511  -0.46515  -0.45505
 Alpha  occ. eigenvalues --   -0.44480  -0.42083  -0.39314  -0.38481  -0.36982
 Alpha  occ. eigenvalues --   -0.36021
 Alpha virt. eigenvalues --   -0.01580  -0.01094   0.00500   0.01029   0.02325
 Alpha virt. eigenvalues --    0.03365   0.03672   0.04338   0.05551   0.06413
 Alpha virt. eigenvalues --    0.07109   0.07332   0.08284   0.09341   0.10919

  Beta  occ. eigenvalues --  -19.68281 -19.68198 -19.63087 -10.70520 -10.60706
  Beta  occ. eigenvalues --  -10.56794 -10.56409 -10.54025  -1.25615  -1.16312
  Beta  occ. eigenvalues --   -1.06800  -0.90277  -0.86816  -0.78034  -0.70435
  Beta  occ. eigenvalues --   -0.64474  -0.60936  -0.58427  -0.56398  -0.53923
  Beta  occ. eigenvalues --   -0.53448  -0.49490  -0.46860  -0.45479  -0.42269
  Beta  occ. eigenvalues --   -0.40630  -0.39317  -0.38533  -0.36982  -0.36022
  Beta virt. eigenvalues --   -0.10397  -0.01482  -0.00898   0.00580   0.01129
  Beta virt. eigenvalues --    0.02359   0.03376   0.03979   0.04393   0.05557
  Beta virt. eigenvalues --    0.06477   0.07131   0.07371   0.08312   0.09592

 Mulliken charges and spin densities:
               1          2
     1  O   -0.201923   1.004510
     2  H    0.245702  -0.021308
     3  C   -0.567531   0.000064
     4  H    0.181191  -0.000004
     5  C    1.090035  -0.000182
     6  C   -0.691042   0.000842
     7  O   -0.212409   0.000171
     8  O    0.013531   0.000006
     9  C   -0.501585   0.020347
    10  C   -0.284340  -0.010902
    11  H    0.185382   0.000064
    12  H    0.209380   0.001597
    13  H    0.158652  -0.000295
    14  H    0.165414   0.005040
    15  H    0.209542   0.000049
 Sum of Mulliken charges =  -0.00000   1.00000

 Dipole moment (field-independent basis, Debye):
    X=              1.3870    Y=             -1.2896    Z=             -2.5643  Tot=              3.1878
 Quadrupole moment (field-independent basis, Debye-Ang):
   XX=            -29.5025   YY=            -46.0451   ZZ=            -53.0718
   XY=             -9.1132   XZ=             -0.9891   YZ=             -1.2835

  Exact polarizability:  83.763 -17.088  60.497   4.981  -2.208  59.157
 Approx polarizability:  86.264 -19.842  69.079   8.811  -3.864  76.031

 ******    1 imaginary frequencies (negative Signs) ******

                      1                      2                      3
                      A                      A                      A
 Frequencies --    -94.4689                13.8727                34.8616
 Red. masses --      1.1071                 5.6015                 5.8191
 Frc consts  --      0.0058                 0.0006                 0.0042
 IR Inten    --    124.5202                 0.9465                 2.2608

                      4                      5                      6
                      A                      A                      A
 Frequencies --     86.0892                97.9658               118.1245
 Red. masses --      3.5536                 5.9598                 3.5374
 Frc consts  --      0.0155                 0.0337                 0.0291
 IR Inten    --      3.6342                 0.5132                 0.9216

                      7                      8                      9
                      A                      A                      A
 Frequencies --    162.1002               219.1834               228.1477
 Red. masses --      2.6402                 1.0798                 1.2865
 Frc consts  --      0.0409                 0.0306                 0.0395
 IR Inten    --      5.5797               206.5209                 1.0106

                     10                     11                     12
                      A                      A                      A
 Frequencies --    273.2369               342.6914               426.9099
 Red. masses --      4.4016                 2.9221                 3.9727
 Frc consts  --      0.1936                 0.2022                 0.4266
 IR Inten    --      1.8535                 9.1177                 2.0706

                     13                     14                     15
                      A                      A                      A
 Frequencies --    565.4426               609.4851               737.4378
 Red. masses --      4.2322                 7.3298                 1.3192
 Frc consts  --      0.7972                 1.6042                 0.4227
 IR Inten    --      3.1064                 7.2142                40.8206

                     16                     17                     18
                      A                      A                      A
 Frequencies --    771.4436               787.4950               805.8717
 Red. masses --      1.3701                 5.8462                 1.2723
 Frc consts  --      0.4804                 2.1361                 0.4868
 IR Inten    --     25.6723                38.7369                 6.6081

                     19                     20                     21
                      A                      A                      A
 Frequencies --    899.3928               930.1305              1079.0584
 Red. masses --      3.0826                 2.7321                 4.2228
 Frc consts  --      1.4692                 1.3926                 2.8970
 IR Inten    --     13.3873                 4.7667                22.0323

                     22                     23                     24
                      A                      A                      A
 Frequencies --   1133.4278              1203.3976              1286.8164
 Red. masses --      2.0728                 1.7669                 4.2932
 Frc consts  --      1.5689                 1.5076                 4.1886
 IR Inten    --     21.5592                 6.0051               627.9221

                     25                     26                     27
                      A                      A                      A
 Frequencies --   1348.0684              1401.4033              1431.6823
 Red. masses --      1.2087                 1.2667                 1.3717
 Frc consts  --      1.2942                 1.4657                 1.6566
 IR Inten    --     81.9862                29.0934                12.9156

                     28                     29                     30
                      A                      A                      A
 Frequencies --   1492.6650              1501.9963              1513.5877
 Red. masses --      1.0392                 1.0622                 1.0820
 Frc consts  --      1.3642                 1.4118                 1.4605
 IR Inten    --      7.9742                 2.9731                18.1222

                     31                     32                     33
                      A                      A                      A
 Frequencies --   1841.2208              2267.3557              3066.6560
 Red. masses --     12.0579                 5.7529                 1.0361
 Frc consts  --     24.0843                17.4252                 5.7407
 IR Inten    --    333.7906                69.1237                16.5849

                     34                     35                     36
                      A                      A                      A
 Frequencies --   3106.6122              3137.8522              3152.5274
 Red. masses --      1.0610                 1.1007                 1.1038
 Frc consts  --      6.0332                 6.3852                 6.4635
 IR Inten    --     17.2861                19.3549                 1.6386

                     37                     38                     39
                      A                      A                      A
 Frequencies --   3172.3252              3490.1783              3787.5053
 Red. masses --      1.1072                 1.1707                 1.0671
 Frc consts  --      6.5651                 8.4020                 9.0192
 IR Inten    --     12.8626                60.3087                23.1408

 - Thermochemistry -
 -------------------
 Temperature   298.150 Kelvin.  Pressure   1.00000 Atm.
 Atom     1 has atomic number  8 and mass  15.99491

 Molecular mass:   115.03952 amu.
 Principal axes and moments of inertia in atomic units:
                           1         2         3
     Eigenvalues --   585.477522268.118152475.11054
           X            0.99983  -0.01869  -0.00006
           Y            0.01869   0.99980  -0.00713
           Z            0.00019   0.00713   0.99997
 This molecule is an asymmetric top.
 Rotational symmetry number  1.
 Warning -- assumption of classical behavior for rotation
           may cause significant error
 Rotational temperatures (Kelvin)      0.14794     0.03819     0.03499
 Rotational constants (GHZ):           3.08251     0.79570     0.72916
    1 imaginary frequencies ignored.
 Zero-point vibrational energy     290239.3 (Joules/Mol)
                                   69.36885 (Kcal/Mol)
 Warning -- explicit consideration of  13 degrees of freedom as
           vibrations may cause significant error
 Vibrational temperatures:     19.96    50.16   123.86   140.95   169.95
          (Kelvin)            233.23   315.36   328.25   393.13   493.06
                              614.23   813.55   876.91  1061.01  1109.94
                             1133.03  1159.47  1294.03  1338.25  1552.52
                             1630.75  1731.42  1851.44  1939.57  2016.31
                             2059.87  2147.61  2161.04  2177.72  2649.11
                             3262.22  4412.23  4469.72  4514.67  4535.78
                             4564.27  5021.59  5449.38

 Zero-point correction=                           0.110546 (Hartree/Particle)
 Thermal correction to Energy=                    0.121037
 Thermal correction to Enthalpy=                  0.121981
 Thermal correction to Gibbs Free Energy=         0.071240
 Sum of electronic and zero-point Energies=           -420.095482
 Sum of electronic and thermal Energies=              -420.084991
 Sum of electronic and thermal Enthalpies=            -420.084047
 Sum of electronic and thermal Free Energies=         -420.134788

                     E (Thermal)             CV                S
                      KCal/Mol        Cal/Mol-Kelvin    Cal/Mol-Kelvin
 Total                   75.952             33.331            106.795
 Electronic               0.000              0.000              1.377
 Translational            0.889              2.981             40.136
 Rotational               0.889              2.981             29.576
 Vibrational             74.175             27.370             35.706
 Vibration     1          0.593              1.986              7.361
 Vibration     2          0.594              1.983              5.532
 Vibration     3          0.601              1.959              3.747
 Vibration     4          0.603              1.951              3.494
 Vibration     5          0.608              1.934              3.131
 Vibration     6          0.622              1.889              2.525
 Vibration     7          0.647              1.812              1.966
 Vibration     8          0.651              1.798              1.893
 Vibration     9          0.676              1.723              1.576
 Vibration    10          0.722              1.590              1.200
 Vibration    11          0.789              1.412              0.869
 Vibration    12          0.921              1.106              0.513
 Vibration    13          0.968              1.012              0.434

 Optimization completed on the basis of negligible forces.
    -- Stationary point found.

 1\1\GINC-AJ\Freq\UM062X\6-311++G(d,p)\C5H7O3(2)\AAYUSH\06-Jun-2025\0\\
 #N Geom=AllCheck Guess=TCheck SCRF=Check GenChk UM062X/6-311++G(d,p) F
 req\\Title Card Required\\0,2\O,-3.9408871003,1.5290735949,-0.11574350
 04\H,-4.5301269255,0.9268407486,0.3693750072\C,3.3315601832,1.25246328
 55,0.4625080322\H,4.184870854,1.8186927376,0.7539630115\C,2.3712724801
 ,0.6155756703,0.1348767824\C,1.214979519,-0.1447471091,-0.3195803585\O
 ,0.9154873431,-0.277094622,-1.4733383745\O,0.5524687139,-0.6699791214,
 0.7127258572\C,-0.6264067957,-1.4313296196,0.386681688\C,-1.8092908085

 Normal termination of Gaussian 16 at Fri Jun  6 18:51:47 2025.
