 Gaussian 16, Revision A.03,
 Gaussian 16:  ES64L-G16RevA.03 25-Dec-2016

 -----------------------
 # ccsd(t)/6-311++g** sp
 -----------------------

 -------------------
 Title Card Required
 -------------------
 Symbolic Z-matrix:
 Charge =  0 Multiplicity = 2

                         Standard orientation:
 ---------------------------------------------------------------------
 Center     Atomic      Atomic             Coordinates (Angstroms)
 Number     Number       Type             X           Y           Z
 ---------------------------------------------------------------------
      1          8           0        2.642657    1.760767   -0.247830
      2          1           0        1.825601    2.232326   -0.016733
      3          6           0       -3.192667    1.029321    0.403153
      4          1           0       -4.073240    1.575232    0.649911
      5          6           0       -2.203043    0.414183    0.125456
      6          6           0       -1.033921   -0.374690   -0.228189
      7          8           0       -1.078374   -1.476831   -0.693885
      8          8           0        0.096246    0.297826    0.036892
      9          6           0        1.317454   -0.370530   -0.282857
     10          6           0        1.772892   -1.293589    0.815459
     11          1           0        2.085695    0.519179   -0.378881
     12          1           0        1.247531   -0.833070   -1.267799
     13          1           0        2.755127   -1.699934    0.571026
     14          1           0        1.841766   -0.753202    1.760344
     15          1           0        1.068997   -2.122792    0.922583
 ---------------------------------------------------------------------

 SCF Done:  E(UHF) =  -417.969400953     A.U. after   33 cycles
 E2 =    -0.1277004727D+01 EUMP2 =    -0.41924640567921D+03
 CCSD(T)= -0.41934894904D+03

 The electronic state is 2-A.
 Alpha  occ. eigenvalues --  -20.63545 -20.62388 -20.57094 -11.42515 -11.30620
 Alpha  occ. eigenvalues --  -11.27405 -11.26648 -11.22783  -1.49280  -1.40234
 Alpha  occ. eigenvalues --   -1.39039  -1.08700  -1.04759  -0.93323  -0.84977
 Alpha  occ. eigenvalues --   -0.77533  -0.74334  -0.72648  -0.69898  -0.68008
 Alpha  occ. eigenvalues --   -0.67092  -0.60799  -0.59068  -0.56317  -0.55667
 Alpha  occ. eigenvalues --   -0.53990  -0.49722  -0.48520  -0.44874  -0.43345
 Alpha  occ. eigenvalues --   -0.43268
 Alpha virt. eigenvalues --    0.03468   0.04815   0.05905   0.06306   0.07813
 Alpha virt. eigenvalues --    0.08111   0.08869   0.10033   0.11041   0.11807
 Alpha virt. eigenvalues --    0.12124   0.13804   0.14619   0.15585   0.16472

  Beta  occ. eigenvalues --  -20.62435 -20.59743 -20.57092 -11.42487 -11.29618
  Beta  occ. eigenvalues --  -11.27403 -11.26651 -11.22838  -1.49206  -1.39189
  Beta  occ. eigenvalues --   -1.26266  -1.08336  -1.03725  -0.93116  -0.83261
  Beta  occ. eigenvalues --   -0.77158  -0.73524  -0.70403  -0.67295  -0.66053
  Beta  occ. eigenvalues --   -0.61651  -0.58873  -0.55625  -0.54389  -0.51724
  Beta  occ. eigenvalues --   -0.50296  -0.48827  -0.46898  -0.43339  -0.43276
  Beta virt. eigenvalues --    0.03437   0.04491   0.05305   0.06288   0.07218
  Beta virt. eigenvalues --    0.07860   0.08150   0.09158   0.10177   0.11300
  Beta virt. eigenvalues --    0.12080   0.12168   0.13869   0.14638   0.15679

 Mulliken charges and spin densities:
               1          2
     1  O   -0.267304   0.863061
     2  H    0.268115  -0.030576
     3  C   -0.619107   0.001509
     4  H    0.211984  -0.000107
     5  C    1.276991  -0.001177
     6  C   -0.743547   0.003244
     7  O   -0.279297   0.000398
     8  O   -0.069735  -0.021064
     9  C   -0.393238   0.334241
    10  C   -0.306062  -0.028185
    11  H    0.248555  -0.126823
    12  H    0.198198  -0.014084
    13  H    0.147168   0.001084
    14  H    0.153589   0.004379
    15  H    0.173690   0.014100
 Sum of Mulliken charges =  -0.00000   1.00000

 Dipole moment (field-independent basis, Debye):
    X=             -0.9918    Y=              2.0222    Z=              1.2311  Tot=              2.5669
 Quadrupole moment (field-independent basis, Debye-Ang):
   XX=            -44.3529   YY=            -47.3138   ZZ=            -48.5331
   XY=            -10.1041   XZ=             -2.3181   YZ=             -0.4835

 19.2725764\MP4SDQ=-419.2953872\CCSD=-419.2949401\CCSD(T)=-419.348949\S
 Normal termination of Gaussian 16 at Tue Jun 10 22:07:48 2025.
