 Gaussian 16, Revision A.03,
 Gaussian 16:  ES64L-G16RevA.03 25-Dec-2016

 ----------------------------------------------------------------------
 # irc=(calcfc,maxpoints=10,maxcycle=900,stepsize=5) 6-311++g(d,p) m062
 x
 ----------------------------------------------------------------------

 -------------------
 Title Card Required
 -------------------
 Symbolic Z-matrix:
 Charge =  0 Multiplicity = 2

 SCF Done:  E(UM062X) =  -420.199073980     A.U. after   20 cycles
 SCF Done:  E(UM062X) =  -420.199123745     A.U. after   14 cycles
 SCF Done:  E(UM062X) =  -420.199249867     A.U. after   17 cycles
 SCF Done:  E(UM062X) =  -420.199426807     A.U. after   17 cycles
 SCF Done:  E(UM062X) =  -420.199637149     A.U. after   17 cycles
 SCF Done:  E(UM062X) =  -420.199873143     A.U. after   17 cycles
 SCF Done:  E(UM062X) =  -420.200128221     A.U. after   17 cycles
 SCF Done:  E(UM062X) =  -420.200397793     A.U. after   15 cycles
 SCF Done:  E(UM062X) =  -420.200677336     A.U. after   17 cycles
 SCF Done:  E(UM062X) =  -420.200963738     A.U. after   17 cycles
 SCF Done:  E(UM062X) =  -420.199145952     A.U. after   18 cycles
 SCF Done:  E(UM062X) =  -420.199418473     A.U. after   14 cycles
 SCF Done:  E(UM062X) =  -420.199975890     A.U. after   17 cycles
 SCF Done:  E(UM062X) =  -420.200882881     A.U. after   16 cycles
 SCF Done:  E(UM062X) =  -420.202171348     A.U. after   14 cycles
 SCF Done:  E(UM062X) =  -420.203829405     A.U. after   14 cycles
 SCF Done:  E(UM062X) =  -420.205820001     A.U. after   13 cycles
 SCF Done:  E(UM062X) =  -420.208070910     A.U. after   13 cycles
 SCF Done:  E(UM062X) =  -420.210463661     A.U. after   13 cycles
 SCF Done:  E(UM062X) =  -420.212829190     A.U. after   13 cycles

                          Input orientation:
 ---------------------------------------------------------------------
 Center     Atomic      Atomic             Coordinates (Angstroms)
 Number     Number       Type             X           Y           Z
 ---------------------------------------------------------------------
      1          8           0        2.692819    1.734327   -0.230212
      2          1           0        1.897649    2.230560    0.000821
      3          6           0       -3.134180    1.019914    0.422411
      4          1           0       -4.014741    1.566086    0.669250
      5          6           0       -2.144487    0.404917    0.144644
      6          6           0       -0.977517   -0.384117   -0.209878
      7          8           0       -1.019714   -1.486034   -0.674514
      8          8           0        0.158094    0.287728    0.056198
      9          6           0        1.366083   -0.385449   -0.259518
     10          6           0        1.834206   -1.298275    0.833519
     11          1           0        2.269954    0.757376   -0.333200
     12          1           0        1.334867   -0.804618   -1.264201
     13          1           0        2.814091   -1.709114    0.589731
     14          1           0        1.898545   -0.763628    1.782067
     15          1           0        1.123494   -2.126877    0.934957
 ---------------------------------------------------------------------

 Alpha  occ. eigenvalues --  -19.70903 -19.65240 -19.61982 -10.72726 -10.64222
 Alpha  occ. eigenvalues --  -10.58448 -10.57963 -10.55950  -1.28112  -1.18808
 Alpha  occ. eigenvalues --   -1.11836  -0.92263  -0.88610  -0.80245  -0.71864
 Alpha  occ. eigenvalues --   -0.67192  -0.62564  -0.61126  -0.59260  -0.58396
 Alpha  occ. eigenvalues --   -0.52839  -0.51756  -0.49279  -0.48382  -0.46393
 Alpha  occ. eigenvalues --   -0.41601  -0.41338  -0.38972  -0.38587  -0.37782
 Alpha  occ. eigenvalues --   -0.31596
 Alpha virt. eigenvalues --   -0.03215  -0.00534   0.00411   0.01492   0.01823
 Alpha virt. eigenvalues --    0.02936   0.03127   0.04548   0.05809   0.05916
 Alpha virt. eigenvalues --    0.06492   0.07319   0.07753   0.09208   0.10087

  Beta  occ. eigenvalues --  -19.70866 -19.65232 -19.61433 -10.72682 -10.63432
  Beta  occ. eigenvalues --  -10.58447 -10.57963 -10.55964  -1.27863  -1.18601
  Beta  occ. eigenvalues --   -1.09735  -0.91432  -0.87782  -0.79766  -0.70533
  Beta  occ. eigenvalues --   -0.66191  -0.62281  -0.60222  -0.58319  -0.56671
  Beta  occ. eigenvalues --   -0.51796  -0.50813  -0.48410  -0.47186  -0.44568
  Beta  occ. eigenvalues --   -0.41257  -0.41040  -0.38570  -0.37978  -0.37721
  Beta virt. eigenvalues --   -0.08598  -0.03088  -0.00465   0.00482   0.01635
  Beta virt. eigenvalues --    0.01985   0.03033   0.03189   0.04777   0.05877
  Beta virt. eigenvalues --    0.05969   0.06673   0.07409   0.07789   0.09315

 Mulliken charges and spin densities:
               1          2
     1  O   -0.474885   0.237930
     2  H    0.257691  -0.001180
     3  C   -0.553892   0.001697
     4  H    0.190666   0.000079
     5  C    1.122551   0.000599
     6  C   -0.730334   0.011758
     7  O   -0.196837   0.001510
     8  O    0.016497  -0.032510
     9  C   -0.466442   0.802181
    10  C   -0.331288  -0.034599
    11  H    0.346557  -0.029551
    12  H    0.237696  -0.016781
    13  H    0.187803   0.002985
    14  H    0.196626   0.008684
    15  H    0.197590   0.047199
 Sum of Mulliken charges =  -0.00000   1.00000

 Dipole moment (field-independent basis, Debye):
    X=             -2.1897    Y=             -0.1327    Z=              1.3098  Tot=              2.5550
 Quadrupole moment (field-independent basis, Debye-Ang):
   XX=            -48.0644   YY=            -49.6507   ZZ=            -47.7995
   XY=            -14.9146   XZ=             -1.5641   YZ=             -0.2509

  Exact polarizability:   0.000   0.000   0.000   0.000   0.000   0.000
 Approx polarizability:  94.754  -9.772  91.041  -6.854   9.824  61.041

 Normal termination of Gaussian 16 at Fri Jun 13 16:23:04 2025.
