 Gaussian 16, Revision A.03,
 Gaussian 16:  ES64L-G16RevA.03 25-Dec-2016

 -----------------------
 # ccsd(t)/6-311++g** sp
 -----------------------

 -------------------
 Title Card Required
 -------------------
 Symbolic Z-matrix:
 Charge =  0 Multiplicity = 2

                         Standard orientation:
 ---------------------------------------------------------------------
 Center     Atomic      Atomic             Coordinates (Angstroms)
 Number     Number       Type             X           Y           Z
 ---------------------------------------------------------------------
      1          8           0        2.294180    1.674228   -0.301931
      2          1           0        1.461292    1.863458    0.198474
      3          6           0       -3.406147    0.195289   -0.484658
      4          1           0       -4.429337    0.257470   -0.778980
      5          6           0       -2.247409    0.130830   -0.150338
      6          6           0       -0.869842    0.096432    0.265039
      7          8           0       -0.265208    1.050502    0.760571
      8          8           0       -0.303316   -1.115271    0.057798
      9          6           0        1.098885   -1.303970    0.462840
     10          6           0        2.050429   -0.802771   -0.592508
     11          1           0        1.171566   -2.386221    0.587869
     12          1           0        1.254252   -0.811405    1.426840
     13          1           0        3.076572   -1.136326   -0.423895
     14          1           0        1.715539   -1.000676   -1.611974
     15          1           0        2.189369    0.443178   -0.532089
 ---------------------------------------------------------------------

 SCF Done:  E(UHF) =  -417.953806387     A.U. after   34 cycles
 E2 =    -0.1292402081D+01 EUMP2 =    -0.41924620846825D+03
 CCSD(T)= -0.41934823637D+03

 The electronic state is 2-A.
 Alpha  occ. eigenvalues --  -20.62726 -20.59285 -20.57767 -11.44054 -11.31353
 Alpha  occ. eigenvalues --  -11.28660 -11.27661 -11.25005  -1.47808  -1.37885
 Alpha  occ. eigenvalues --   -1.35622  -1.09196  -1.05365  -0.94056  -0.85738
 Alpha  occ. eigenvalues --   -0.77163  -0.74114  -0.71843  -0.70222  -0.67214
 Alpha  occ. eigenvalues --   -0.63548  -0.61555  -0.58916  -0.56631  -0.54195
 Alpha  occ. eigenvalues --   -0.52151  -0.49889  -0.48446  -0.43820  -0.43755
 Alpha  occ. eigenvalues --   -0.42713
 Alpha virt. eigenvalues --    0.03421   0.04360   0.05957   0.06482   0.06882
 Alpha virt. eigenvalues --    0.07513   0.09454   0.10041   0.10973   0.11651
 Alpha virt. eigenvalues --    0.12120   0.13590   0.14123   0.15034   0.16185

  Beta  occ. eigenvalues --  -20.62723 -20.57776 -20.55931 -11.44059 -11.31471
  Beta  occ. eigenvalues --  -11.28669 -11.27653 -11.23562  -1.47806  -1.37854
  Beta  occ. eigenvalues --   -1.23807  -1.08969  -1.03859  -0.92601  -0.84270
  Beta  occ. eigenvalues --   -0.77062  -0.74051  -0.70973  -0.67611  -0.63334
  Beta  occ. eigenvalues --   -0.62050  -0.58328  -0.56330  -0.53917  -0.50540
  Beta  occ. eigenvalues --   -0.48851  -0.47992  -0.46326  -0.43751  -0.43699
  Beta virt. eigenvalues --    0.03424   0.04353   0.05667   0.06201   0.06500
  Beta virt. eigenvalues --    0.07043   0.07731   0.09811   0.10552   0.10976
  Beta virt. eigenvalues --    0.12128   0.12519   0.13633   0.14130   0.15229

 Mulliken charges and spin densities:
               1          2
     1  O   -0.364101   0.740292
     2  H    0.297073  -0.015884
     3  C   -0.739138  -0.004993
     4  H    0.209274   0.000288
     5  C    1.406344   0.008180
     6  C   -0.652665   0.009730
     7  O   -0.365481  -0.005309
     8  O   -0.088023   0.000288
     9  C   -0.270261  -0.082831
    10  C   -0.429015   0.578710
    11  H    0.168854   0.021874
    12  H    0.212000   0.012557
    13  H    0.148540  -0.032299
    14  H    0.180103  -0.025961
    15  H    0.286497  -0.204642
 Sum of Mulliken charges =  -0.00000   1.00000

 Dipole moment (field-independent basis, Debye):
    X=             -2.4060    Y=             -2.7299    Z=             -0.1041  Tot=              3.6403
 Quadrupole moment (field-independent basis, Debye-Ang):
   XX=            -38.6472   YY=            -51.2003   ZZ=            -48.1091
   XY=             -7.8555   XZ=              4.5594   YZ=             -1.0101

 19.2685442\MP4SDQ=-419.2927478\CCSD=-419.2917991\CCSD(T)=-419.3482364\
 Normal termination of Gaussian 16 at Sun Jun  8 02:35:52 2025.
