 Gaussian 16, Revision A.03,
 Gaussian 16:  ES64L-G16RevA.03 25-Dec-2016

 -----------------------------------------------------
 # opt=(calcfc,tight,ts,noeigentest) freq 6-31+g m062x
 -----------------------------------------------------

 -------------------
 Title Card Required
 -------------------
 Symbolic Z-matrix:
 Charge =  0 Multiplicity = 2

 SCF Done:  E(UM062X) =  -419.940614860     A.U. after   20 cycles
 SCF Done:  E(UM062X) =  -419.948473919     A.U. after   20 cycles
 SCF Done:  E(UM062X) =  -419.956342581     A.U. after   21 cycles
 SCF Done:  E(UM062X) =  -419.958612693     A.U. after   21 cycles
 SCF Done:  E(UM062X) =  -419.960745007     A.U. after   23 cycles
 SCF Done:  E(UM062X) =  -419.961789168     A.U. after   20 cycles
 SCF Done:  E(UM062X) =  -419.962276487     A.U. after   21 cycles
 SCF Done:  E(UM062X) =  -419.962536783     A.U. after   23 cycles
 SCF Done:  E(UM062X) =  -419.962676105     A.U. after   22 cycles
 SCF Done:  E(UM062X) =  -419.962701219     A.U. after   23 cycles
 SCF Done:  E(UM062X) =  -419.962465201     A.U. after    9 cycles
 SCF Done:  E(UM062X) =  -419.962465200     A.U. after    8 cycles
 SCF Done:  E(UM062X) =  -419.962465199     A.U. after    9 cycles
 SCF Done:  E(UM062X) =  -419.962465199     A.U. after    7 cycles
 SCF Done:  E(UM062X) =  -419.962465198     A.U. after    8 cycles
 SCF Done:  E(UM062X) =  -419.962465198     A.U. after    8 cycles
 SCF Done:  E(UM062X) =  -419.962465198     A.U. after    6 cycles
 SCF Done:  E(UM062X) =  -419.962465198     A.U. after    7 cycles
 SCF Done:  E(UM062X) =  -419.962465198     A.U. after    9 cycles
 Optimization completed.
    -- Stationary point found.
 Normal termination of Gaussian 16 at Fri Jun  6 15:15:02 2025.

 ------------------------------------------------------------------
 #N Geom=AllCheck Guess=TCheck SCRF=Check GenChk UM062X/6-31+G Freq
 ------------------------------------------------------------------

 Structure from the checkpoint file:  "ethyl_propiolate.chk"
 -------------------
 Title Card Required
 -------------------
 Charge =  0 Multiplicity = 2

                         Standard orientation:
 ---------------------------------------------------------------------
 Center     Atomic      Atomic             Coordinates (Angstroms)
 Number     Number       Type             X           Y           Z
 ---------------------------------------------------------------------
      1          8           0       -4.124286    1.376678   -0.065187
      2          1           0       -4.847606    0.844607    0.355397
      3          6           0        3.429296    1.213282    0.470549
      4          1           0        4.292169    1.765738    0.765287
      5          6           0        2.452676    0.588881    0.130570
      6          6           0        1.296589   -0.145547   -0.323658
      7          8           0        0.988637   -0.306718   -1.503497
      8          8           0        0.581884   -0.652439    0.713835
      9          6           0       -0.638440   -1.406119    0.386270
     10          6           0       -1.793619   -0.454788    0.127468
     11          1           0       -0.796906   -2.022582    1.270237
     12          1           0       -0.429792   -2.036421   -0.481196
     13          1           0       -2.709996   -1.029914   -0.044771
     14          1           0       -1.945477    0.206306    0.984765
     15          1           0       -1.611288    0.157838   -0.758120
 ---------------------------------------------------------------------

 SCF Done:  E(UM062X) =  -419.962465198     A.U. after    1 cycles

 The electronic state is 2-A.
 Alpha  occ. eigenvalues --  -19.72609 -19.70253 -19.66050 -10.72830 -10.61649
 Alpha  occ. eigenvalues --  -10.58937 -10.58616 -10.54574  -1.25619  -1.16447
 Alpha  occ. eigenvalues --   -1.15869  -0.90641  -0.87253  -0.78083  -0.71055
 Alpha  occ. eigenvalues --   -0.63779  -0.61205  -0.57395  -0.56496  -0.55613
 Alpha  occ. eigenvalues --   -0.53618  -0.51047  -0.48982  -0.46369  -0.44772
 Alpha  occ. eigenvalues --   -0.44400  -0.41777  -0.38881  -0.37818  -0.37091
 Alpha  occ. eigenvalues --   -0.36188
 Alpha virt. eigenvalues --   -0.02265   0.01198   0.02470   0.02771   0.04013
 Alpha virt. eigenvalues --    0.04871   0.05345   0.06379   0.07686   0.08571
 Alpha virt. eigenvalues --    0.08658   0.09120   0.09770   0.11740   0.12667

  Beta  occ. eigenvalues --  -19.70939 -19.70252 -19.66050 -10.72830 -10.61640
  Beta  occ. eigenvalues --  -10.58937 -10.58616 -10.54561  -1.25617  -1.16444
  Beta  occ. eigenvalues --   -1.07844  -0.90630  -0.87232  -0.78065  -0.71036
  Beta  occ. eigenvalues --   -0.63765  -0.61203  -0.57376  -0.55611  -0.53646
  Beta  occ. eigenvalues --   -0.52966  -0.49045  -0.46580  -0.44785  -0.41952
  Beta  occ. eigenvalues --   -0.40428  -0.38883  -0.37860  -0.37089  -0.36188
  Beta virt. eigenvalues --   -0.10775  -0.02259   0.01407   0.02479   0.02843
  Beta virt. eigenvalues --    0.04014   0.04897   0.05376   0.06445   0.07714
  Beta virt. eigenvalues --    0.08629   0.08834   0.09182   0.09837   0.11773

 Mulliken charges and spin densities:
               1          2
     1  O   -0.358963   1.030450
     2  H    0.382153  -0.039570
     3  C    0.225257   0.000610
     4  H    0.347474  -0.000003
     5  C    0.240376   0.002176
     6  C   -0.546543  -0.002593
     7  O   -0.352545   0.000208
     8  O   -0.220043   0.000164
     9  C   -0.295055   0.006606
    10  C   -0.544950  -0.001842
    11  H    0.218349  -0.000201
    12  H    0.236718   0.000297
    13  H    0.189229   0.001140
    14  H    0.226072   0.001064
    15  H    0.252471   0.001492
 Sum of Mulliken charges =  -0.00000   1.00000

 Dipole moment (field-independent basis, Debye):
    X=             -1.8209    Y=             -1.0135    Z=              2.6436  Tot=              3.3662
 Quadrupole moment (field-independent basis, Debye-Ang):
   XX=            -23.9400   YY=            -46.2037   ZZ=            -54.7699
   XY=              9.3192   XZ=             -1.1198   YZ=              0.9487

  Exact polarizability:  82.534  18.460  56.286   4.300   2.617  57.286
 Approx polarizability:  82.988  23.110  60.437   9.285   5.384  72.678

 ******    1 imaginary frequencies (negative Signs) ******

                      1                      2                      3
                      A                      A                      A
 Frequencies --   -127.4941                19.0430                33.6559
 Red. masses --      1.0713                 5.9408                 6.2630
 Frc consts  --      0.0103                 0.0013                 0.0042
 IR Inten    --    170.0204                 0.2229                 0.5657

                      4                      5                      6
                      A                      A                      A
 Frequencies --     83.0365                95.6799               108.9552
 Red. masses --      3.2315                 3.9555                 3.3133
 Frc consts  --      0.0131                 0.0213                 0.0232
 IR Inten    --     20.0880                 0.2499                14.9501

                      7                      8                      9
                      A                      A                      A
 Frequencies --    140.8683               167.2576               225.5666
 Red. masses --      1.2609                 2.3749                 1.3363
 Frc consts  --      0.0147                 0.0391                 0.0401
 IR Inten    --    225.3571                10.4050                 0.6298

                     10                     11                     12
                      A                      A                      A
 Frequencies --    311.6093               337.0978               431.2906
 Red. masses --      3.2120                 3.4550                 4.0361
 Frc consts  --      0.1838                 0.2313                 0.4423
 IR Inten    --      5.3095                 8.3333                 3.3879

                     13                     14                     15
                      A                      A                      A
 Frequencies --    568.1810               626.9133               795.0803
 Red. masses --      4.0526                 5.4004                 2.5358
 Frc consts  --      0.7708                 1.2505                 0.9445
 IR Inten    --      3.9134                11.7691                74.7547

                     16                     17                     18
                      A                      A                      A
 Frequencies --    804.5501               818.5243               870.8922
 Red. masses --      1.5044                 1.5224                 2.2235
 Frc consts  --      0.5738                 0.6010                 0.9936
 IR Inten    --     70.8705                 2.8695                11.4681

                     19                     20                     21
                      A                      A                      A
 Frequencies --    877.8084               934.0216              1072.2125
 Red. masses --      2.4261                 2.9564                 3.8534
 Frc consts  --      1.1014                 1.5196                 2.6101
 IR Inten    --      6.6953                 1.7726                27.6969

                     22                     23                     24
                      A                      A                      A
 Frequencies --   1149.2914              1218.8572              1284.4465
 Red. masses --      1.9443                 1.7048                 5.1314
 Frc consts  --      1.5131                 1.4922                 4.9880
 IR Inten    --     25.4917                 2.7086               608.0597

                     25                     26                     27
                      A                      A                      A
 Frequencies --   1341.9530              1426.9758              1459.1350
 Red. masses --      1.1813                 1.3241                 1.2316
 Frc consts  --      1.2534                 1.5885                 1.5449
 IR Inten    --     56.9529                12.8182                24.5576

                     28                     29                     30
                      A                      A                      A
 Frequencies --   1527.6838              1530.3237              1542.7302
 Red. masses --      1.0470                 1.0858                 1.0542
 Frc consts  --      1.4397                 1.4981                 1.4783
 IR Inten    --     17.3838                 8.1275                14.8738

                     31                     32                     33
                      A                      A                      A
 Frequencies --   1728.7626              2283.2662              3082.2153
 Red. masses --     11.1500                 5.8033                 1.0375
 Frc consts  --     19.6335                17.8255                 5.8069
 IR Inten    --    277.8125                80.3426                22.4398

                     34                     35                     36
                      A                      A                      A
 Frequencies --   3125.4933              3157.3898              3176.9022
 Red. masses --      1.0615                 1.0958                 1.1016
 Frc consts  --      6.1096                 6.4364                 6.5509
 IR Inten    --     14.9861                25.8477                 0.6033

                     37                     38                     39
                      A                      A                      A
 Frequencies --   3201.3835              3516.8641              3545.7358
 Red. masses --      1.1063                 1.1702                 1.0671
 Frc consts  --      6.6803                 8.5273                 7.9041
 IR Inten    --     14.4592                57.1664                 2.8041

 - Thermochemistry -
 -------------------
 Temperature   298.150 Kelvin.  Pressure   1.00000 Atm.
 Atom     1 has atomic number  8 and mass  15.99491

 Molecular mass:   115.03952 amu.
 Principal axes and moments of inertia in atomic units:
                           1         2         3
     Eigenvalues --   552.190702432.439322594.83533
           X            0.99988   0.01549   0.00011
           Y           -0.01549   0.99987   0.00336
           Z           -0.00006  -0.00336   0.99999
 This molecule is an asymmetric top.
 Rotational symmetry number  1.
 Warning -- assumption of classical behavior for rotation
           may cause significant error
 Rotational temperatures (Kelvin)      0.15686     0.03561     0.03338
 Rotational constants (GHZ):           3.26833     0.74195     0.69551
    1 imaginary frequencies ignored.
 Zero-point vibrational energy     290822.1 (Joules/Mol)
                                   69.50814 (Kcal/Mol)
 Warning -- explicit consideration of  12 degrees of freedom as
           vibrations may cause significant error
 Vibrational temperatures:     27.40    48.42   119.47   137.66   156.76
          (Kelvin)            202.68   240.65   324.54   448.34   485.01
                              620.53   817.49   901.99  1143.94  1157.57
                             1177.67  1253.02  1262.97  1343.85  1542.67
                             1653.57  1753.66  1848.03  1930.77  2053.10
                             2099.37  2198.00  2201.79  2219.64  2487.30
                             3285.11  4434.62  4496.89  4542.78  4570.85
                             4606.08  5059.98  5101.52

 Zero-point correction=                           0.110768 (Hartree/Particle)
 Thermal correction to Energy=                    0.121290
 Thermal correction to Enthalpy=                  0.122234
 Thermal correction to Gibbs Free Energy=         0.071414
 Sum of electronic and zero-point Energies=           -419.851697
 Sum of electronic and thermal Energies=              -419.841175
 Sum of electronic and thermal Enthalpies=            -419.840231
 Sum of electronic and thermal Free Energies=         -419.891052

                     E (Thermal)             CV                S
                      KCal/Mol        Cal/Mol-Kelvin    Cal/Mol-Kelvin
 Total                   76.111             33.006            106.961
 Electronic               0.000              0.000              1.377
 Translational            0.889              2.981             40.136
 Rotational               0.889              2.981             29.634
 Vibrational             74.333             27.044             35.814
 Vibration     1          0.593              1.986              6.732
 Vibration     2          0.594              1.983              5.601
 Vibration     3          0.600              1.961              3.818
 Vibration     4          0.603              1.952              3.540
 Vibration     5          0.606              1.942              3.287
 Vibration     6          0.615              1.912              2.792
 Vibration     7          0.624              1.883              2.466
 Vibration     8          0.650              1.802              1.914
 Vibration     9          0.700              1.652              1.354
 Vibration    10          0.718              1.601              1.226
 Vibration    11          0.792              1.402              0.854
 Vibration    12          0.924              1.100              0.508

 Optimization completed.
    -- Stationary point found.
 Normal termination of Gaussian 16 at Fri Jun  6 15:15:33 2025.
