 Gaussian 16, Revision A.03,
 Gaussian 16:  ES64L-G16RevA.03 25-Dec-2016

 -----------------------------------------------------
 # opt=(calcfc,tight,ts,noeigentest) freq 6-31+g m062x
 -----------------------------------------------------

 -------------------
 Title Card Required
 -------------------
 Symbolic Z-matrix:
 Charge =  0 Multiplicity = 2

 SCF Done:  E(UM062X) =  -419.939120354     A.U. after   24 cycles
 SCF Done:  E(UM062X) =  -419.946754091     A.U. after   23 cycles
 SCF Done:  E(UM062X) =  -419.955295097     A.U. after   23 cycles
 SCF Done:  E(UM062X) =  -419.954320486     A.U. after   21 cycles
 SCF Done:  E(UM062X) =  -419.957959265     A.U. after   22 cycles
 SCF Done:  E(UM062X) =  -419.956060881     A.U. after   22 cycles
 SCF Done:  E(UM062X) =  -419.954379676     A.U. after   22 cycles
 SCF Done:  E(UM062X) =  -419.954990332     A.U. after   22 cycles
 SCF Done:  E(UM062X) =  -419.954559482     A.U. after   22 cycles
 SCF Done:  E(UM062X) =  -419.954247824     A.U. after   22 cycles
 SCF Done:  E(UM062X) =  -419.956242633     A.U. after   22 cycles
 SCF Done:  E(UM062X) =  -419.956530922     A.U. after   22 cycles
 SCF Done:  E(UM062X) =  -419.956557678     A.U. after   22 cycles
 SCF Done:  E(UM062X) =  -419.956565402     A.U. after   19 cycles
 SCF Done:  E(UM062X) =  -419.956565044     A.U. after   18 cycles
 SCF Done:  E(UM062X) =  -419.956565546     A.U. after   18 cycles
 SCF Done:  E(UM062X) =  -419.956565549     A.U. after   14 cycles
 SCF Done:  E(UM062X) =  -419.956565549     A.U. after   13 cycles
 SCF Done:  E(UM062X) =  -419.956565549     A.U. after   13 cycles
 Optimization completed.
    -- Stationary point found.
 Normal termination of Gaussian 16 at Sat Jun  7 12:08:40 2025.

 ------------------------------------------------------------------
 #N Geom=AllCheck Guess=TCheck SCRF=Check GenChk UM062X/6-31+G Freq
 ------------------------------------------------------------------

 Structure from the checkpoint file:  "ethyl_propiolate.chk"
 -------------------
 Title Card Required
 -------------------
 Charge =  0 Multiplicity = 2

                         Standard orientation:
 ---------------------------------------------------------------------
 Center     Atomic      Atomic             Coordinates (Angstroms)
 Number     Number       Type             X           Y           Z
 ---------------------------------------------------------------------
      1          8           0        2.294180    1.674228   -0.301931
      2          1           0        1.461292    1.863458    0.198474
      3          6           0       -3.406147    0.195289   -0.484658
      4          1           0       -4.429337    0.257470   -0.778980
      5          6           0       -2.247409    0.130830   -0.150338
      6          6           0       -0.869842    0.096432    0.265039
      7          8           0       -0.265208    1.050502    0.760571
      8          8           0       -0.303316   -1.115271    0.057798
      9          6           0        1.098885   -1.303970    0.462840
     10          6           0        2.050429   -0.802771   -0.592508
     11          1           0        1.171566   -2.386221    0.587869
     12          1           0        1.254252   -0.811405    1.426840
     13          1           0        3.076572   -1.136326   -0.423895
     14          1           0        1.715539   -1.000676   -1.611974
     15          1           0        2.189369    0.443178   -0.532089
 ---------------------------------------------------------------------

 SCF Done:  E(UM062X) =  -419.956565549     A.U. after    2 cycles

 The electronic state is 2-A.
 Alpha  occ. eigenvalues --  -19.72360 -19.68183 -19.65615 -10.75085 -10.63805
 Alpha  occ. eigenvalues --  -10.60473 -10.60049 -10.57751  -1.27789  -1.18525
 Alpha  occ. eigenvalues --   -1.11226  -0.92554  -0.89196  -0.80129  -0.73058
 Alpha  occ. eigenvalues --   -0.65828  -0.62699  -0.60353  -0.59175  -0.57165
 Alpha  occ. eigenvalues --   -0.54021  -0.50842  -0.49613  -0.47706  -0.45249
 Alpha  occ. eigenvalues --   -0.40956  -0.40231  -0.38944  -0.38558  -0.37912
 Alpha  occ. eigenvalues --   -0.33294
 Alpha virt. eigenvalues --   -0.04222   0.01484   0.01820   0.02810   0.03417
 Alpha virt. eigenvalues --    0.04027   0.04689   0.05997   0.07180   0.07478
 Alpha virt. eigenvalues --    0.08258   0.08769   0.09399   0.11029   0.11838

  Beta  occ. eigenvalues --  -19.72360 -19.68187 -19.64436 -10.75086 -10.63832
  Beta  occ. eigenvalues --  -10.60474 -10.60049 -10.57266  -1.27785  -1.18518
  Beta  occ. eigenvalues --   -1.07017  -0.92303  -0.88665  -0.79340  -0.72426
  Beta  occ. eigenvalues --   -0.65684  -0.62662  -0.59900  -0.58530  -0.54928
  Beta  occ. eigenvalues --   -0.52572  -0.49883  -0.48753  -0.45120  -0.42796
  Beta  occ. eigenvalues --   -0.40705  -0.39538  -0.38609  -0.37733  -0.36229
  Beta virt. eigenvalues --   -0.09741  -0.04195   0.01439   0.01807   0.02811
  Beta virt. eigenvalues --    0.03358   0.04101   0.04739   0.06034   0.07120
  Beta virt. eigenvalues --    0.07556   0.08354   0.08928   0.09544   0.11190

 Mulliken charges and spin densities:
               1          2
     1  O   -0.573397   0.611435
     2  H    0.471156  -0.014957
     3  C    0.237736   0.008625
     4  H    0.354017   0.000017
     5  C    0.567872   0.024162
     6  C   -0.800534  -0.018918
     7  O   -0.463093  -0.006095
     8  O   -0.225712  -0.000148
     9  C   -0.277766  -0.046308
    10  C   -0.532010   0.532858
    11  H    0.236493   0.022804
    12  H    0.249277   0.009888
    13  H    0.237701  -0.018464
    14  H    0.243814  -0.014528
    15  H    0.274445  -0.090373
 Sum of Mulliken charges =   0.00000   1.00000

 Dipole moment (field-independent basis, Debye):
    X=             -2.5265    Y=             -3.3357    Z=              0.0485  Tot=              4.1848
 Quadrupole moment (field-independent basis, Debye-Ang):
   XX=            -40.6186   YY=            -52.4956   ZZ=            -48.2798
   XY=            -10.2114   XZ=              4.3124   YZ=             -0.7363

  Exact polarizability:  92.362  -0.047  77.226   8.162   3.244  48.580
 Approx polarizability:  99.054   3.070  86.327  13.790   8.036  54.421

 ******    1 imaginary frequencies (negative Signs) ******

                      1                      2                      3
                      A                      A                      A
 Frequencies --  -1448.0203                33.1852                94.9301
 Red. masses --      1.0874                 8.2390                 3.7586
 Frc consts  --      1.3434                 0.0053                 0.0200
 IR Inten    --   1016.6633                 2.7912                 5.5119

                      4                      5                      6
                      A                      A                      A
 Frequencies --    120.6880               179.8829               202.5443
 Red. masses --      4.8581                 3.9197                 5.0497
 Frc consts  --      0.0417                 0.0747                 0.1221
 IR Inten    --      4.0204                 0.2144                 9.5919

                      7                      8                      9
                      A                      A                      A
 Frequencies --    301.0958               336.8192               366.3996
 Red. masses --      3.2082                 2.9513                 1.2225
 Frc consts  --      0.1714                 0.1973                 0.0967
 IR Inten    --      8.8177                 5.1563                20.8027

                     10                     11                     12
                      A                      A                      A
 Frequencies --    431.4058               449.0759               572.1207
 Red. masses --      1.7936                 1.5028                 3.7051
 Frc consts  --      0.1967                 0.1786                 0.7145
 IR Inten    --     70.3992                55.4819                 0.4057

                     13                     14                     15
                      A                      A                      A
 Frequencies --    595.1865               628.9546               787.4376
 Red. masses --      3.7364                 5.7474                 1.2669
 Frc consts  --      0.7798                 1.3396                 0.4628
 IR Inten    --     10.7462                11.5751               208.5864

                     16                     17                     18
                      A                      A                      A
 Frequencies --    798.5391               815.6676               855.7958
 Red. masses --      2.8432                 1.4463                 3.5289
 Frc consts  --      1.0682                 0.5669                 1.5228
 IR Inten    --     87.2226                32.1118                13.1271

                     19                     20                     21
                      A                      A                      A
 Frequencies --    876.4891               924.6463               974.2423
 Red. masses --      2.0698                 2.3291                 1.5768
 Frc consts  --      0.9369                 1.1732                 0.8818
 IR Inten    --     12.6355                18.9631                32.1698

                     22                     23                     24
                      A                      A                      A
 Frequencies --   1083.4414              1147.7866              1189.7496
 Red. masses --      3.0243                 2.1582                 1.4775
 Frc consts  --      2.0916                 1.6752                 1.2322
 IR Inten    --     37.7511                23.8873                23.0798

                     25                     26                     27
                      A                      A                      A
 Frequencies --   1269.5857              1286.5831              1331.7594
 Red. masses --      1.0689                 2.6595                 1.4695
 Frc consts  --      1.0151                 2.5937                 1.5356
 IR Inten    --     48.6472               392.8094               198.8764

                     28                     29                     30
                      A                      A                      A
 Frequencies --   1426.1441              1476.7349              1493.7038
 Red. masses --      1.3636                 1.1105                 1.0861
 Frc consts  --      1.6340                 1.4268                 1.4277
 IR Inten    --     37.8753                15.7667               200.3847

                     31                     32                     33
                      A                      A                      A
 Frequencies --   1518.9566              1717.9486              2286.6585
 Red. masses --      1.0965                10.9039                 5.7892
 Frc consts  --      1.4905                18.9605                17.8350
 IR Inten    --     24.9612               258.0102               105.1813

                     34                     35                     36
                      A                      A                      A
 Frequencies --   3110.2231              3128.8900              3168.6050
 Red. masses --      1.0574                 1.0554                 1.1064
 Frc consts  --      6.0264                 6.0874                 6.5448
 IR Inten    --     11.9099                 4.4830                 2.4556

                     37                     38                     39
                      A                      A                      A
 Frequencies --   3215.2276              3515.4092              3570.7137
 Red. masses --      1.1075                 1.1711                 1.0651
 Frc consts  --      6.7458                 8.5268                 8.0010
 IR Inten    --      3.9288                60.0963                89.6862

 - Thermochemistry -
 -------------------
 Temperature   298.150 Kelvin.  Pressure   1.00000 Atm.
 Atom     1 has atomic number  8 and mass  15.99491

 Molecular mass:   115.03952 amu.
 Principal axes and moments of inertia in atomic units:
                           1         2         3
     Eigenvalues --   539.781651536.509681879.16074
           X            0.99972  -0.02347   0.00252
           Y            0.02349   0.99971  -0.00538
           Z           -0.00239   0.00543   0.99998
 This molecule is an asymmetric top.
 Rotational symmetry number  1.
 Warning -- assumption of classical behavior for rotation
           may cause significant error
 Rotational temperatures (Kelvin)      0.16046     0.05637     0.04609
 Rotational constants (GHZ):           3.34347     1.17457     0.96040
    1 imaginary frequencies ignored.
 Zero-point vibrational energy     282816.5 (Joules/Mol)
                                   67.59477 (Kcal/Mol)
 Warning -- explicit consideration of  12 degrees of freedom as
           vibrations may cause significant error
 Vibrational temperatures:     47.75   136.58   173.64   258.81   291.42
          (Kelvin)            433.21   484.61   527.17   620.70   646.12
                              823.15   856.34   904.93  1132.95  1148.92
                             1173.56  1231.30  1261.07  1330.36  1401.72
                             1558.83  1651.41  1711.78  1826.65  1851.11
                             1916.10  2051.90  2124.69  2149.11  2185.44
                             2471.74  3289.99  4474.92  4501.77  4558.92
                             4626.00  5057.89  5137.46

 Zero-point correction=                           0.107719 (Hartree/Particle)
 Thermal correction to Energy=                    0.116749
 Thermal correction to Enthalpy=                  0.117693
 Thermal correction to Gibbs Free Energy=         0.072422
 Sum of electronic and zero-point Energies=           -419.848846
 Sum of electronic and thermal Energies=              -419.839817
 Sum of electronic and thermal Enthalpies=            -419.838873
 Sum of electronic and thermal Free Energies=         -419.884143

                     E (Thermal)             CV                S
                      KCal/Mol        Cal/Mol-Kelvin    Cal/Mol-Kelvin
 Total                   73.261             31.699             95.281
 Electronic               0.000              0.000              1.377
 Translational            0.889              2.981             40.136
 Rotational               0.889              2.981             28.834
 Vibrational             71.484             25.738             24.933
 Vibration     1          0.594              1.983              5.629
 Vibration     2          0.603              1.953              3.556
 Vibration     3          0.609              1.932              3.089
 Vibration     4          0.629              1.867              2.330
 Vibration     5          0.639              1.836              2.110
 Vibration     6          0.693              1.672              1.411
 Vibration     7          0.718              1.602              1.227
 Vibration     8          0.739              1.541              1.095
 Vibration     9          0.792              1.402              0.854
 Vibration    10          0.808              1.363              0.799
 Vibration    11          0.928              1.092              0.500
 Vibration    12          0.953              1.042              0.458

 Optimization completed.
    -- Stationary point found.
 Normal termination of Gaussian 16 at Sat Jun  7 12:09:15 2025.
