 Gaussian 16, Revision A.03,
 Gaussian 16:  ES64L-G16RevA.03 25-Dec-2016

 ----------------------------------------------------------------------
 # irc=(calcfc,maxpoints=10,maxcycle=900,stepsize=5) 6-311++g(d,p) m062
 x
 ----------------------------------------------------------------------

 -------------------
 Title Card Required
 -------------------
 Symbolic Z-matrix:
 Charge =  0 Multiplicity = 2

 SCF Done:  E(UM062X) =  -420.200976461     A.U. after   20 cycles
 SCF Done:  E(UM062X) =  -420.201054234     A.U. after   17 cycles
 SCF Done:  E(UM062X) =  -420.201238408     A.U. after   17 cycles
 SCF Done:  E(UM062X) =  -420.201478326     A.U. after   17 cycles
 SCF Done:  E(UM062X) =  -420.201746966     A.U. after   17 cycles
 SCF Done:  E(UM062X) =  -420.202035845     A.U. after   17 cycles
 SCF Done:  E(UM062X) =  -420.202340581     A.U. after   17 cycles
 SCF Done:  E(UM062X) =  -420.202658274     A.U. after   17 cycles
 SCF Done:  E(UM062X) =  -420.202986091     A.U. after   11 cycles
 SCF Done:  E(UM062X) =  -420.203321628     A.U. after   17 cycles
 SCF Done:  E(UM062X) =  -420.201080809     A.U. after   18 cycles
 SCF Done:  E(UM062X) =  -420.201437511     A.U. after   16 cycles
 SCF Done:  E(UM062X) =  -420.202093231     A.U. after   16 cycles
 SCF Done:  E(UM062X) =  -420.203064123     A.U. after   16 cycles
 SCF Done:  E(UM062X) =  -420.204345032     A.U. after   16 cycles
 SCF Done:  E(UM062X) =  -420.205919211     A.U. after   15 cycles
 SCF Done:  E(UM062X) =  -420.207740179     A.U. after   15 cycles
 SCF Done:  E(UM062X) =  -420.209721455     A.U. after   15 cycles
 SCF Done:  E(UM062X) =  -420.211733943     A.U. after   14 cycles
 SCF Done:  E(UM062X) =  -420.213621220     A.U. after   14 cycles

                          Input orientation:
 ---------------------------------------------------------------------
 Center     Atomic      Atomic             Coordinates (Angstroms)
 Number     Number       Type             X           Y           Z
 ---------------------------------------------------------------------
      1          8           0        2.341391    1.655493   -0.333485
      2          1           0        1.541114    1.789067    0.192446
      3          6           0       -3.317490    0.189220   -0.516259
      4          1           0       -4.333499    0.262002   -0.827503
      5          6           0       -2.175321    0.107077   -0.165340
      6          6           0       -0.791349    0.062206    0.273602
      7          8           0       -0.229633    0.985861    0.798791
      8          8           0       -0.244367   -1.126675    0.027005
      9          6           0        1.121383   -1.315343    0.441899
     10          6           0        2.097336   -0.834369   -0.590810
     11          1           0        1.209986   -2.398595    0.563527
     12          1           0        1.275947   -0.836172    1.410950
     13          1           0        3.121803   -1.133022   -0.379548
     14          1           0        1.795263   -1.027463   -1.617876
     15          1           0        2.252250    0.632905   -0.524297
 ---------------------------------------------------------------------

 Alpha  occ. eigenvalues --  -19.70350 -19.65068 -19.60139 -10.72574 -10.63204
 Alpha  occ. eigenvalues --  -10.58229 -10.58189 -10.57702  -1.27703  -1.18362
 Alpha  occ. eigenvalues --   -1.10598  -0.92401  -0.88688  -0.79911  -0.72264
 Alpha  occ. eigenvalues --   -0.66746  -0.62289  -0.61046  -0.59887  -0.57344
 Alpha  occ. eigenvalues --   -0.54526  -0.51721  -0.50153  -0.47317  -0.46010
 Alpha  occ. eigenvalues --   -0.41417  -0.40867  -0.38399  -0.37554  -0.37388
 Alpha  occ. eigenvalues --   -0.31283
 Alpha virt. eigenvalues --   -0.03066  -0.00767   0.00266   0.01344   0.02223
 Alpha virt. eigenvalues --    0.02718   0.03258   0.05117   0.05430   0.06411
 Alpha virt. eigenvalues --    0.06866   0.07271   0.07603   0.09233   0.09908

  Beta  occ. eigenvalues --  -19.70348 -19.65066 -19.59616 -10.72574 -10.63243
  Beta  occ. eigenvalues --  -10.58190 -10.57701 -10.57523  -1.27692  -1.18346
  Beta  occ. eigenvalues --   -1.08556  -0.91829  -0.87991  -0.78522  -0.71338
  Beta  occ. eigenvalues --   -0.66486  -0.62233  -0.60718  -0.59202  -0.54899
  Beta  occ. eigenvalues --   -0.53724  -0.50639  -0.49229  -0.46014  -0.44327
  Beta  occ. eigenvalues --   -0.41281  -0.40413  -0.38364  -0.37494  -0.36460
  Beta virt. eigenvalues --   -0.07880  -0.03041  -0.00660   0.00301   0.01539
  Beta virt. eigenvalues --    0.02383   0.02888   0.03268   0.05326   0.05531
  Beta virt. eigenvalues --    0.06444   0.07112   0.07366   0.07611   0.09362

 Mulliken charges and spin densities:
               1          2
     1  O   -0.483530   0.225448
     2  H    0.267225   0.008581
     3  C   -0.631876  -0.000103
     4  H    0.182639   0.000048
     5  C    1.212604  -0.001318
     6  C   -0.649327   0.005024
     7  O   -0.269098  -0.001949
     8  O    0.028428  -0.000385
     9  C   -0.433369  -0.052525
    10  C   -0.425634   0.858030
    11  H    0.208272   0.044831
    12  H    0.241416   0.016247
    13  H    0.196131  -0.029460
    14  H    0.217076  -0.020186
    15  H    0.339043  -0.052283
 Sum of Mulliken charges =  -0.00000   1.00000

 Dipole moment (field-independent basis, Debye):
    X=             -2.1687    Y=             -4.0174    Z=             -0.0677  Tot=              4.5659
 Quadrupole moment (field-independent basis, Debye-Ang):
   XX=            -40.9447   YY=            -52.4510   ZZ=            -47.5719
   XY=            -11.0384   XZ=              3.9799   YZ=             -0.3941

  Exact polarizability:   0.000   0.000   0.000   0.000   0.000   0.000
 Approx polarizability: 100.107   0.700  81.378  12.102   5.447  63.417

 Normal termination of Gaussian 16 at Fri Jun 13 16:31:14 2025.
