 Gaussian 16, Revision A.03,
 Gaussian 16:  ES64L-G16RevA.03 25-Dec-2016

 ---------------------------------------------------------
 # m062x/6-311++G(d,p) opt=(tight,calcfc,noeigentest) freq
 ---------------------------------------------------------

 -------------------
 Title Card Required
 -------------------
 Symbolic Z-matrix:
 Charge =  0 Multiplicity = 1

 SCF Done:  E(RM062X) =  -344.469582734     A.U. after   14 cycles
 SCF Done:  E(RM062X) =  -344.469584162     A.U. after   11 cycles
 SCF Done:  E(RM062X) =  -344.469584167     A.U. after    7 cycles
 Optimization completed.
    -- Stationary point found.
 Normal termination of Gaussian 16 at Thu May 22 18:58:59 2025.

 ----------------------------------------------------------------------
 #N Geom=AllCheck Guess=TCheck SCRF=Check GenChk RM062X/6-311++G(d,p) F
 req
 ----------------------------------------------------------------------

 Structure from the checkpoint file:  "ethyl_propiolate.chk"
 -------------------
 Title Card Required
 -------------------
 Charge =  0 Multiplicity = 1

                         Standard orientation:
 ---------------------------------------------------------------------
 Center     Atomic      Atomic             Coordinates (Angstroms)
 Number     Number       Type             X           Y           Z
 ---------------------------------------------------------------------
      1          6           0        1.414941    1.944353   -0.085429
      2          1           0        1.702375    2.969639   -0.112918
      3          6           0        1.099796    0.787822   -0.052642
      4          6           0        0.804325   -0.646250    0.021079
      5          8           0        1.632729   -1.437446    0.359229
      6          8           0       -0.429036   -1.030793   -0.322792
      7          6           0       -1.451008   -0.066163   -0.624699
      8          6           0       -2.094041    0.459997    0.643345
      9          1           0       -1.031543    0.738161   -1.231954
     10          1           0       -2.165899   -0.620139   -1.230796
     11          1           0       -2.485942   -0.366266    1.237811
     12          1           0       -1.373998    1.016436    1.245724
     13          1           0       -2.918614    1.129526    0.390713
 ---------------------------------------------------------------------

 SCF Done:  E(RM062X) =  -344.469584167     A.U. after    1 cycles

 The electronic state is 1-A.
 Alpha  occ. eigenvalues --  -19.68121 -19.62716 -10.70690 -10.61403 -10.57867
 Alpha  occ. eigenvalues --  -10.57483 -10.54624  -1.25136  -1.16571  -0.89441
 Alpha  occ. eigenvalues --   -0.88600  -0.77469  -0.73697  -0.64256  -0.61741
 Alpha  occ. eigenvalues --   -0.58321  -0.56786  -0.53074  -0.49685  -0.47358
 Alpha  occ. eigenvalues --   -0.46178  -0.42497  -0.39761  -0.38705  -0.37353
 Alpha  occ. eigenvalues --   -0.36315
 Alpha virt. eigenvalues --   -0.02120  -0.00755   0.00580   0.01396   0.02030
 Alpha virt. eigenvalues --    0.03289   0.04096   0.04924   0.05822   0.06830
 Alpha virt. eigenvalues --    0.07407   0.07870   0.09206   0.09778   0.10716

 Mulliken charges:
               1
     1  C   -1.277083
     2  H    0.199112
     3  C    1.515613
     4  C   -0.234033
     5  O   -0.251650
     6  O   -0.037520
     7  C   -0.350150
     8  C   -0.401675
     9  H    0.159273
    10  H    0.200063
    11  H    0.187074
    12  H    0.134496
    13  H    0.156482
 Sum of Mulliken charges =  -0.00000

 Dipole moment (field-independent basis, Debye):
    X=             -2.7018    Y=              4.0669    Z=             -0.8652  Tot=              4.9586
 Quadrupole moment (field-independent basis, Debye-Ang):
   XX=            -41.4769   YY=            -40.4406   ZZ=            -41.1814
   XY=              5.9770   XZ=             -0.6082   YZ=              0.4567

  Exact polarizability:  65.661   2.059  72.729   2.625  -2.029  45.452
 Approx polarizability:  70.286   1.889  94.384   4.970  -4.099  53.732

                      1                      2                      3
                      A                      A                      A
 Frequencies --     77.2617               108.4649               175.5254
 Red. masses --      4.2243                 3.4570                 2.6067
 Frc consts  --      0.0149                 0.0240                 0.0473
 IR Inten    --      0.4875                 0.2215                 2.5533

                      4                      5                      6
                      A                      A                      A
 Frequencies --    226.5169               261.0060               357.4933
 Red. masses --      1.2208                 4.8774                 2.7910
 Frc consts  --      0.0369                 0.1958                 0.2102
 IR Inten    --      0.4651                 0.3404                 2.4127

                      7                      8                      9
                      A                      A                      A
 Frequencies --    412.1452               557.0575               631.4655
 Red. masses --      3.7120                 5.1201                 5.6630
 Frc consts  --      0.3715                 0.9361                 1.3304
 IR Inten    --      3.9676                14.3162                 1.7979

                     10                     11                     12
                      A                      A                      A
 Frequencies --    735.7000               758.4538               769.6375
 Red. masses --      1.3145                 5.2756                 7.8120
 Frc consts  --      0.4192                 1.7881                 2.7264
 IR Inten    --     38.2806                 2.8537                11.7336

                     13                     14                     15
                      A                      A                      A
 Frequencies --    775.2954               812.9074               950.4437
 Red. masses --      1.3192                 1.1705                 2.2378
 Frc consts  --      0.4672                 0.4557                 1.1910
 IR Inten    --     49.6542                 4.6899                 8.6798

                     16                     17                     18
                      A                      A                      A
 Frequencies --   1107.6382              1134.7491              1180.4802
 Red. masses --      3.1595                 2.7377                 1.9362
 Frc consts  --      2.2839                 2.0770                 1.5897
 IR Inten    --     40.9186                56.3717                61.5272

                     19                     20                     21
                      A                      A                      A
 Frequencies --   1261.6142              1348.9185              1404.6773
 Red. masses --      2.9853                 1.2544                 1.2691
 Frc consts  --      2.7995                 1.3448                 1.4754
 IR Inten    --    377.5441               114.1949                23.0485

                     22                     23                     24
                      A                      A                      A
 Frequencies --   1432.1580              1492.3429              1502.1700
 Red. masses --      1.3679                 1.0403                 1.0466
 Frc consts  --      1.6530                 1.3651                 1.3914
 IR Inten    --     18.0365                 4.0593                 2.1833

                     25                     26                     27
                      A                      A                      A
 Frequencies --   1526.8957              1864.2449              2250.3518
 Red. masses --      1.0994                12.9808                 5.7328
 Frc consts  --      1.5101                26.5802                17.1049
 IR Inten    --     14.9595               490.2767                50.8563

                     28                     29                     30
                      A                      A                      A
 Frequencies --   3072.2862              3099.6622              3144.3948
 Red. masses --      1.0353                 1.0629                 1.1038
 Frc consts  --      5.7578                 6.0172                 6.4298
 IR Inten    --      7.2820                16.3626                 1.0879

                     31                     32                     33
                      A                      A                      A
 Frequencies --   3151.4875              3166.5900              3487.1005
 Red. masses --      1.1011                 1.1058                 1.1697
 Frc consts  --      6.4432                 6.5331                 8.3802
 IR Inten    --     14.1070                22.1935                62.0904

 - Thermochemistry -
 -------------------
 Temperature   298.150 Kelvin.  Pressure   1.00000 Atm.
 Atom     1 has atomic number  6 and mass  12.00000

 Molecular mass:    98.03678 amu.
 Principal axes and moments of inertia in atomic units:
                           1         2         3
     Eigenvalues --   508.13697 765.570621132.26714
           X            0.99972   0.02003  -0.01247
           Y           -0.01994   0.99977   0.00742
           Z            0.01261  -0.00717   0.99989
 This molecule is an asymmetric top.
 Rotational symmetry number  1.
 Warning -- assumption of classical behavior for rotation
           may cause significant error
 Rotational temperatures (Kelvin)      0.17045     0.11314     0.07650
 Rotational constants (GHZ):           3.55168     2.35738     1.59392
 Zero-point vibrational energy     264596.8 (Joules/Mol)
                                   63.24016 (Kcal/Mol)
 Warning -- explicit consideration of   8 degrees of freedom as
           vibrations may cause significant error
 Vibrational temperatures:    111.16   156.06   252.54   325.91   375.53
          (Kelvin)            514.35   592.99   801.48   908.54  1058.51
                             1091.25  1107.34  1115.48  1169.59  1367.48
                             1593.64  1632.65  1698.45  1815.18  1940.79
                             2021.02  2060.56  2147.15  2161.29  2196.86
                             2682.23  3237.75  4420.33  4459.72  4524.08
                             4534.29  4556.02  5017.16

 Zero-point correction=                           0.100780 (Hartree/Particle)
 Thermal correction to Energy=                    0.108280
 Thermal correction to Enthalpy=                  0.109224
 Thermal correction to Gibbs Free Energy=         0.068848
 Sum of electronic and zero-point Energies=           -344.368805
 Sum of electronic and thermal Energies=              -344.361304
 Sum of electronic and thermal Enthalpies=            -344.360360
 Sum of electronic and thermal Free Energies=         -344.400736

                     E (Thermal)             CV                S
                      KCal/Mol        Cal/Mol-Kelvin    Cal/Mol-Kelvin
 Total                   67.947             25.803             84.978
 Electronic               0.000              0.000              0.000
 Translational            0.889              2.981             39.659
 Rotational               0.889              2.981             27.579
 Vibrational             66.169             19.841             17.740
 Vibration     1          0.599              1.964              3.959
 Vibration     2          0.606              1.942              3.296
 Vibration     3          0.627              1.873              2.375
 Vibration     4          0.650              1.801              1.906
 Vibration     5          0.669              1.744              1.655
 Vibration     6          0.733              1.560              1.133
 Vibration     7          0.776              1.444              0.919
 Vibration     8          0.913              1.124              0.530

 Optimization completed.
    -- Stationary point found.
 Normal termination of Gaussian 16 at Thu May 22 18:59:55 2025.
