 Gaussian 16, Revision A.03,
 Gaussian 16:  ES64L-G16RevA.03 25-Dec-2016

 --------------------------------------------
 # ccsd(t)/6-311++g(d,p) sp geom=connectivity
 --------------------------------------------

 -------------------
 Title Card Required
 -------------------
 Symbolic Z-matrix:
 Charge =  0 Multiplicity = 1

                         Standard orientation:
 ---------------------------------------------------------------------
 Center     Atomic      Atomic             Coordinates (Angstroms)
 Number     Number       Type             X           Y           Z
 ---------------------------------------------------------------------
      1          6           0        2.070211    1.626079   -0.000003
      2          1           0        2.619088    2.538925    0.000005
      3          6           0        1.461888    0.592785    0.000003
      4          6           0        0.784047   -0.705531    0.000000
      5          8           0        1.389632   -1.734915    0.000000
      6          8           0       -0.553136   -0.679938   -0.000002
      7          6           0       -1.258220    0.573705   -0.000001
      8          6           0       -2.733554    0.245078    0.000001
      9          1           0       -0.975307    1.144991   -0.887254
     10          1           0       -0.975305    1.144993    0.887249
     11          1           0       -3.317402    1.167018   -0.000003
     12          1           0       -2.994636   -0.334906   -0.885594
     13          1           0       -2.994635   -0.334898    0.885602
 ---------------------------------------------------------------------

 SCF Done:  E(RHF) =  -342.578472852     A.U. after   17 cycles
 E2 =    -0.1091566471D+01 EUMP2 =    -0.34367003932318D+03
 CCSD(T)= -0.34375253407D+03

 The electronic state is 1-A.
 Alpha  occ. eigenvalues --  -20.61358 -20.55778 -11.41696 -11.30833 -11.27640
 Alpha  occ. eigenvalues --  -11.26895 -11.23486  -1.47829  -1.38403  -1.07767
 Alpha  occ. eigenvalues --   -1.05493  -0.90383  -0.88072  -0.76820  -0.73548
 Alpha  occ. eigenvalues --   -0.69888  -0.67984  -0.60656  -0.58990  -0.56638
 Alpha  occ. eigenvalues --   -0.53110  -0.52605  -0.48139  -0.47072  -0.43243
 Alpha  occ. eigenvalues --   -0.43119
 Alpha virt. eigenvalues --    0.03074   0.04239   0.06024   0.06341   0.07393
 Alpha virt. eigenvalues --    0.07750   0.09515   0.09673   0.11639   0.12500
 Alpha virt. eigenvalues --    0.12569   0.13558   0.15426   0.15583   0.16301

 Mulliken charges:
               1
     1  C   -2.056721
     2  H    0.207408
     3  C    2.135611
     4  C    0.160342
     5  O   -0.339211
     6  O   -0.175022
     7  C   -0.091411
     8  C   -0.602129
     9  H    0.150677
    10  H    0.150677
    11  H    0.141146
    12  H    0.159316
    13  H    0.159316
 Sum of Mulliken charges =  -0.00000

 Dipole moment (field-independent basis, Debye):
    X=             -1.6563    Y=              5.0696    Z=              0.0000  Tot=              5.3333
 Quadrupole moment (field-independent basis, Debye-Ang):
   XX=            -39.0581   YY=            -43.0429   ZZ=            -41.0449
   XY=              6.9505   XZ=              0.0000   YZ=              0.0000

 1\1\GINC-AJ\SP\RCCSD(T)-FC\6-311++G(d,p)\C5H6O2\AAYUSH\23-May-2025\0\\
 # ccsd(t)/6-311++g(d,p) sp geom=connectivity\\Title Card Required\\0,1
 \C,0,-2.070211,-1.626079,-0.000003\H,0,-2.619088,-2.538925,0.000005\C,
 0,-1.461888,-0.592785,0.000003\C,0,-0.784047,0.705531,0.\O,0,-1.389632
 ,1.734915,0.\O,0,0.553136,0.679938,-0.000002\C,0,1.25822,-0.573705,-0.
 000001\C,0,2.733554,-0.245078,0.000001\H,0,0.975307,-1.144991,-0.88725
 4\H,0,0.975305,-1.144993,0.887249\H,0,3.317402,-1.167018,-0.000003\H,0
 ,2.994636,0.334906,-0.885594\H,0,2.994635,0.334898,0.885602\\Version=E

 43.7048307\CCSD(T)=-343.7525341\RMSD=5.526e-09\PG=C01 [X(C5H6O2)]\\@
 Normal termination of Gaussian 16 at Fri May 23 08:56:17 2025.
