 Gaussian 16, Revision A.03,
 Gaussian 16:  ES64L-G16RevA.03 25-Dec-2016

 ---------------------------------------------------------
 # opt=(calcfc,tight,noeigentest) freq 6-311++g(d,p) m062x
 ---------------------------------------------------------

 -------------------
 Title Card Required
 -------------------
 Symbolic Z-matrix:
 Charge =  0 Multiplicity = 1

 SCF Done:  E(RM062X) =  -344.401094011     A.U. after   15 cycles
 SCF Done:  E(RM062X) =  -344.417442641     A.U. after   16 cycles
 SCF Done:  E(RM062X) =  -344.440204656     A.U. after   15 cycles
 SCF Done:  E(RM062X) =  -344.467167873     A.U. after   15 cycles
 SCF Done:  E(RM062X) =  -344.471450151     A.U. after   15 cycles
 SCF Done:  E(RM062X) =  -344.463331521     A.U. after   16 cycles
 SCF Done:  E(RM062X) =  -344.466367419     A.U. after   15 cycles
 SCF Done:  E(RM062X) =  -344.473610858     A.U. after   12 cycles
 SCF Done:  E(RM062X) =  -344.475802370     A.U. after   13 cycles
 SCF Done:  E(RM062X) =  -344.469116093     A.U. after   13 cycles
 SCF Done:  E(RM062X) =  -344.477553050     A.U. after   11 cycles
 SCF Done:  E(RM062X) =  -344.477557236     A.U. after   10 cycles
 SCF Done:  E(RM062X) =  -344.477559230     A.U. after    9 cycles
 SCF Done:  E(RM062X) =  -344.477559424     A.U. after    9 cycles
 SCF Done:  E(RM062X) =  -344.477559442     A.U. after    7 cycles
 SCF Done:  E(RM062X) =  -344.477559449     A.U. after    6 cycles
 SCF Done:  E(RM062X) =  -344.477559449     A.U. after    5 cycles
 SCF Done:  E(RM062X) =  -344.477559469     A.U. after    6 cycles
 SCF Done:  E(RM062X) =  -344.477559449     A.U. after    6 cycles
 Optimization completed.
    -- Stationary point found.
 Normal termination of Gaussian 16 at Fri May 23 11:11:45 2025.

 ----------------------------------------------------------------------
 #N Geom=AllCheck Guess=TCheck SCRF=Check GenChk RM062X/6-311++G(d,p) F
 req
 ----------------------------------------------------------------------

 Structure from the checkpoint file:  "ethyl_propiolate_non_planar.chk"
 -------------------
 Title Card Required
 -------------------
 Charge =  0 Multiplicity = 1

                         Standard orientation:
 ---------------------------------------------------------------------
 Center     Atomic      Atomic             Coordinates (Angstroms)
 Number     Number       Type             X           Y           Z
 ---------------------------------------------------------------------
      1          6           0        3.028681   -0.450019   -0.287410
      2          1           0        4.039027   -0.738052   -0.460582
      3          6           0        1.891843   -0.126550   -0.092010
      4          6           0        0.525270    0.322660    0.138343
      5          8           0        0.196644    1.476473    0.149827
      6          8           0       -0.291307   -0.712433    0.336638
      7          6           0       -1.678905   -0.391428    0.562671
      8          6           0       -2.390699   -0.099642   -0.743803
      9          1           0       -1.734600    0.456468    1.246319
     10          1           0       -2.078940   -1.278802    1.049872
     11          1           0       -3.452620    0.066098   -0.552247
     12          1           0       -1.982220    0.795183   -1.213632
     13          1           0       -2.290474   -0.943348   -1.428198
 ---------------------------------------------------------------------

 SCF Done:  E(RM062X) =  -344.477559449     A.U. after    1 cycles

 The electronic state is 1-A.
 Alpha  occ. eigenvalues --  -19.68339 -19.63177 -10.70617 -10.60651 -10.56907
 Alpha  occ. eigenvalues --  -10.56523 -10.53868  -1.25688  -1.16378  -0.90325
 Alpha  occ. eigenvalues --   -0.86856  -0.78030  -0.70477  -0.64465  -0.61037
 Alpha  occ. eigenvalues --   -0.58471  -0.56441  -0.53618  -0.49414  -0.46773
 Alpha  occ. eigenvalues --   -0.45439  -0.42135  -0.39393  -0.38580  -0.37098
 Alpha  occ. eigenvalues --   -0.36122
 Alpha virt. eigenvalues --   -0.01485  -0.00058   0.00768   0.01829   0.02566
 Alpha virt. eigenvalues --    0.03483   0.04197   0.05480   0.06233   0.06921
 Alpha virt. eigenvalues --    0.07271   0.07958   0.08497   0.10168   0.11286

 Mulliken charges:
               1
     1  C   -0.562717
     2  H    0.181426
     3  C    1.073516
     4  C   -0.692793
     5  O   -0.218606
     6  O    0.005449
     7  C   -0.285805
     8  C   -0.403935
     9  H    0.196706
    10  H    0.194132
    11  H    0.162850
    12  H    0.183642
    13  H    0.166136
 Sum of Mulliken charges =  -0.00000

 Dipole moment (field-independent basis, Debye):
    X=             -0.4670    Y=             -1.7790    Z=             -0.0665  Tot=              1.8405
 Quadrupole moment (field-independent basis, Debye-Ang):
   XX=            -28.2161   YY=            -46.7992   ZZ=            -40.8319
   XY=             -1.7435   XZ=             -2.0237   YZ=              0.0964

  Exact polarizability:  85.947  -5.511  54.076  -4.145   0.595  44.864
 Approx polarizability:  91.835 -10.061  70.580  -6.827   1.213  51.816

                      1                      2                      3
                      A                      A                      A
 Frequencies --     80.3678               116.4036               161.8764
 Red. masses --      3.6384                 3.6052                 2.6938
 Frc consts  --      0.0138                 0.0288                 0.0416
 IR Inten    --      3.7393                 0.7001                 5.6257

                      4                      5                      6
                      A                      A                      A
 Frequencies --    228.4192               272.0377               340.1237
 Red. masses --      1.2923                 4.3402                 2.9547
 Frc consts  --      0.0397                 0.1892                 0.2014
 IR Inten    --      1.4718                 1.1978                10.4496

                      7                      8                      9
                      A                      A                      A
 Frequencies --    423.1428               564.5608               609.4055
 Red. masses --      3.9232                 4.1970                 7.2163
 Frc consts  --      0.4139                 0.7881                 1.5790
 IR Inten    --      1.9732                 3.3253                 7.4446

                     10                     11                     12
                      A                      A                      A
 Frequencies --    734.2548               769.9896               787.5035
 Red. masses --      1.3264                 1.3588                 5.4210
 Frc consts  --      0.4213                 0.4746                 1.9808
 IR Inten    --     40.5652                26.9539                36.4660

                     13                     14                     15
                      A                      A                      A
 Frequencies --    801.0266               895.8159               929.4153
 Red. masses --      1.2788                 3.1543                 2.8096
 Frc consts  --      0.4834                 1.4914                 1.4299
 IR Inten    --      6.3419                13.9701                 5.3714

                     16                     17                     18
                      A                      A                      A
 Frequencies --   1078.0026              1128.3624              1203.5127
 Red. masses --      4.1585                 2.0873                 1.7765
 Frc consts  --      2.8472                 1.5658                 1.5161
 IR Inten    --     20.2227                21.3927                 4.7186

                     19                     20                     21
                      A                      A                      A
 Frequencies --   1288.5690              1348.0719              1401.9707
 Red. masses --      4.2014                 1.2107                 1.2750
 Frc consts  --      4.1101                 1.2963                 1.4765
 IR Inten    --    617.2851                85.4506                28.0225

                     22                     23                     24
                      A                      A                      A
 Frequencies --   1431.4146              1492.2522              1502.7540
 Red. masses --      1.3788                 1.0411                 1.0651
 Frc consts  --      1.6646                 1.3660                 1.4171
 IR Inten    --      9.9556                10.5695                 2.9331

                     25                     26                     27
                      A                      A                      A
 Frequencies --   1514.7489              1839.1955              2267.4411
 Red. masses --      1.0807                12.0364                 5.7532
 Frc consts  --      1.4610                23.9884                17.4275
 IR Inten    --     17.7093               337.0688                68.3599

                     28                     29                     30
                      A                      A                      A
 Frequencies --   3075.4690              3106.5363              3150.1786
 Red. masses --      1.0354                 1.0607                 1.1016
 Frc consts  --      5.7701                 6.0313                 6.4411
 IR Inten    --     10.4336                18.3295                14.4009

                     31                     32                     33
                      A                      A                      A
 Frequencies --   3154.5718              3174.7268              3490.9412
 Red. masses --      1.1048                 1.1071                 1.1706
 Frc consts  --      6.4774                 6.5741                 8.4052
 IR Inten    --      2.6205                15.1376                61.2371

 - Thermochemistry -
 -------------------
 Temperature   298.150 Kelvin.  Pressure   1.00000 Atm.
 Atom     1 has atomic number  6 and mass  12.00000

 Molecular mass:    98.03678 amu.
 Principal axes and moments of inertia in atomic units:
                           1         2         3
     Eigenvalues --   262.035111163.806921278.40195
           X            0.99998  -0.00247   0.00517
           Y            0.00248   0.99999  -0.00213
           Z           -0.00516   0.00214   0.99998
 This molecule is an asymmetric top.
 Rotational symmetry number  1.
 Rotational temperatures (Kelvin)      0.33054     0.07442     0.06775
 Rotational constants (GHZ):           6.88740     1.55072     1.41172
 Zero-point vibrational energy     265350.0 (Joules/Mol)
                                   63.42018 (Kcal/Mol)
 Warning -- explicit consideration of   9 degrees of freedom as
           vibrations may cause significant error
 Vibrational temperatures:    115.63   167.48   232.90   328.64   391.40
          (Kelvin)            489.36   608.81   812.28   876.80  1056.43
                             1107.84  1133.04  1152.50  1288.88  1337.22
                             1551.01  1623.46  1731.59  1853.96  1939.57
                             2017.12  2059.49  2147.02  2162.13  2179.39
                             2646.19  3262.34  4424.91  4469.61  4532.40
                             4538.73  4567.72  5022.69

 Zero-point correction=                           0.101066 (Hartree/Particle)
 Thermal correction to Energy=                    0.108535
 Thermal correction to Enthalpy=                  0.109479
 Thermal correction to Gibbs Free Energy=         0.069245
 Sum of electronic and zero-point Energies=           -344.376493
 Sum of electronic and thermal Energies=              -344.369025
 Sum of electronic and thermal Enthalpies=            -344.368080
 Sum of electronic and thermal Free Energies=         -344.408315

                     E (Thermal)             CV                S
                      KCal/Mol        Cal/Mol-Kelvin    Cal/Mol-Kelvin
 Total                   68.107             25.648             84.680
 Electronic               0.000              0.000              0.000
 Translational            0.889              2.981             39.659
 Rotational               0.889              2.981             27.458
 Vibrational             66.329             19.687             17.563
 Vibration     1          0.600              1.962              3.882
 Vibration     2          0.608              1.936              3.159
 Vibration     3          0.622              1.889              2.528
 Vibration     4          0.651              1.798              1.891
 Vibration     5          0.675              1.725              1.583
 Vibration     6          0.720              1.595              1.212
 Vibration     7          0.785              1.420              0.881
 Vibration     8          0.920              1.108              0.515
 Vibration     9          0.968              1.012              0.434

 Optimization completed.
    -- Stationary point found.
 Normal termination of Gaussian 16 at Fri May 23 11:12:36 2025.
