 Gaussian 16, Revision A.03,
 Gaussian 16:  ES64L-G16RevA.03 25-Dec-2016

 --------------------------
 # ccsd(t)/6-311++G(d,p) sp
 --------------------------

 -------------------
 Title Card Required
 -------------------
 Symbolic Z-matrix:
 Charge =  0 Multiplicity = 1

                         Standard orientation:
 ---------------------------------------------------------------------
 Center     Atomic      Atomic             Coordinates (Angstroms)
 Number     Number       Type             X           Y           Z
 ---------------------------------------------------------------------
      1          6           0        1.414941    1.944353   -0.085429
      2          1           0        1.702375    2.969639   -0.112918
      3          6           0        1.099796    0.787822   -0.052642
      4          6           0        0.804325   -0.646250    0.021079
      5          8           0        1.632729   -1.437446    0.359229
      6          8           0       -0.429036   -1.030793   -0.322792
      7          6           0       -1.451008   -0.066163   -0.624699
      8          6           0       -2.094041    0.459997    0.643345
      9          1           0       -1.031543    0.738161   -1.231954
     10          1           0       -2.165899   -0.620139   -1.230796
     11          1           0       -2.485942   -0.366266    1.237811
     12          1           0       -1.373998    1.016436    1.245724
     13          1           0       -2.918614    1.129526    0.390713
 ---------------------------------------------------------------------

 SCF Done:  E(RHF) =  -342.576594487     A.U. after   17 cycles
 E2 =    -0.1093183660D+01 EUMP2 =    -0.34366977814728D+03
 CCSD(T)= -0.34375203290D+03

 The electronic state is 1-A.
 Alpha  occ. eigenvalues --  -20.61331 -20.55757 -11.41746 -11.30802 -11.27647
 Alpha  occ. eigenvalues --  -11.26956 -11.23669  -1.47831  -1.38386  -1.07751
 Alpha  occ. eigenvalues --   -1.05345  -0.91935  -0.87679  -0.75902  -0.73403
 Alpha  occ. eigenvalues --   -0.69671  -0.66957  -0.63533  -0.58690  -0.55915
 Alpha  occ. eigenvalues --   -0.55172  -0.51367  -0.48269  -0.46679  -0.43334
 Alpha  occ. eigenvalues --   -0.43139
 Alpha virt. eigenvalues --    0.03117   0.04336   0.05401   0.06593   0.07573
 Alpha virt. eigenvalues --    0.07972   0.09269   0.10100   0.11554   0.12383
 Alpha virt. eigenvalues --    0.13405   0.14149   0.15050   0.15834   0.16151

 Mulliken charges:
               1
     1  C   -1.683138
     2  H    0.225253
     3  C    1.892977
     4  C   -0.068774
     5  O   -0.336589
     6  O   -0.143339
     7  C   -0.209040
     8  C   -0.407708
     9  H    0.135292
    10  H    0.176780
    11  H    0.169441
    12  H    0.122123
    13  H    0.126722
 Sum of Mulliken charges =  -0.00000

 Dipole moment (field-independent basis, Debye):
    X=             -2.8497    Y=              4.4896    Z=             -0.9640  Tot=              5.4044
 Quadrupole moment (field-independent basis, Debye-Ang):
   XX=            -42.0999   YY=            -40.7017   ZZ=            -41.3102
   XY=              6.6142   XZ=             -0.6889   YZ=              0.4834

 1\1\GINC-AJ\SP\RCCSD(T)-FC\6-311++G(d,p)\C5H6O2\AAYUSH\22-May-2025\0\\
 # ccsd(t)/6-311++G(d,p) sp\\Title Card Required\\0,1\C,0,1.414941,1.94
 4353,-0.085429\H,0,1.702375,2.969639,-0.112918\C,0,1.099796,0.787822,-
 0.052642\C,0,0.804325,-0.64625,0.021079\O,0,1.632729,-1.437446,0.35922
 9\O,0,-0.429036,-1.030793,-0.322792\C,0,-1.451008,-0.066163,-0.624699\
 C,0,-2.094041,0.459997,0.643345\H,0,-1.031543,0.738161,-1.231954\H,0,-
 2.165899,-0.620139,-1.230796\H,0,-2.485942,-0.366266,1.237811\H,0,-1.3
 73998,1.016436,1.245724\H,0,-2.918614,1.129526,0.390713\\Version=ES64L

 040766\CCSD(T)=-343.7520329\RMSD=8.214e-09\PG=C01 [X(C5H6O2)]\\@
 Normal termination of Gaussian 16 at Thu May 22 19:28:40 2025.
