 Gaussian 16, Revision A.03,
 Gaussian 16:  ES64L-G16RevA.03 25-Dec-2016

 --------------------------------------------------
 # m062x/6-31+G opt=(tight,calcfc,noeigentest) freq
 --------------------------------------------------

 -------------------
 Title Card Required
 -------------------
 Symbolic Z-matrix:
 Charge =  0 Multiplicity = 1

 SCF Done:  E(RM062X) =  -344.266393302     A.U. after   14 cycles
 SCF Done:  E(RM062X) =  -344.269185436     A.U. after   14 cycles
 SCF Done:  E(RM062X) =  -344.269207710     A.U. after   12 cycles
 SCF Done:  E(RM062X) =  -344.269208126     A.U. after   11 cycles
 SCF Done:  E(RM062X) =  -344.269208135     A.U. after    8 cycles
 SCF Done:  E(RM062X) =  -344.269208134     A.U. after    6 cycles
 Optimization completed.
    -- Stationary point found.
 Normal termination of Gaussian 16 at Thu May 22 20:32:53 2025.

 ------------------------------------------------------------------
 #N Geom=AllCheck Guess=TCheck SCRF=Check GenChk RM062X/6-31+G Freq
 ------------------------------------------------------------------

 Structure from the checkpoint file:  "ethyl_propiolate.chk"
 -------------------
 Title Card Required
 -------------------
 Charge =  0 Multiplicity = 1

                         Standard orientation:
 ---------------------------------------------------------------------
 Center     Atomic      Atomic             Coordinates (Angstroms)
 Number     Number       Type             X           Y           Z
 ---------------------------------------------------------------------
      1          6           0        1.423431    1.967319   -0.077876
      2          1           0        1.702559    2.996550   -0.102908
      3          6           0        1.123986    0.795923   -0.044347
      4          6           0        0.834529   -0.627555    0.019653
      5          8           0        1.671193   -1.456667    0.348716
      6          8           0       -0.424223   -1.024278   -0.318020
      7          6           0       -1.485619   -0.061872   -0.631496
      8          6           0       -2.144767    0.434952    0.642381
      9          1           0       -1.069993    0.755712   -1.227371
     10          1           0       -2.174030   -0.638905   -1.247589
     11          1           0       -2.512565   -0.409492    1.229661
     12          1           0       -1.440711    1.006128    1.254101
     13          1           0       -2.990361    1.084961    0.398642
 ---------------------------------------------------------------------

 SCF Done:  E(RM062X) =  -344.269208134     A.U. after    1 cycles

 The electronic state is 1-A.
 Alpha  occ. eigenvalues --  -19.70246 -19.65852 -10.73153 -10.62742 -10.60278
 Alpha  occ. eigenvalues --  -10.59938 -10.55693  -1.25239  -1.17028  -0.90535
 Alpha  occ. eigenvalues --   -0.88960  -0.77827  -0.74255  -0.64316  -0.62256
 Alpha  occ. eigenvalues --   -0.57917  -0.56245  -0.52856  -0.49735  -0.47510
 Alpha  occ. eigenvalues --   -0.45916  -0.42390  -0.39722  -0.38857  -0.37073
 Alpha  occ. eigenvalues --   -0.36578
 Alpha virt. eigenvalues --   -0.03045   0.01005   0.02185   0.02474   0.02987
 Alpha virt. eigenvalues --    0.04421   0.05608   0.06485   0.07094   0.07807
 Alpha virt. eigenvalues --    0.08612   0.09257   0.10134   0.10917   0.11608

 Mulliken charges:
               1
     1  C    0.329769
     2  H    0.347735
     3  C   -0.213877
     4  C   -0.148993
     5  O   -0.331541
     6  O   -0.262026
     7  C   -0.291934
     8  C   -0.535510
     9  H    0.218570
    10  H    0.233040
    11  H    0.231703
    12  H    0.214457
    13  H    0.208608
 Sum of Mulliken charges =  -0.00000

 Dipole moment (field-independent basis, Debye):
    X=             -2.8087    Y=              4.7698    Z=             -0.9087  Tot=              5.6094
 Quadrupole moment (field-independent basis, Debye-Ang):
   XX=            -41.7957   YY=            -41.6398   ZZ=            -41.4501
   XY=              6.4277   XZ=             -0.6221   YZ=              0.4335

  Exact polarizability:  64.193   1.276  72.151   3.588  -2.600  42.029
 Approx polarizability:  66.585   0.529  93.908   6.431  -5.128  45.194

                      1                      2                      3
                      A                      A                      A
 Frequencies --     75.6398                95.5176               172.8090
 Red. masses --      3.2810                 4.2962                 2.4324
 Frc consts  --      0.0111                 0.0231                 0.0428
 IR Inten    --      0.6495                 0.2894                 2.2403

                      4                      5                      6
                      A                      A                      A
 Frequencies --    221.4010               299.1180               343.3396
 Red. masses --      1.2489                 4.4292                 2.8138
 Frc consts  --      0.0361                 0.2335                 0.1954
 IR Inten    --      0.5092                 0.2711                 3.1784

                      7                      8                      9
                      A                      A                      A
 Frequencies --    404.4968               552.3179               643.0184
 Red. masses --      3.8352                 4.9644                 4.5588
 Frc consts  --      0.3697                 0.8923                 1.1106
 IR Inten    --      6.2510                17.7621                 4.5918

                     10                     11                     12
                      A                      A                      A
 Frequencies --    751.1957               784.7094               792.5387
 Red. masses --      4.8199                 2.8272                 1.4872
 Frc consts  --      1.6025                 1.0257                 0.5504
 IR Inten    --      4.7260                75.6047                52.0961

                     13                     14                     15
                      A                      A                      A
 Frequencies --    834.4202               846.2668               960.3005
 Red. masses --      1.1428                 2.0805                 2.6278
 Frc consts  --      0.4688                 0.8779                 1.4278
 IR Inten    --      3.9934                10.6143                11.1057

                     16                     17                     18
                      A                      A                      A
 Frequencies --   1093.2825              1143.8013              1185.9354
 Red. masses --      5.0175                 1.9978                 2.0311
 Frc consts  --      3.5335                 1.5400                 1.6831
 IR Inten    --     58.5870                17.7845               119.3210

                     19                     20                     21
                      A                      A                      A
 Frequencies --   1253.2931              1337.6859              1425.9732
 Red. masses --      3.2419                 1.1830                 1.2940
 Frc consts  --      3.0003                 1.2472                 1.5503
 IR Inten    --    367.1417                65.1778                 7.4562

                     22                     23                     24
                      A                      A                      A
 Frequencies --   1459.5161              1528.5371              1538.0464
 Red. masses --      1.2341                 1.0416                 1.0481
 Frc consts  --      1.5489                 1.4339                 1.4608
 IR Inten    --     21.9317                 9.5019                 2.0703

                     25                     26                     27
                      A                      A                      A
 Frequencies --   1548.0080              1763.5328              2263.0680
 Red. masses --      1.0895                12.7565                 5.7784
 Frc consts  --      1.5383                23.3748                17.4364
 IR Inten    --     13.4169               414.6649                57.0303

                     28                     29                     30
                      A                      A                      A
 Frequencies --   3086.6384              3115.4017              3162.2352
 Red. masses --      1.0354                 1.0638                 1.1008
 Frc consts  --      5.8119                 6.0835                 6.4854
 IR Inten    --     10.7411                18.0467                10.6628

                     31                     32                     33
                      A                      A                      A
 Frequencies --   3174.1362              3194.9708              3511.4721
 Red. masses --      1.0989                 1.1039                 1.1692
 Frc consts  --      6.5232                 6.6389                 8.4938
 IR Inten    --     10.0436                22.1804                59.2757

 - Thermochemistry -
 -------------------
 Temperature   298.150 Kelvin.  Pressure   1.00000 Atm.
 Atom     1 has atomic number  6 and mass  12.00000

 Molecular mass:    98.03678 amu.
 Principal axes and moments of inertia in atomic units:
                           1         2         3
     Eigenvalues --   513.15425 794.361381166.57286
           X            0.99972   0.02032  -0.01220
           Y           -0.02024   0.99977   0.00710
           Z            0.01234  -0.00685   0.99990
 This molecule is an asymmetric top.
 Rotational symmetry number  1.
 Warning -- assumption of classical behavior for rotation
           may cause significant error
 Rotational temperatures (Kelvin)      0.16879     0.10904     0.07425
 Rotational constants (GHZ):           3.51696     2.27194     1.54705
 Zero-point vibrational energy     266543.7 (Joules/Mol)
                                   63.70547 (Kcal/Mol)
 Warning -- explicit consideration of   8 degrees of freedom as
           vibrations may cause significant error
 Vibrational temperatures:    108.83   137.43   248.63   318.55   430.36
          (Kelvin)            493.99   581.98   794.66   925.16  1080.80
                             1129.02  1140.29  1200.54  1217.59  1381.66
                             1572.99  1645.67  1706.30  1803.21  1924.63
                             2051.66  2099.92  2199.22  2212.91  2227.24
                             2537.33  3256.05  4440.98  4482.37  4549.75
                             4566.87  4596.85  5052.23

 Zero-point correction=                           0.101521 (Hartree/Particle)
 Thermal correction to Energy=                    0.108982
 Thermal correction to Enthalpy=                  0.109926
 Thermal correction to Gibbs Free Energy=         0.069481
 Sum of electronic and zero-point Energies=           -344.167687
 Sum of electronic and thermal Energies=              -344.160226
 Sum of electronic and thermal Enthalpies=            -344.159282
 Sum of electronic and thermal Free Energies=         -344.199727

                     E (Thermal)             CV                S
                      KCal/Mol        Cal/Mol-Kelvin    Cal/Mol-Kelvin
 Total                   68.387             25.496             85.125
 Electronic               0.000              0.000              0.000
 Translational            0.889              2.981             39.659
 Rotational               0.889              2.981             27.655
 Vibrational             66.610             19.534             17.811
 Vibration     1          0.599              1.965              4.001
 Vibration     2          0.603              1.952              3.544
 Vibration     3          0.626              1.876              2.405
 Vibration     4          0.648              1.808              1.948
 Vibration     5          0.692              1.675              1.422
 Vibration     6          0.722              1.589              1.197
 Vibration     7          0.770              1.460              0.946
 Vibration     8          0.908              1.135              0.539

 Optimization completed.
    -- Stationary point found.
 Normal termination of Gaussian 16 at Thu May 22 20:33:08 2025.
