 Gaussian 16, Revision A.03,
 Gaussian 16:  ES64L-G16RevA.03 25-Dec-2016

 ---------------------------------------------------------
 # opt=(calcfc,tight,noeigentest) freq 6-311++g(d,p) m062x
 ---------------------------------------------------------

 -------------------
 Title Card Required
 -------------------
 Symbolic Z-matrix:
 Charge =  0 Multiplicity = 1

 SCF Done:  E(RM062X) =  -344.477559450     A.U. after   14 cycles
 Optimization completed.
    -- Stationary point found.
 Normal termination of Gaussian 16 at Fri May 23 16:05:31 2025.

 ----------------------------------------------------------------------
 #N Geom=AllCheck Guess=TCheck SCRF=Check GenChk RM062X/6-311++G(d,p) F
 req
 ----------------------------------------------------------------------

 Structure from the checkpoint file:  "ethyl_propiolate_non_planar.chk"
 -------------------
 Title Card Required
 -------------------
 Charge =  0 Multiplicity = 1

                         Standard orientation:
 ---------------------------------------------------------------------
 Center     Atomic      Atomic             Coordinates (Angstroms)
 Number     Number       Type             X           Y           Z
 ---------------------------------------------------------------------
      1          6           0        3.028682   -0.450012    0.287411
      2          1           0        4.039031   -0.738035    0.460584
      3          6           0        1.891843   -0.126548    0.092012
      4          6           0        0.525268    0.322655   -0.138344
      5          8           0        0.196638    1.476469   -0.149836
      6          8           0       -0.291307   -0.712440   -0.336635
      7          6           0       -1.678905   -0.391432   -0.562669
      8          6           0       -2.390695   -0.099634    0.743804
      9          1           0       -2.078941   -1.278809   -1.049863
     10          1           0       -1.734595    0.456458   -1.246325
     11          1           0       -3.452616    0.066113    0.552249
     12          1           0       -2.290475   -0.943337    1.428203
     13          1           0       -1.982209    0.795191    1.213628
 ---------------------------------------------------------------------

 SCF Done:  E(RM062X) =  -344.477559450     A.U. after    1 cycles

 The electronic state is 1-A.
 Alpha  occ. eigenvalues --  -19.68339 -19.63177 -10.70617 -10.60651 -10.56907
 Alpha  occ. eigenvalues --  -10.56523 -10.53868  -1.25688  -1.16378  -0.90325
 Alpha  occ. eigenvalues --   -0.86856  -0.78030  -0.70477  -0.64465  -0.61037
 Alpha  occ. eigenvalues --   -0.58471  -0.56441  -0.53618  -0.49414  -0.46773
 Alpha  occ. eigenvalues --   -0.45439  -0.42135  -0.39393  -0.38580  -0.37098
 Alpha  occ. eigenvalues --   -0.36122
 Alpha virt. eigenvalues --   -0.01485  -0.00058   0.00768   0.01829   0.02566
 Alpha virt. eigenvalues --    0.03483   0.04197   0.05480   0.06233   0.06921
 Alpha virt. eigenvalues --    0.07271   0.07958   0.08497   0.10168   0.11286

 Mulliken charges:
               1
     1  C   -0.562721
     2  H    0.181426
     3  C    1.073525
     4  C   -0.692802
     5  O   -0.218606
     6  O    0.005449
     7  C   -0.285801
     8  C   -0.403936
     9  H    0.194132
    10  H    0.196706
    11  H    0.162850
    12  H    0.166136
    13  H    0.183642
 Sum of Mulliken charges =  -0.00000

 Dipole moment (field-independent basis, Debye):
    X=             -0.4670    Y=             -1.7790    Z=              0.0665  Tot=              1.8405
 Quadrupole moment (field-independent basis, Debye-Ang):
   XX=            -28.2160   YY=            -46.7992   ZZ=            -40.8319
   XY=             -1.7435   XZ=              2.0237   YZ=             -0.0963

  Exact polarizability:  85.947  -5.511  54.076   4.145  -0.595  44.864
 Approx polarizability:  91.835 -10.061  70.580   6.827  -1.213  51.816

                      1                      2                      3
                      A                      A                      A
 Frequencies --     80.3681               116.4086               161.8753
 Red. masses --      3.6385                 3.6052                 2.6938
 Frc consts  --      0.0138                 0.0288                 0.0416
 IR Inten    --      3.7394                 0.7002                 5.6256

                      4                      5                      6
                      A                      A                      A
 Frequencies --    228.4213               272.0371               340.1267
 Red. masses --      1.2923                 4.3402                 2.9547
 Frc consts  --      0.0397                 0.1892                 0.2014
 IR Inten    --      1.4717                 1.1978                10.4495

                      7                      8                      9
                      A                      A                      A
 Frequencies --    423.1436               564.5609               609.4054
 Red. masses --      3.9232                 4.1970                 7.2164
 Frc consts  --      0.4139                 0.7882                 1.5790
 IR Inten    --      1.9732                 3.3254                 7.4443

                     10                     11                     12
                      A                      A                      A
 Frequencies --    734.2571               769.9912               787.5053
 Red. masses --      1.3264                 1.3588                 5.4206
 Frc consts  --      0.4213                 0.4747                 1.9806
 IR Inten    --     40.5654                26.9534                36.4660

                     13                     14                     15
                      A                      A                      A
 Frequencies --    801.0274               895.8164               929.4150
 Red. masses --      1.2788                 3.1543                 2.8096
 Frc consts  --      0.4834                 1.4914                 1.4299
 IR Inten    --      6.3422                13.9702                 5.3713

                     16                     17                     18
                      A                      A                      A
 Frequencies --   1078.0011              1128.3625              1203.5131
 Red. masses --      4.1585                 2.0873                 1.7765
 Frc consts  --      2.8472                 1.5658                 1.5161
 IR Inten    --     20.2243                21.3935                 4.7183

                     19                     20                     21
                      A                      A                      A
 Frequencies --   1288.5709              1348.0725              1401.9709
 Red. masses --      4.2012                 1.2107                 1.2750
 Frc consts  --      4.1100                 1.2963                 1.4765
 IR Inten    --    617.2720                85.4556                28.0238

                     22                     23                     24
                      A                      A                      A
 Frequencies --   1431.4150              1492.2524              1502.7543
 Red. masses --      1.3788                 1.0411                 1.0651
 Frc consts  --      1.6646                 1.3660                 1.4171
 IR Inten    --      9.9561                10.5694                 2.9335

                     25                     26                     27
                      A                      A                      A
 Frequencies --   1514.7490              1839.1839              2267.4442
 Red. masses --      1.0807                12.0363                 5.7532
 Frc consts  --      1.4610                23.9880                17.4275
 IR Inten    --     17.7097               337.0668                68.3599

                     28                     29                     30
                      A                      A                      A
 Frequencies --   3075.4680              3106.5364              3150.1790
 Red. masses --      1.0354                 1.0607                 1.1016
 Frc consts  --      5.7701                 6.0313                 6.4411
 IR Inten    --     10.4337                18.3287                14.4063

                     31                     32                     33
                      A                      A                      A
 Frequencies --   3154.5704              3174.7275              3490.9394
 Red. masses --      1.1048                 1.1071                 1.1706
 Frc consts  --      6.4774                 6.5741                 8.4052
 IR Inten    --      2.6153                15.1377                61.2369

 - Thermochemistry -
 -------------------
 Temperature   298.150 Kelvin.  Pressure   1.00000 Atm.
 Atom     1 has atomic number  6 and mass  12.00000

 Molecular mass:    98.03678 amu.
 Principal axes and moments of inertia in atomic units:
                           1         2         3
     Eigenvalues --   262.034591163.806091278.40047
           X            0.99998  -0.00247  -0.00517
           Y            0.00248   0.99999   0.00213
           Z            0.00516  -0.00214   0.99998
 This molecule is an asymmetric top.
 Rotational symmetry number  1.
 Rotational temperatures (Kelvin)      0.33054     0.07442     0.06775
 Rotational constants (GHZ):           6.88742     1.55072     1.41172
 Zero-point vibrational energy     265350.1 (Joules/Mol)
                                   63.42019 (Kcal/Mol)
 Warning -- explicit consideration of   9 degrees of freedom as
           vibrations may cause significant error
 Vibrational temperatures:    115.63   167.49   232.90   328.65   391.40
          (Kelvin)            489.37   608.81   812.28   876.80  1056.43
                             1107.85  1133.04  1152.50  1288.88  1337.22
                             1551.00  1623.46  1731.59  1853.97  1939.58
                             2017.12  2059.49  2147.02  2162.13  2179.39
                             2646.18  3262.35  4424.91  4469.61  4532.41
                             4538.72  4567.72  5022.68

 Zero-point correction=                           0.101067 (Hartree/Particle)
 Thermal correction to Energy=                    0.108535
 Thermal correction to Enthalpy=                  0.109479
 Thermal correction to Gibbs Free Energy=         0.069245
 Sum of electronic and zero-point Energies=           -344.376493
 Sum of electronic and thermal Energies=              -344.369025
 Sum of electronic and thermal Enthalpies=            -344.368080
 Sum of electronic and thermal Free Energies=         -344.408314

                     E (Thermal)             CV                S
                      KCal/Mol        Cal/Mol-Kelvin    Cal/Mol-Kelvin
 Total                   68.107             25.648             84.680
 Electronic               0.000              0.000              0.000
 Translational            0.889              2.981             39.659
 Rotational               0.889              2.981             27.458
 Vibrational             66.329             19.687             17.563
 Vibration     1          0.600              1.962              3.882
 Vibration     2          0.608              1.936              3.159
 Vibration     3          0.622              1.889              2.528
 Vibration     4          0.651              1.798              1.891
 Vibration     5          0.675              1.725              1.583
 Vibration     6          0.720              1.595              1.212
 Vibration     7          0.785              1.420              0.881
 Vibration     8          0.920              1.108              0.515
 Vibration     9          0.968              1.012              0.434

 Optimization completed.
    -- Stationary point found.
 Normal termination of Gaussian 16 at Fri May 23 16:06:24 2025.
