 Gaussian 16, Revision A.03,
 Gaussian 16:  ES64L-G16RevA.03 25-Dec-2016

 ---------------------------------------------------------
 # opt=(calcfc,tight,noeigentest) freq 6-311++g(d,p) m062x
 ---------------------------------------------------------

 -------------------
 Title Card Required
 -------------------
 Symbolic Z-matrix:
 Charge =  0 Multiplicity = 1

 SCF Done:  E(RM062X) =  -344.438925060     A.U. after   15 cycles
 SCF Done:  E(RM062X) =  -344.461479781     A.U. after   15 cycles
 SCF Done:  E(RM062X) =  -344.463400003     A.U. after   15 cycles
 SCF Done:  E(RM062X) =  -344.468702841     A.U. after   15 cycles
 SCF Done:  E(RM062X) =  -344.469433102     A.U. after   14 cycles
 SCF Done:  E(RM062X) =  -344.468685633     A.U. after   15 cycles
 SCF Done:  E(RM062X) =  -344.469704717     A.U. after   14 cycles
 SCF Done:  E(RM062X) =  -344.469718891     A.U. after   12 cycles
 SCF Done:  E(RM062X) =  -344.469721141     A.U. after   11 cycles
 SCF Done:  E(RM062X) =  -344.469722032     A.U. after   11 cycles
 SCF Done:  E(RM062X) =  -344.469722217     A.U. after   10 cycles
 SCF Done:  E(RM062X) =  -344.469722224     A.U. after    8 cycles
 SCF Done:  E(RM062X) =  -344.469722225     A.U. after    7 cycles
 Optimization completed.
    -- Stationary point found.
 Normal termination of Gaussian 16 at Fri May 23 10:47:11 2025.

 ----------------------------------------------------------------------
 #N Geom=AllCheck Guess=TCheck SCRF=Check GenChk RM062X/6-311++G(d,p) F
 req
 ----------------------------------------------------------------------

 Structure from the checkpoint file:  "ethyl_propiolate_non_planar.chk"
 -------------------
 Title Card Required
 -------------------
 Charge =  0 Multiplicity = 1

                         Standard orientation:
 ---------------------------------------------------------------------
 Center     Atomic      Atomic             Coordinates (Angstroms)
 Number     Number       Type             X           Y           Z
 ---------------------------------------------------------------------
      1          6           0       -2.070211   -1.626079   -0.000003
      2          1           0       -2.619088   -2.538925    0.000005
      3          6           0       -1.461888   -0.592785    0.000003
      4          6           0       -0.784047    0.705531    0.000000
      5          8           0       -1.389632    1.734915    0.000000
      6          8           0        0.553136    0.679938   -0.000002
      7          6           0        1.258220   -0.573705   -0.000001
      8          6           0        2.733554   -0.245078    0.000001
      9          1           0        0.975307   -1.144991   -0.887254
     10          1           0        0.975305   -1.144993    0.887249
     11          1           0        3.317402   -1.167018   -0.000003
     12          1           0        2.994636    0.334906   -0.885594
     13          1           0        2.994635    0.334898    0.885602
 ---------------------------------------------------------------------

 SCF Done:  E(RM062X) =  -344.469722225     A.U. after    1 cycles

 The electronic state is 1-A.
 Alpha  occ. eigenvalues --  -19.68123 -19.62728 -10.70627 -10.61427 -10.57835
 Alpha  occ. eigenvalues --  -10.57406 -10.54468  -1.25129  -1.16579  -0.89617
 Alpha  occ. eigenvalues --   -0.88632  -0.75897  -0.74087  -0.65199  -0.61725
 Alpha  occ. eigenvalues --   -0.59344  -0.56198  -0.52025  -0.49277  -0.47669
 Alpha  occ. eigenvalues --   -0.44703  -0.43632  -0.39534  -0.39112  -0.37149
 Alpha  occ. eigenvalues --   -0.36328
 Alpha virt. eigenvalues --   -0.02072  -0.00886   0.00464   0.01748   0.02084
 Alpha virt. eigenvalues --    0.02881   0.03635   0.05036   0.05600   0.07156
 Alpha virt. eigenvalues --    0.07199   0.07657   0.09117   0.09232   0.10997

 Mulliken charges:
               1
     1  C   -1.643839
     2  H    0.182616
     3  C    1.763446
     4  C   -0.041367
     5  O   -0.253710
     6  O   -0.066800
     7  C   -0.188946
     8  C   -0.624061
     9  H    0.173150
    10  H    0.173149
    11  H    0.164746
    12  H    0.180808
    13  H    0.180808
 Sum of Mulliken charges =  -0.00000

 Dipole moment (field-independent basis, Debye):
    X=              1.6377    Y=             -4.6092    Z=              0.0000  Tot=              4.8915
 Quadrupole moment (field-independent basis, Debye-Ang):
   XX=            -38.6382   YY=            -42.5790   ZZ=            -40.9745
   XY=              6.2562   XZ=             -0.0000   YZ=             -0.0000

  Exact polarizability:  71.160   5.234  71.864   0.000   0.000  42.755
 Approx polarizability:  72.330   7.525  92.959   0.000   0.000  51.642

                      1                      2                      3
                      A                      A                      A
 Frequencies --     73.7890               114.1398               143.5408
 Red. masses --      2.0998                 3.4685                 3.7214
 Frc consts  --      0.0067                 0.0266                 0.0452
 IR Inten    --      0.2231                 0.6081                 1.8307

                      4                      5                      6
                      A                      A                      A
 Frequencies --    243.6786               256.2172               262.9011
 Red. masses --      4.1528                 4.3169                 1.2177
 Frc consts  --      0.1453                 0.1670                 0.0496
 IR Inten    --      1.8346                 0.5935                 0.3110

                      7                      8                      9
                      A                      A                      A
 Frequencies --    403.2667               532.9016               652.3626
 Red. masses --      3.6878                 7.2820                 6.7013
 Frc consts  --      0.3534                 1.2184                 1.6803
 IR Inten    --      5.0900                13.5282                 3.2711

                     10                     11                     12
                      A                      A                      A
 Frequencies --    731.0049               768.8108               772.2826
 Red. masses --      1.3414                 2.2878                 2.3543
 Frc consts  --      0.4223                 0.7967                 0.8273
 IR Inten    --     37.9911                 1.0980                63.3136

                     13                     14                     15
                      A                      A                      A
 Frequencies --    780.6001               826.5546               977.1333
 Red. masses --      4.6084                 1.0920                 2.1547
 Frc consts  --      1.6545                 0.4395                 1.2121
 IR Inten    --      2.0502                 0.3428                13.3067

                     16                     17                     18
                      A                      A                      A
 Frequencies --   1101.9223              1158.2901              1183.2686
 Red. masses --      3.4911                 3.0590                 1.5407
 Frc consts  --      2.4976                 2.4180                 1.2710
 IR Inten    --     37.2104                60.2179                 4.4877

                     19                     20                     21
                      A                      A                      A
 Frequencies --   1282.4093              1321.5250              1405.7796
 Red. masses --      9.6514                 1.0888                 1.2325
 Frc consts  --      9.3518                 1.1204                 1.4351
 IR Inten    --    638.6579                 1.4159                10.3233

                     22                     23                     24
                      A                      A                      A
 Frequencies --   1440.4981              1488.9814              1504.9666
 Red. masses --      1.3873                 1.0366                 1.0499
 Frc consts  --      1.6960                 1.3541                 1.4010
 IR Inten    --     15.0441                 8.2905                 4.3059

                     25                     26                     27
                      A                      A                      A
 Frequencies --   1529.2922              1867.1264              2252.2396
 Red. masses --      1.0895                12.8253                 5.7329
 Frc consts  --      1.5012                26.3430                17.1337
 IR Inten    --      4.8072               485.2360                54.1136

                     28                     29                     30
                      A                      A                      A
 Frequencies --   3074.2010              3079.1730              3121.8169
 Red. masses --      1.0572                 1.0351                 1.1093
 Frc consts  --      5.8867                 5.7824                 6.3695
 IR Inten    --     17.0241                10.8171                 9.1063

                     31                     32                     33
                      A                      A                      A
 Frequencies --   3157.5228              3165.2267              3487.6046
 Red. masses --      1.1023                 1.1048                 1.1698
 Frc consts  --      6.4749                 6.5215                 8.3837
 IR Inten    --     12.6998                16.5207                63.5011

 - Thermochemistry -
 -------------------
 Temperature   298.150 Kelvin.  Pressure   1.00000 Atm.
 Atom     1 has atomic number  6 and mass  12.00000

 Molecular mass:    98.03678 amu.
 Principal axes and moments of inertia in atomic units:
                           1         2         3
     Eigenvalues --   413.25261 961.839391352.46866
           X            0.99991   0.01341  -0.00000
           Y           -0.01341   0.99991  -0.00000
           Z            0.00000   0.00000   1.00000
 This molecule is an asymmetric top.
 Rotational symmetry number  1.
 Rotational temperatures (Kelvin)      0.20959     0.09005     0.06404
 Rotational constants (GHZ):           4.36716     1.87634     1.33441
 Zero-point vibrational energy     264141.6 (Joules/Mol)
                                   63.13136 (Kcal/Mol)
 Warning -- explicit consideration of   8 degrees of freedom as
           vibrations may cause significant error
 Vibrational temperatures:    106.17   164.22   206.52   350.60   368.64
          (Kelvin)            378.26   580.21   766.73   938.60  1051.75
                             1106.15  1111.14  1123.11  1189.23  1405.88
                             1585.42  1666.52  1702.46  1845.10  1901.38
                             2022.60  2072.56  2142.31  2165.31  2200.31
                             2686.38  3240.47  4423.09  4430.24  4491.60
                             4542.97  4554.06  5017.89

 Zero-point correction=                           0.100606 (Hartree/Particle)
 Thermal correction to Energy=                    0.108254
 Thermal correction to Enthalpy=                  0.109199
 Thermal correction to Gibbs Free Energy=         0.068350
 Sum of electronic and zero-point Energies=           -344.369116
 Sum of electronic and thermal Energies=              -344.361468
 Sum of electronic and thermal Enthalpies=            -344.360524
 Sum of electronic and thermal Free Energies=         -344.401372

                     E (Thermal)             CV                S
                      KCal/Mol        Cal/Mol-Kelvin    Cal/Mol-Kelvin
 Total                   67.931             25.934             85.973
 Electronic               0.000              0.000              0.000
 Translational            0.889              2.981             39.659
 Rotational               0.889              2.981             27.777
 Vibrational             66.153             19.972             18.537
 Vibration     1          0.599              1.966              4.050
 Vibration     2          0.607              1.938              3.197
 Vibration     3          0.616              1.910              2.756
 Vibration     4          0.659              1.773              1.776
 Vibration     5          0.666              1.752              1.687
 Vibration     6          0.670              1.741              1.642
 Vibration     7          0.769              1.463              0.951
 Vibration     8          0.888              1.177              0.581

 Optimization completed.
    -- Stationary point found.
 Normal termination of Gaussian 16 at Fri May 23 10:48:03 2025.
