 Gaussian 16, Revision A.03,
 Gaussian 16:  ES64L-G16RevA.03 25-Dec-2016

 --------------------------
 # ccsd(t)/6-311++g(d,p) sp
 --------------------------

 -------------------
 Title Card Required
 -------------------
 Symbolic Z-matrix:
 Charge =  0 Multiplicity = 1

                         Standard orientation:
 ---------------------------------------------------------------------
 Center     Atomic      Atomic             Coordinates (Angstroms)
 Number     Number       Type             X           Y           Z
 ---------------------------------------------------------------------
      1          6           0       -3.028681   -0.450019    0.287410
      2          1           0       -4.039027   -0.738051    0.460582
      3          6           0       -1.891843   -0.126550    0.092010
      4          6           0       -0.525270    0.322660   -0.138343
      5          8           0       -0.196644    1.476473   -0.149827
      6          8           0        0.291307   -0.712433   -0.336638
      7          6           0        1.678905   -0.391428   -0.562671
      8          6           0        2.390699   -0.099642    0.743803
      9          1           0        1.734600    0.456468   -1.246319
     10          1           0        2.078940   -1.278802   -1.049872
     11          1           0        3.452620    0.066098    0.552247
     12          1           0        1.982220    0.795183    1.213632
     13          1           0        2.290474   -0.943348    1.428198
 ---------------------------------------------------------------------

 SCF Done:  E(RHF) =  -342.587442507     A.U. after   17 cycles
 E2 =    -0.1090376490D+01 EUMP2 =    -0.34367781899695D+03
 CCSD(T)= -0.34376046009D+03

 The electronic state is 1-A.
 Alpha  occ. eigenvalues --  -20.61592 -20.56305 -11.41777 -11.29899 -11.26662
 Alpha  occ. eigenvalues --  -11.25973 -11.22738  -1.48464  -1.38326  -1.07895
 Alpha  occ. eigenvalues --   -1.04067  -0.92628  -0.83940  -0.76595  -0.72962
 Alpha  occ. eigenvalues --   -0.69794  -0.66649  -0.63521  -0.58623  -0.55202
 Alpha  occ. eigenvalues --   -0.54317  -0.50801  -0.48476  -0.46861  -0.42649
 Alpha  occ. eigenvalues --   -0.42536
 Alpha virt. eigenvalues --    0.03833   0.04439   0.05881   0.06711   0.07948
 Alpha virt. eigenvalues --    0.08468   0.09287   0.10720   0.11672   0.12521
 Alpha virt. eigenvalues --    0.13513   0.13714   0.14741   0.15934   0.17596

 Mulliken charges:
               1
     1  C   -0.610816
     2  H    0.206048
     3  C    1.220327
     4  C   -0.703220
     5  O   -0.292642
     6  O   -0.083540
     7  C   -0.168709
     8  C   -0.362900
     9  H    0.179194
    10  H    0.165480
    11  H    0.133255
    12  H    0.173268
    13  H    0.144255
 Sum of Mulliken charges =  -0.00000

 Dipole moment (field-independent basis, Debye):
    X=              0.3004    Y=             -1.9470    Z=              0.0626  Tot=              1.9710
 Quadrupole moment (field-independent basis, Debye-Ang):
   XX=            -27.7162   YY=            -47.5436   ZZ=            -40.9542
   XY=              1.9608   XZ=             -2.2317   YZ=             -0.1211

 1\1\GINC-AJ\SP\RCCSD(T)-FC\6-311++G(d,p)\C5H6O2\AAYUSH\23-May-2025\0\\
 # ccsd(t)/6-311++g(d,p) sp\\Title Card Required\\0,1\C,0,3.028681,-0.4
 50019,-0.28741\H,0,4.039027,-0.738052,-0.460582\C,0,1.891843,-0.12655,
 -0.09201\C,0,0.52527,0.32266,0.138343\O,0,0.196644,1.476473,0.149827\O
 ,0,-0.291307,-0.712433,0.336638\C,0,-1.678905,-0.391428,0.562671\C,0,-
 2.390699,-0.099642,-0.743803\H,0,-1.7346,0.456468,1.246319\H,0,-2.0789
 4,-1.278802,1.049872\H,0,-3.45262,0.066098,-0.552247\H,0,-1.98222,0.79
 5183,-1.213632\H,0,-2.290474,-0.943348,-1.428198\\Version=ES64L-G16Rev

 Normal termination of Gaussian 16 at Fri May 23 11:25:45 2025.
