 Gaussian 16, Revision A.03,
 Gaussian 16:  ES64L-G16RevA.03 25-Dec-2016

 ---------------------------------------------------------
 # m062x/6-311++G(d,p) opt=(tight,calcfc,noeigentest) freq
 ---------------------------------------------------------

 -------------------
 Title Card Required
 -------------------
 Symbolic Z-matrix:
 Charge =  0 Multiplicity = 2

 SCF Done:  E(UM062X) =  -75.7265972626     A.U. after   10 cycles
 Optimization completed.
    -- Stationary point found.
 Normal termination of Gaussian 16 at Fri Nov 22 02:35:19 2024.

 ----------------------------------------------------------------------
 #N Geom=AllCheck Guess=TCheck SCRF=Check GenChk UM062X/6-311++G(d,p) F
 req
 ----------------------------------------------------------------------

 Structure from the checkpoint file:  "OH-radical.chk"
 -------------------
 Title Card Required
 -------------------
 Charge =  0 Multiplicity = 2

                         Standard orientation:
 ---------------------------------------------------------------------
 Center     Atomic      Atomic             Coordinates (Angstroms)
 Number     Number       Type             X           Y           Z
 ---------------------------------------------------------------------
      1          8           0        0.000000    0.000000    0.108001
      2          1           0        0.000000    0.000000   -0.864012
 ---------------------------------------------------------------------

 SCF Done:  E(UM062X) =  -75.7265972626     A.U. after    1 cycles

 Unable to determine electronic state:  an orbital has unidentified symmetry.
 Alpha  occ. eigenvalues --  -19.69513  -1.14846  -0.56774  -0.50624  -0.44198
 Alpha virt. eigenvalues --   -0.00362   0.15497   0.16671   0.17226   0.17864
 Alpha virt. eigenvalues --    0.23917   0.54110   1.00020   1.01748   1.04202
 Alpha virt. eigenvalues --    1.34662   1.35635   1.36998   2.04246   2.48021

  Beta  occ. eigenvalues --  -19.67899  -1.06510  -0.53487  -0.40506
  Beta virt. eigenvalues --   -0.10730  -0.00283   0.16149   0.17680   0.17792
  Beta virt. eigenvalues --    0.17801   0.22105   0.54835   1.02534   1.05288
  Beta virt. eigenvalues --    1.05463   1.37047   1.37112   1.37489   2.05934

 Mulliken charges and spin densities:
               1          2
     1  O   -0.247696   1.025495
     2  H    0.247696  -0.025495
 Sum of Mulliken charges =   0.00000   1.00000

 Dipole moment (field-independent basis, Debye):
    X=              0.0000    Y=              0.0000    Z=             -1.8551  Tot=              1.8551
 Quadrupole moment (field-independent basis, Debye-Ang):
   XX=             -6.8596   YY=             -5.5157   ZZ=             -4.7279
   XY=              0.0000   XZ=              0.0000   YZ=              0.0000

  Exact polarizability:   4.275  -0.000   3.465  -0.000  -0.000   6.872
 Approx polarizability:   3.599  -0.000   2.948  -0.000  -0.000   6.871

                      1
                     SG
 Frequencies --   3790.7536
 Red. masses --      1.0671
 Frc consts  --      9.0345
 IR Inten    --     22.4599

 - Thermochemistry -
 -------------------
 Temperature   298.150 Kelvin.  Pressure   1.00000 Atm.
 Atom     1 has atomic number  8 and mass  15.99491

 Molecular mass:    17.00274 amu.
 Principal axes and moments of inertia in atomic units:
                           1         2         3
     Eigenvalues --     0.00000   3.19882   3.19882
           X            0.00000  -0.00000   1.00000
           Y            0.00000   1.00000   0.00000
           Z            1.00000   0.00000   0.00000
 This molecule is a prolate symmetric top.
 Rotational symmetry number  1.
 Rotational temperature (Kelvin)     27.07682
 Rotational constant (GHZ):         564.189356
 Zero-point vibrational energy      22673.7 (Joules/Mol)
                                    5.41915 (Kcal/Mol)
 Vibrational temperatures:   5454.05
          (Kelvin)

 Zero-point correction=                           0.008636 (Hartree/Particle)
 Thermal correction to Energy=                    0.010996
 Thermal correction to Enthalpy=                  0.011941
 Thermal correction to Gibbs Free Energy=        -0.008285
 Sum of electronic and zero-point Energies=            -75.717961
 Sum of electronic and thermal Energies=               -75.715601
 Sum of electronic and thermal Enthalpies=             -75.714657
 Sum of electronic and thermal Free Energies=          -75.734882

                     E (Thermal)             CV                S
                      KCal/Mol        Cal/Mol-Kelvin    Cal/Mol-Kelvin
 Total                    6.900              4.968             42.568
 Electronic               0.000              0.000              1.377
 Translational            0.889              2.981             34.437
 Rotational               0.592              1.987              6.754
 Vibrational              5.419              0.000              0.000

 Optimization completed.
    -- Stationary point found.
 Normal termination of Gaussian 16 at Fri Nov 22 02:35:20 2024.
