 Gaussian 16, Revision A.03,
 Gaussian 16:  ES64L-G16RevA.03 25-Dec-2016

 --------------------------
 # freq 6-311++g(d,p) m062x
 --------------------------

 -------------------
 Title Card Required
 -------------------
 Symbolic Z-matrix:
 Charge =  0 Multiplicity = 2

                         Standard orientation:
 ---------------------------------------------------------------------
 Center     Atomic      Atomic             Coordinates (Angstroms)
 Number     Number       Type             X           Y           Z
 ---------------------------------------------------------------------
      1          6           0       -2.774373   -0.500074   -0.453465
      2          1           0       -3.800226   -0.574018   -0.734635
      3          6           0       -1.615388   -0.167757   -0.126896
      4          6           0       -0.220810   -0.562871    0.219891
      5          8           0        0.106682   -0.941801    1.307206
      6          8           0        0.581488   -0.348771   -0.812578
      7          6           0        1.996883   -0.436928   -0.542273
      8          6           0        2.482349    0.820552    0.151140
      9          1           0        2.446707   -0.557777   -1.525835
     10          1           0        2.184797   -1.328132    0.057335
     11          1           0        3.564165    0.768403    0.288525
     12          1           0        2.245687    1.699491   -0.449487
     13          1           0        2.013429    0.924645    1.129952
     14          8           0       -1.417243    1.591545    0.117498
     15          1           0       -2.033940    1.742079    0.846757
 ---------------------------------------------------------------------

 SCF Done:  E(UM062X) =  -420.211072114     A.U. after   20 cycles

 The electronic state is 2-A.
 Alpha  occ. eigenvalues --  -19.68234 -19.64288 -19.63249 -10.70542 -10.62674
 Alpha  occ. eigenvalues --  -10.60419 -10.59666 -10.53372  -1.25810  -1.16527
 Alpha  occ. eigenvalues --   -1.10902  -0.91465  -0.87703  -0.78241  -0.70960
 Alpha  occ. eigenvalues --   -0.64696  -0.62388  -0.58827  -0.57706  -0.53484
 Alpha  occ. eigenvalues --   -0.53144  -0.49663  -0.48160  -0.46051  -0.45128
 Alpha  occ. eigenvalues --   -0.41761  -0.40350  -0.39664  -0.38426  -0.36506
 Alpha  occ. eigenvalues --   -0.31742
 Alpha virt. eigenvalues --   -0.00270   0.00296   0.00566   0.01402   0.02344
 Alpha virt. eigenvalues --    0.02692   0.03091   0.04274   0.05757   0.06128
 Alpha virt. eigenvalues --    0.07073   0.07659   0.08357   0.09966   0.10486

  Beta  occ. eigenvalues --  -19.68232 -19.63494 -19.63261 -10.70490 -10.62830
  Beta  occ. eigenvalues --  -10.60419 -10.59137 -10.53372  -1.25785  -1.16541
  Beta  occ. eigenvalues --   -1.08083  -0.90280  -0.86798  -0.77656  -0.70247
  Beta  occ. eigenvalues --   -0.64474  -0.61588  -0.58697  -0.57323  -0.53104
  Beta  occ. eigenvalues --   -0.52120  -0.48840  -0.46873  -0.45235  -0.42104
  Beta  occ. eigenvalues --   -0.41708  -0.39374  -0.38527  -0.38400  -0.35125
  Beta virt. eigenvalues --   -0.09414  -0.00192   0.00463   0.01371   0.01944
  Beta virt. eigenvalues --    0.02381   0.02764   0.03282   0.04316   0.05742
  Beta virt. eigenvalues --    0.06047   0.07181   0.07519   0.08421   0.09904

 Mulliken charges and spin densities:
               1          2
     1  C   -0.060896   0.891321
     2  H    0.219965  -0.028435
     3  C    0.249127  -0.323608
     4  C   -0.427423   0.061200
     5  O   -0.206281  -0.005884
     6  O    0.049201   0.002364
     7  C   -0.279946   0.001178
     8  C   -0.418585   0.002429
     9  H    0.195568   0.000286
    10  H    0.188649  -0.000138
    11  H    0.166620  -0.000082
    12  H    0.174195  -0.000417
    13  H    0.189679  -0.000899
    14  O   -0.285571   0.404836
    15  H    0.245699  -0.004150
 Sum of Mulliken charges =  -0.00000   1.00000

 Dipole moment (field-independent basis, Debye):
    X=             -0.7247    Y=             -0.6107    Z=             -0.8342  Tot=              1.2626
 Quadrupole moment (field-independent basis, Debye-Ang):
   XX=            -29.8721   YY=            -50.0564   ZZ=            -50.9571
   XY=              1.0445   XZ=             -1.4460   YZ=              4.9647

  Exact polarizability:  88.803   6.632  69.517   3.887   2.507  59.351
 Approx polarizability:  92.386   9.171  82.114   6.098   0.682  76.829

 ******    1 imaginary frequencies (negative Signs) ******

                      1                      2                      3
                      A                      A                      A
 Frequencies --   -630.8929                81.4887                93.4714
 Red. masses --     10.8666                 3.0486                 4.5373
 Frc consts  --      2.5483                 0.0119                 0.0234
 IR Inten    --     12.5122                 1.9320                 6.8108

                      4                      5                      6
                      A                      A                      A
 Frequencies --    116.0632               176.8883               195.3270
 Red. masses --      2.9060                 1.6383                 1.4164
 Frc consts  --      0.0231                 0.0302                 0.0318
 IR Inten    --      2.3064                45.3101                38.3005

                      7                      8                      9
                      A                      A                      A
 Frequencies --    236.1852               247.1201               288.4912
 Red. masses --      1.9607                 5.1954                 1.6585
 Frc consts  --      0.0644                 0.1869                 0.0813
 IR Inten    --      0.8375                 3.3425                18.6192

                     10                     11                     12
                      A                      A                      A
 Frequencies --    339.6177               382.3980               443.5937
 Red. masses --      3.0477                 2.1953                 3.6079
 Frc consts  --      0.2071                 0.1891                 0.4183
 IR Inten    --     10.9612                21.0926                 8.7404

                     13                     14                     15
                      A                      A                      A
 Frequencies --    580.0325               623.0148               699.6894
 Red. masses --      3.9832                 5.8763                 1.3682
 Frc consts  --      0.7896                 1.3439                 0.3946
 IR Inten    --      5.9325                13.8405                40.6282

                     16                     17                     18
                      A                      A                      A
 Frequencies --    775.0064               801.9886               894.6140
 Red. masses --     10.4217                 1.2120                 3.2374
 Frc consts  --      3.6881                 0.4593                 1.5266
 IR Inten    --     22.7313                 4.9422                16.8013

                     19                     20                     21
                      A                      A                      A
 Frequencies --    918.7055              1003.3696              1070.5203
 Red. masses --      2.6227                 1.1766                 3.8776
 Frc consts  --      1.3042                 0.6979                 2.6182
 IR Inten    --      2.3214                50.3983                33.1162

                     22                     23                     24
                      A                      A                      A
 Frequencies --   1129.2288              1203.2716              1283.1028
 Red. masses --      2.0790                 1.7719                 3.8866
 Frc consts  --      1.5620                 1.5116                 3.7700
 IR Inten    --     21.5850                 7.9409               514.8237

                     25                     26                     27
                      A                      A                      A
 Frequencies --   1344.5143              1402.1737              1430.6603
 Red. masses --      1.2388                 1.2811                 1.3674
 Frc consts  --      1.3194                 1.4840                 1.6490
 IR Inten    --     85.2855                21.0175                12.5391

                     28                     29                     30
                      A                      A                      A
 Frequencies --   1491.5601              1501.8860              1514.5272
 Red. masses --      1.0400                 1.0538                 1.0932
 Frc consts  --      1.3632                 1.4005                 1.4775
 IR Inten    --     10.7285                 0.9819                19.5558

                     31                     32                     33
                      A                      A                      A
 Frequencies --   1842.7539              1917.4358              3076.8658
 Red. masses --     10.7177                 7.5965                 1.0353
 Frc consts  --     21.4431                16.4553                 5.7749
 IR Inten    --    295.3584                61.1008                 8.9334

                     34                     35                     36
                      A                      A                      A
 Frequencies --   3109.5156              3154.2659              3155.4834
 Red. masses --      1.0608                 1.1011                 1.1052
 Frc consts  --      6.0433                 6.4545                 6.4836
 IR Inten    --     19.6810                16.2929                 0.0967

                     37                     38                     39
                      A                      A                      A
 Frequencies --   3177.0059              3451.5466              3847.9557
 Red. masses --      1.1075                 1.1283                 1.0677
 Frc consts  --      6.5859                 7.9199                 9.3144
 IR Inten    --     14.2939                81.9412                62.5546

 - Thermochemistry -
 -------------------
 Temperature   298.150 Kelvin.  Pressure   1.00000 Atm.
 Atom     1 has atomic number  6 and mass  12.00000

 Molecular mass:   115.03952 amu.
 Principal axes and moments of inertia in atomic units:
                           1         2         3
     Eigenvalues --   479.453571374.973921496.91614
           X            0.99993   0.01164   0.00001
           Y           -0.01159   0.99568   0.09216
           Z            0.00107  -0.09216   0.99574
 This molecule is an asymmetric top.
 Rotational symmetry number  1.
 Warning -- assumption of classical behavior for rotation
           may cause significant error
 Rotational temperatures (Kelvin)      0.18065     0.06299     0.05786
 Rotational constants (GHZ):           3.76416     1.31256     1.20564
    1 imaginary frequencies ignored.
 Zero-point vibrational energy     293093.1 (Joules/Mol)
                                   70.05093 (Kcal/Mol)
 Warning -- explicit consideration of  12 degrees of freedom as
           vibrations may cause significant error
 Vibrational temperatures:    117.24   134.48   166.99   254.50   281.03
          (Kelvin)            339.82   355.55   415.07   488.63   550.19
                              638.23   834.54   896.38  1006.70  1115.06
                             1153.88  1287.15  1321.81  1443.63  1540.24
                             1624.71  1731.24  1846.10  1934.46  2017.42
                             2058.40  2146.02  2160.88  2179.07  2651.31
                             2758.76  4426.92  4473.90  4538.29  4540.04
                             4571.00  4966.01  5536.35

 Zero-point correction=                           0.111633 (Hartree/Particle)
 Thermal correction to Energy=                    0.121110
 Thermal correction to Enthalpy=                  0.122055
 Thermal correction to Gibbs Free Energy=         0.076701
 Sum of electronic and zero-point Energies=           -420.099439
 Sum of electronic and thermal Energies=              -420.089962
 Sum of electronic and thermal Enthalpies=            -420.089017
 Sum of electronic and thermal Free Energies=         -420.134371

                     E (Thermal)             CV                S
                      KCal/Mol        Cal/Mol-Kelvin    Cal/Mol-Kelvin
 Total                   75.998             32.352             95.455
 Electronic               0.000              0.000              1.377
 Translational            0.889              2.981             40.136
 Rotational               0.889              2.981             28.380
 Vibrational             74.220             26.391             25.562
 Vibration     1          0.600              1.962              3.855
 Vibration     2          0.602              1.954              3.586
 Vibration     3          0.608              1.936              3.165
 Vibration     4          0.628              1.871              2.361
 Vibration     5          0.636              1.846              2.177
 Vibration     6          0.655              1.785              1.831
 Vibration     7          0.661              1.768              1.751
 Vibration     8          0.685              1.695              1.483
 Vibration     9          0.720              1.596              1.214
 Vibration    10          0.752              1.508              1.030
 Vibration    11          0.803              1.375              0.815
 Vibration    12          0.937              1.074              0.485

 1\1\GINC-AJ\Freq\UM062X\6-311++G(d,p)\C5H7O3(2)\AAYUSH\23-Jun-2025\0\\
 # freq 6-311++g(d,p) m062x\\Title Card Required\\0,2\C,-2.774373,-0.50
 0074,-0.453465\H,-3.800226,-0.574018,-0.734635\C,-1.615388,-0.167757,-
 0.126896\C,-0.22081,-0.562871,0.219891\O,0.106682,-0.941801,1.307206\O
 ,0.581488,-0.348771,-0.812578\C,1.996883,-0.436928,-0.542273\C,2.48234
 9,0.820552,0.15114\H,2.446707,-0.557777,-1.525835\H,2.184797,-1.328132
 ,0.057335\H,3.564165,0.768403,0.288525\H,2.245687,1.699491,-0.449487\H
 ,2.013429,0.924645,1.129952\O,-1.417243,1.591545,0.117498\H,-2.03394,1

 Normal termination of Gaussian 16 at Mon Jun 23 05:43:19 2025.
