 Gaussian 16, Revision A.03,
 Gaussian 16:  ES64L-G16RevA.03 25-Dec-2016

 -------------------
 # freq 6-31+g m062x
 -------------------

 -------------------
 Title Card Required
 -------------------
 Symbolic Z-matrix:
 Charge =  0 Multiplicity = 2

                         Standard orientation:
 ---------------------------------------------------------------------
 Center     Atomic      Atomic             Coordinates (Angstroms)
 Number     Number       Type             X           Y           Z
 ---------------------------------------------------------------------
      1          6           0       -2.798543   -0.496365   -0.431477
      2          1           0       -3.830352   -0.507786   -0.695200
      3          6           0       -1.630350   -0.471610   -0.151917
      4          6           0       -0.225967   -0.588667    0.238722
      5          8           0        0.118403   -0.871988    1.352206
      6          8           0        0.577357   -0.384152   -0.797982
      7          6           0        1.991679   -0.462489   -0.527053
      8          6           0        2.487493    0.819370    0.110950
      9          1           0        2.439049   -0.627503   -1.505537
     10          1           0        2.178173   -1.327762    0.110259
     11          1           0        3.569780    0.767734    0.245078
     12          1           0        2.253701    1.673768   -0.525466
     13          1           0        2.023767    0.965816    1.086624
     14          8           0       -1.390528    1.806768    0.075308
     15          1           0       -2.021841    1.849266    0.812638
 ---------------------------------------------------------------------

 SCF Done:  E(UM062X) =  -419.960485313     A.U. after   24 cycles

 The electronic state is 2-A.
 Alpha  occ. eigenvalues --  -19.70336 -19.70298 -19.66018 -10.72855 -10.61237
 Alpha  occ. eigenvalues --  -10.59453 -10.59091 -10.54091  -1.27783  -1.18424
 Alpha  occ. eigenvalues --   -1.14648  -0.91244  -0.87784  -0.78350  -0.71028
 Alpha  occ. eigenvalues --   -0.64391  -0.61943  -0.58372  -0.57024  -0.54723
 Alpha  occ. eigenvalues --   -0.53671  -0.50491  -0.48728  -0.46388  -0.44944
 Alpha  occ. eigenvalues --   -0.42512  -0.41658  -0.39411  -0.37974  -0.36699
 Alpha  occ. eigenvalues --   -0.36343
 Alpha virt. eigenvalues --   -0.01186   0.01985   0.02497   0.03653   0.03777
 Alpha virt. eigenvalues --    0.04523   0.05466   0.05911   0.07702   0.08377
 Alpha virt. eigenvalues --    0.08854   0.08907   0.10073   0.11859   0.12287

  Beta  occ. eigenvalues --  -19.70302 -19.68693 -19.66031 -10.72842 -10.61237
  Beta  occ. eigenvalues --  -10.59440 -10.59004 -10.54091  -1.27790  -1.18448
  Beta  occ. eigenvalues --   -1.07356  -0.91013  -0.87602  -0.78271  -0.70944
  Beta  occ. eigenvalues --   -0.64358  -0.61714  -0.58274  -0.56700  -0.53658
  Beta  occ. eigenvalues --   -0.51710  -0.49217  -0.46572  -0.44983  -0.41656
  Beta  occ. eigenvalues --   -0.39386  -0.39037  -0.38379  -0.38000  -0.36415
  Beta virt. eigenvalues --   -0.09196  -0.00721   0.02036   0.02508   0.03766
  Beta virt. eigenvalues --    0.03818   0.04703   0.05535   0.06003   0.07762
  Beta virt. eigenvalues --    0.08327   0.08910   0.09027   0.10147   0.11981

 Mulliken charges and spin densities:
               1          2
     1  C   -0.266186   0.094800
     2  H    0.342328  -0.005389
     3  C   -0.171124  -0.040400
     4  C    0.281222   0.052210
     5  O   -0.334543  -0.005883
     6  O   -0.164677  -0.000366
     7  C   -0.232491  -0.001240
     8  C   -0.565151   0.000193
     9  H    0.219067  -0.000014
    10  H    0.231205  -0.000055
    11  H    0.204507  -0.000026
    12  H    0.227411  -0.000062
    13  H    0.237020  -0.000084
    14  O   -0.412888   0.941031
    15  H    0.404299  -0.034715
 Sum of Mulliken charges =  -0.00000   1.00000

 Dipole moment (field-independent basis, Debye):
    X=             -0.7832    Y=              0.2328    Z=             -0.3415  Tot=              0.8856
 Quadrupole moment (field-independent basis, Debye-Ang):
   XX=            -29.9569   YY=            -48.7275   ZZ=            -52.5201
   XY=             -1.0914   XZ=             -2.4244   YZ=              5.6818

  Exact polarizability:  87.312   3.978  58.344   3.646  -0.233  56.790
 Approx polarizability:  93.183   2.858  57.712   7.399  -3.730  71.371

 ******    4 imaginary frequencies (negative Signs) ******

                      1                      2                      3
                      A                      A                      A
 Frequencies --   -460.1032              -164.6645               -74.2252
 Red. masses --      1.0896                 2.1873                 5.0120
 Frc consts  --      0.1359                 0.0349                 0.0163
 IR Inten    --    124.2289                68.2033                 8.2917

                      4                      5                      6
                      A                      A                      A
 Frequencies --    -15.9032                76.9457                90.0640
 Red. masses --      2.7988                 3.2855                 3.2281
 Frc consts  --      0.0004                 0.0115                 0.0154
 IR Inten    --      0.2466                 2.3501                 7.3939

                      7                      8                      9
                      A                      A                      A
 Frequencies --    131.1214               174.0597               222.1021
 Red. masses --      4.3793                 1.3387                 2.8736
 Frc consts  --      0.0444                 0.0239                 0.0835
 IR Inten    --     14.3473                 2.0216                 7.9457

                     10                     11                     12
                      A                      A                      A
 Frequencies --    291.4972               311.7102               423.9932
 Red. masses --      2.7780                 2.9948                 3.8282
 Frc consts  --      0.1391                 0.1714                 0.4055
 IR Inten    --     47.5502                17.7696                 0.9477

                     13                     14                     15
                      A                      A                      A
 Frequencies --    572.2801               624.2519               762.6545
 Red. masses --      4.2300                 5.3348                 3.4143
 Frc consts  --      0.8162                 1.2249                 1.1700
 IR Inten    --      2.8424                13.0481                82.7927

                     16                     17                     18
                      A                      A                      A
 Frequencies --    786.8702               816.5575               825.1187
 Red. masses --      1.5413                 1.2935                 1.5760
 Frc consts  --      0.5623                 0.5081                 0.6322
 IR Inten    --     51.7138                10.1293                15.3495

                     19                     20                     21
                      A                      A                      A
 Frequencies --    899.4551               945.7754              1112.9735
 Red. masses --      3.4193                 2.5259                 4.1599
 Frc consts  --      1.6298                 1.3312                 3.0360
 IR Inten    --     20.9470                 5.5400                 8.2509

                     22                     23                     24
                      A                      A                      A
 Frequencies --   1159.4865              1228.7080              1329.8017
 Red. masses --      2.0887                 1.7539                 1.8312
 Frc consts  --      1.6545                 1.5601                 1.9080
 IR Inten    --     18.7900                 4.5416               287.8262

                     25                     26                     27
                      A                      A                      A
 Frequencies --   1373.7328              1443.8767              1457.4502
 Red. masses --      1.8538                 1.3871                 1.2698
 Frc consts  --      2.0612                 1.7038                 1.5892
 IR Inten    --    305.6545                42.0047                17.0860

                     28                     29                     30
                      A                      A                      A
 Frequencies --   1525.8058              1536.5507              1544.3418
 Red. masses --      1.0415                 1.0605                 1.0849
 Frc consts  --      1.4286                 1.4752                 1.5245
 IR Inten    --     14.6572                 2.0852                27.0126

                     31                     32                     33
                      A                      A                      A
 Frequencies --   1907.5680              2307.1151              3107.7493
 Red. masses --     12.2573                 5.6447                 1.0351
 Frc consts  --     26.2787                17.7022                 5.8900
 IR Inten    --    309.4687                61.4015                13.2500

                     34                     35                     36
                      A                      A                      A
 Frequencies --   3136.2175              3187.9144              3190.1775
 Red. masses --      1.0601                 1.1022                 1.1009
 Frc consts  --      6.1435                 6.5994                 6.6015
 IR Inten    --     21.7503                 6.7903                14.2302

                     37                     38                     39
                      A                      A                      A
 Frequencies --   3211.0774              3529.8900              3806.6861
 Red. masses --      1.1050                 1.1748                 1.0672
 Frc consts  --      6.7132                 8.6245                 9.1112
 IR Inten    --     17.6635                60.3973                10.3710

 - Thermochemistry -
 -------------------
 Temperature   298.150 Kelvin.  Pressure   1.00000 Atm.
 Atom     1 has atomic number  6 and mass  12.00000

 Molecular mass:   115.03952 amu.
 Principal axes and moments of inertia in atomic units:
                           1         2         3
     Eigenvalues --   530.172371382.838611548.88540
           X            0.99995   0.01008  -0.00138
           Y           -0.00997   0.99790   0.06398
           Z            0.00202  -0.06396   0.99795
 This molecule is an asymmetric top.
 Rotational symmetry number  1.
 Warning -- assumption of classical behavior for rotation
           may cause significant error
 Rotational temperatures (Kelvin)      0.16337     0.06263     0.05592
 Rotational constants (GHZ):           3.40407     1.30510     1.16519
    4 imaginary frequencies ignored.
 Zero-point vibrational energy     293393.6 (Joules/Mol)
                                   70.12275 (Kcal/Mol)
 Warning -- explicit consideration of   9 degrees of freedom as
           vibrations may cause significant error
 Vibrational temperatures:    110.71   129.58   188.65   250.43   319.56
          (Kelvin)            419.40   448.48   610.03   823.38   898.16
                             1097.29  1132.13  1174.84  1187.16  1294.12
                             1360.76  1601.32  1668.24  1767.84  1913.29
                             1976.50  2077.42  2096.95  2195.29  2210.75
                             2221.96  2744.56  3319.42  4471.36  4512.32
                             4586.70  4589.95  4620.02  5078.72  5476.97

 Zero-point correction=                           0.111748 (Hartree/Particle)
 Thermal correction to Energy=                    0.119886
 Thermal correction to Enthalpy=                  0.120830
 Thermal correction to Gibbs Free Energy=         0.077652
 Sum of electronic and zero-point Energies=           -419.848738
 Sum of electronic and thermal Energies=              -419.840600
 Sum of electronic and thermal Enthalpies=            -419.839656
 Sum of electronic and thermal Free Energies=         -419.882833

                     E (Thermal)             CV                S
                      KCal/Mol        Cal/Mol-Kelvin    Cal/Mol-Kelvin
 Total                   75.229             27.216             90.875
 Electronic               0.000              0.000              1.377
 Translational            0.889              2.981             40.136
 Rotational               0.889              2.981             28.520
 Vibrational             73.452             21.254             20.842
 Vibration     1          0.599              1.965              3.967
 Vibration     2          0.602              1.956              3.659
 Vibration     3          0.612              1.922              2.930
 Vibration     4          0.627              1.874              2.391
 Vibration     5          0.648              1.807              1.942
 Vibration     6          0.687              1.690              1.465
 Vibration     7          0.700              1.651              1.353
 Vibration     8          0.786              1.418              0.879
 Vibration     9          0.928              1.091              0.500

 Normal termination of Gaussian 16 at Fri Jun 20 13:59:21 2025.
