 Gaussian 16, Revision A.03,
 Gaussian 16:  ES64L-G16RevA.03 25-Dec-2016

 -------------------
 # freq 6-31+g m062x
 -------------------

 -------------------
 Title Card Required
 -------------------
 Symbolic Z-matrix:
 Charge =  0 Multiplicity = 2

                         Standard orientation:
 ---------------------------------------------------------------------
 Center     Atomic      Atomic             Coordinates (Angstroms)
 Number     Number       Type             X           Y           Z
 ---------------------------------------------------------------------
      1          6           0       -2.794992   -0.493678   -0.434176
      2          1           0       -3.825674   -0.523715   -0.700845
      3          6           0       -1.628059   -0.435253   -0.150143
      4          6           0       -0.224739   -0.579867    0.236647
      5          8           0        0.116252   -0.882804    1.345713
      6          8           0        0.578887   -0.377441   -0.800023
      7          6           0        1.992883   -0.459273   -0.529057
      8          6           0        2.486813    0.819447    0.116864
      9          1           0        2.440898   -0.618310   -1.508205
     10          1           0        2.178921   -1.328360    0.103112
     11          1           0        3.568942    0.768653    0.252349
     12          1           0        2.252548    1.677085   -0.515006
     13          1           0        2.021491    0.959783    1.092740
     14          8           0       -1.395096    1.775147    0.081784
     15          1           0       -2.028911    1.837390    0.815253
 ---------------------------------------------------------------------

 SCF Done:  E(UM062X) =  -419.959049701     A.U. after   24 cycles

 The electronic state is 2-A.
 Alpha  occ. eigenvalues --  -19.70301 -19.70053 -19.66020 -10.72857 -10.61242
 Alpha  occ. eigenvalues --  -10.59618 -10.59206 -10.54106  -1.27800  -1.18449
 Alpha  occ. eigenvalues --   -1.14452  -0.91320  -0.87835  -0.78384  -0.71055
 Alpha  occ. eigenvalues --   -0.64410  -0.62023  -0.58442  -0.57075  -0.54512
 Alpha  occ. eigenvalues --   -0.53666  -0.50511  -0.48679  -0.46368  -0.44965
 Alpha  occ. eigenvalues --   -0.42295  -0.41658  -0.39443  -0.37971  -0.36705
 Alpha  occ. eigenvalues --   -0.36022
 Alpha virt. eigenvalues --   -0.01078   0.01989   0.02496   0.03662   0.03761
 Alpha virt. eigenvalues --    0.04487   0.05469   0.05895   0.07703   0.08302
 Alpha virt. eigenvalues --    0.08848   0.08924   0.10055   0.11856   0.12298

  Beta  occ. eigenvalues --  -19.70305 -19.68428 -19.66035 -10.72841 -10.61242
  Beta  occ. eigenvalues --  -10.59616 -10.59094 -10.54106  -1.27808  -1.18475
  Beta  occ. eigenvalues --   -1.07368  -0.91043  -0.87622  -0.78289  -0.70952
  Beta  occ. eigenvalues --   -0.64368  -0.61744  -0.58326  -0.56741  -0.53652
  Beta  occ. eigenvalues --   -0.51599  -0.49210  -0.46587  -0.45013  -0.41656
  Beta  occ. eigenvalues --   -0.39387  -0.39011  -0.38405  -0.38002  -0.36371
  Beta virt. eigenvalues --   -0.09217  -0.00494   0.02037   0.02510   0.03762
  Beta virt. eigenvalues --    0.03792   0.04681   0.05537   0.05972   0.07759
  Beta virt. eigenvalues --    0.08248   0.08927   0.09012   0.10137   0.11953

 Mulliken charges and spin densities:
               1          2
     1  C   -0.176947   0.119745
     2  H    0.338013  -0.006581
     3  C   -0.216593  -0.053593
     4  C    0.250818   0.062676
     5  O   -0.336421  -0.006932
     6  O   -0.163829  -0.000408
     7  C   -0.242101  -0.000997
     8  C   -0.560963   0.000120
     9  H    0.219400  -0.000014
    10  H    0.231977  -0.000068
    11  H    0.204570  -0.000025
    12  H    0.227531  -0.000056
    13  H    0.236635  -0.000072
    14  O   -0.417762   0.919916
    15  H    0.405672  -0.033712
 Sum of Mulliken charges =  -0.00000   1.00000

 Dipole moment (field-independent basis, Debye):
    X=             -0.7883    Y=              0.1925    Z=             -0.3681  Tot=              0.8911
 Quadrupole moment (field-independent basis, Debye-Ang):
   XX=            -29.8490   YY=            -48.8009   ZZ=            -52.4703
   XY=             -0.9014   XZ=             -2.3537   YZ=              5.6886

  Exact polarizability:  87.255   4.656  60.267   3.755   0.219  56.851
 Approx polarizability:  93.040   4.115  59.511   7.481  -3.365  71.378

 ******    4 imaginary frequencies (negative Signs) ******

                      1                      2                      3
                      A                      A                      A
 Frequencies --   -459.0726              -142.3483               -71.1236
 Red. masses --      1.0899                 3.6364                 4.4095
 Frc consts  --      0.1353                 0.0434                 0.0131
 IR Inten    --    121.8588                28.2488                 9.7812

                      4                      5                      6
                      A                      A                      A
 Frequencies --    -13.5971                81.8337                92.3361
 Red. masses --      2.6427                 3.3190                 4.0595
 Frc consts  --      0.0003                 0.0131                 0.0204
 IR Inten    --      0.2606                 3.9369                 3.5221

                      7                      8                      9
                      A                      A                      A
 Frequencies --    155.5721               174.7274               204.8562
 Red. masses --      4.4206                 1.3728                 4.0947
 Frc consts  --      0.0630                 0.0247                 0.1012
 IR Inten    --      9.5971                 2.2150                 0.1546

                     10                     11                     12
                      A                      A                      A
 Frequencies --    303.9455               321.5377               424.0341
 Red. masses --      2.3440                 1.7742                 3.6691
 Frc consts  --      0.1276                 0.1081                 0.3887
 IR Inten    --     31.6886                79.0393                 1.3196

                     13                     14                     15
                      A                      A                      A
 Frequencies --    572.3002               622.8598               754.0262
 Red. masses --      4.2417                 5.4111                 5.1470
 Frc consts  --      0.8185                 1.2368                 1.7242
 IR Inten    --      2.9918                12.9969                76.3990

                     16                     17                     18
                      A                      A                      A
 Frequencies --    768.2240               801.3151               818.3087
 Red. masses --      1.4710                 1.4027                 1.2812
 Frc consts  --      0.5115                 0.5307                 0.5055
 IR Inten    --     41.1403                38.1613                 4.5340

                     19                     20                     21
                      A                      A                      A
 Frequencies --    899.4339               946.2051              1112.2290
 Red. masses --      3.4135                 2.5183                 4.1621
 Frc consts  --      1.6270                 1.3284                 3.0336
 IR Inten    --     20.8610                 5.5638                 8.6620

                     22                     23                     24
                      A                      A                      A
 Frequencies --   1159.5246              1228.8475              1329.2880
 Red. masses --      2.0903                 1.7543                 1.8247
 Frc consts  --      1.6558                 1.5608                 1.8996
 IR Inten    --     18.7272                 4.6281               284.6861

                     25                     26                     27
                      A                      A                      A
 Frequencies --   1372.8730              1443.3451              1457.5313
 Red. masses --      1.8637                 1.3909                 1.2666
 Frc consts  --      2.0696                 1.7072                 1.5854
 IR Inten    --    305.9371                41.5030                17.6422

                     28                     29                     30
                      A                      A                      A
 Frequencies --   1526.0108              1536.6819              1544.4590
 Red. masses --      1.0414                 1.0592                 1.0862
 Frc consts  --      1.4289                 1.4736                 1.5266
 IR Inten    --     14.7514                 2.1348                27.3455

                     31                     32                     33
                      A                      A                      A
 Frequencies --   1908.5752              2298.6754              3107.8011
 Red. masses --     12.2582                 5.6789                 1.0350
 Frc consts  --     26.3085                17.6794                 5.8900
 IR Inten    --    311.9464                64.1053                12.9749

                     34                     35                     36
                      A                      A                      A
 Frequencies --   3136.8084              3188.1558              3190.2682
 Red. masses --      1.0601                 1.1023                 1.1007
 Frc consts  --      6.1457                 6.6015                 6.6006
 IR Inten    --     21.7036                 5.7860                15.0975

                     37                     38                     39
                      A                      A                      A
 Frequencies --   3211.1067              3529.0566              3810.4570
 Red. masses --      1.1051                 1.1734                 1.0672
 Frc consts  --      6.7139                 8.6100                 9.1295
 IR Inten    --     17.6334                60.7476                11.8854

 - Thermochemistry -
 -------------------
 Temperature   298.150 Kelvin.  Pressure   1.00000 Atm.
 Atom     1 has atomic number  6 and mass  12.00000

 Molecular mass:   115.03952 amu.
 Principal axes and moments of inertia in atomic units:
                           1         2         3
     Eigenvalues --   521.790631381.926681540.64803
           X            0.99995   0.01032  -0.00118
           Y           -0.01022   0.99766   0.06757
           Z            0.00188  -0.06756   0.99771
 This molecule is an asymmetric top.
 Rotational symmetry number  1.
 Warning -- assumption of classical behavior for rotation
           may cause significant error
 Rotational temperatures (Kelvin)      0.16599     0.06268     0.05622
 Rotational constants (GHZ):           3.45875     1.30596     1.17142
    4 imaginary frequencies ignored.
 Zero-point vibrational energy     293283.7 (Joules/Mol)
                                   70.09649 (Kcal/Mol)
 Warning -- explicit consideration of   9 degrees of freedom as
           vibrations may cause significant error
 Vibrational temperatures:    117.74   132.85   223.83   251.39   294.74
          (Kelvin)            437.31   462.62   610.09   823.41   896.16
                             1084.88  1105.30  1152.91  1177.36  1294.08
                             1361.38  1600.25  1668.30  1768.04  1912.55
                             1975.26  2076.65  2097.06  2195.59  2210.94
                             2222.13  2746.01  3307.28  4471.43  4513.17
                             4587.05  4590.08  4620.07  5077.53  5482.40

 Zero-point correction=                           0.111706 (Hartree/Particle)
 Thermal correction to Energy=                    0.119800
 Thermal correction to Enthalpy=                  0.120744
 Thermal correction to Gibbs Free Energy=         0.077782
 Sum of electronic and zero-point Energies=           -419.847344
 Sum of electronic and thermal Energies=              -419.839250
 Sum of electronic and thermal Enthalpies=            -419.838306
 Sum of electronic and thermal Free Energies=         -419.881267

                     E (Thermal)             CV                S
                      KCal/Mol        Cal/Mol-Kelvin    Cal/Mol-Kelvin
 Total                   75.175             27.254             90.420
 Electronic               0.000              0.000              1.377
 Translational            0.889              2.981             40.136
 Rotational               0.889              2.981             28.498
 Vibrational             73.398             21.292             20.409
 Vibration     1          0.600              1.962              3.846
 Vibration     2          0.602              1.955              3.610
 Vibration     3          0.620              1.896              2.603
 Vibration     4          0.627              1.874              2.384
 Vibration     5          0.640              1.833              2.089
 Vibration     6          0.695              1.666              1.395
 Vibration     7          0.707              1.632              1.302
 Vibration     8          0.786              1.418              0.878
 Vibration     9          0.929              1.091              0.500

 Normal termination of Gaussian 16 at Fri Jun 20 14:07:24 2025.
