 Gaussian 16, Revision A.03,
 Gaussian 16:  ES64L-G16RevA.03 25-Dec-2016

 --------------------------
 # freq 6-311++g(d,p) m062x
 --------------------------

 -------------------
 Title Card Required
 -------------------
 Symbolic Z-matrix:
 Charge =  0 Multiplicity = 2

                         Standard orientation:
 ---------------------------------------------------------------------
 Center     Atomic      Atomic             Coordinates (Angstroms)
 Number     Number       Type             X           Y           Z
 ---------------------------------------------------------------------
      1          6           0       -2.778498   -0.494791   -0.448350
      2          1           0       -3.803508   -0.577996   -0.728170
      3          6           0       -1.618417   -0.231785   -0.134092
      4          6           0       -0.220473   -0.562235    0.224807
      5          8           0        0.107861   -0.928697    1.316238
      6          8           0        0.581111   -0.355395   -0.809624
      7          6           0        1.996226   -0.442560   -0.538943
      8          6           0        2.483173    0.820392    0.143165
      9          1           0        2.445562   -0.572544   -1.521586
     10          1           0        2.183549   -1.328634    0.068466
     11          1           0        3.565019    0.768826    0.280529
     12          1           0        2.246968    1.694179   -0.465150
     13          1           0        2.014696    0.933235    1.121215
     14          8           0       -1.412699    1.631881    0.109130
     15          1           0       -2.034540    1.766497    0.839224
 ---------------------------------------------------------------------

 SCF Done:  E(UM062X) =  -420.204295431     A.U. after   22 cycles

 The electronic state is 2-A.
 Alpha  occ. eigenvalues --  -19.68219 -19.64646 -19.63204 -10.70688 -10.61360
 Alpha  occ. eigenvalues --  -10.60418 -10.59423 -10.53369  -1.25805  -1.16517
 Alpha  occ. eigenvalues --   -1.10909  -0.91486  -0.87694  -0.78257  -0.70908
 Alpha  occ. eigenvalues --   -0.64674  -0.62494  -0.58739  -0.57471  -0.53294
 Alpha  occ. eigenvalues --   -0.53155  -0.49828  -0.48257  -0.45992  -0.45110
 Alpha  occ. eigenvalues --   -0.41771  -0.40393  -0.39729  -0.38413  -0.36759
 Alpha  occ. eigenvalues --   -0.32704
 Alpha virt. eigenvalues --   -0.00311  -0.00164   0.00473   0.01479   0.02497
 Alpha virt. eigenvalues --    0.02712   0.03105   0.04263   0.05722   0.06133
 Alpha virt. eigenvalues --    0.07046   0.07606   0.08362   0.09890   0.10533

  Beta  occ. eigenvalues --  -19.68220 -19.63552 -19.63223 -10.70645 -10.61485
  Beta  occ. eigenvalues --  -10.60417 -10.59022 -10.53369  -1.25795  -1.16551
  Beta  occ. eigenvalues --   -1.06880  -0.90478  -0.86999  -0.77824  -0.70407
  Beta  occ. eigenvalues --   -0.64482  -0.61822  -0.58656  -0.57085  -0.53184
  Beta  occ. eigenvalues --   -0.51406  -0.48920  -0.46729  -0.45200  -0.41737
  Beta  occ. eigenvalues --   -0.40616  -0.39541  -0.38500  -0.37972  -0.35439
  Beta virt. eigenvalues --   -0.10045  -0.00179   0.00470   0.01124   0.01832
  Beta virt. eigenvalues --    0.02514   0.02779   0.03237   0.04303   0.05745
  Beta virt. eigenvalues --    0.06084   0.07154   0.07473   0.08434   0.09922

 Mulliken charges and spin densities:
               1          2
     1  C   -0.195479   0.704652
     2  H    0.212644  -0.024402
     3  C    0.455095  -0.289663
     4  C   -0.503860   0.049563
     5  O   -0.203459  -0.009771
     6  O    0.051750   0.001226
     7  C   -0.280039   0.000376
     8  C   -0.416636   0.003287
     9  H    0.195514   0.000287
    10  H    0.188092  -0.000047
    11  H    0.167422  -0.000060
    12  H    0.173866  -0.000549
    13  H    0.189300  -0.001190
    14  O   -0.271411   0.577050
    15  H    0.237199  -0.010759
 Sum of Mulliken charges =  -0.00000   1.00000

 Dipole moment (field-independent basis, Debye):
    X=             -0.7371    Y=             -0.5813    Z=             -0.8240  Tot=              1.2490
 Quadrupole moment (field-independent basis, Debye-Ang):
   XX=            -29.6111   YY=            -49.8060   ZZ=            -51.0039
   XY=              1.0528   XZ=             -1.4349   YZ=              5.0036

  Exact polarizability:  90.031   7.596  73.038   4.372   3.154  59.537
 Approx polarizability:  95.252   9.846  82.863   6.957   0.844  76.964

 ******    1 imaginary frequencies (negative Signs) ******

                      1                      2                      3
                      A                      A                      A
 Frequencies --   -695.4564                73.7877                79.0880
 Red. masses --     12.4071                 3.2684                 4.6819
 Frc consts  --      3.5356                 0.0105                 0.0173
 IR Inten    --     19.0101                 1.2611                 6.8603

                      4                      5                      6
                      A                      A                      A
 Frequencies --    117.7041               171.3835               204.5091
 Red. masses --      3.3002                 2.1989                 2.0762
 Frc consts  --      0.0269                 0.0381                 0.0512
 IR Inten    --      1.1600                20.5517                42.6549

                      7                      8                      9
                      A                      A                      A
 Frequencies --    217.1327               234.4398               278.6794
 Red. masses --      2.3051                 1.5632                 2.5807
 Frc consts  --      0.0640                 0.0506                 0.1181
 IR Inten    --     14.3066                 6.3149                10.6671

                     10                     11                     12
                      A                      A                      A
 Frequencies --    337.5143               434.9783               549.0348
 Red. masses --      3.0454                 3.5913                 1.4489
 Frc consts  --      0.2044                 0.4003                 0.2573
 IR Inten    --     10.3177                 4.0242                26.9315

                     13                     14                     15
                      A                      A                      A
 Frequencies --    570.9900               612.5135               711.0724
 Red. masses --      3.2070                 6.5748                 1.3320
 Frc consts  --      0.6160                 1.4533                 0.3968
 IR Inten    --     14.4704                10.5402                40.1333

                     16                     17                     18
                      A                      A                      A
 Frequencies --    766.9696               802.3841               891.4081
 Red. masses --      9.7773                 1.2105                 1.7488
 Frc consts  --      3.3886                 0.4592                 0.8187
 IR Inten    --     32.0708                 5.0042                32.6986

                     19                     20                     21
                      A                      A                      A
 Frequencies --    900.8099               925.6307              1070.8714
 Red. masses --      1.7963                 2.3440                 4.0536
 Frc consts  --      0.8588                 1.1833                 2.7388
 IR Inten    --     39.8736                17.2829                27.8807

                     22                     23                     24
                      A                      A                      A
 Frequencies --   1129.2994              1203.5808              1283.9076
 Red. masses --      2.0808                 1.7715                 3.8723
 Frc consts  --      1.5635                 1.5120                 3.7609
 IR Inten    --     21.4763                 7.8931               525.7996

                     25                     26                     27
                      A                      A                      A
 Frequencies --   1344.8844              1402.1916              1430.8376
 Red. masses --      1.2395                 1.2812                 1.3705
 Frc consts  --      1.3209                 1.4841                 1.6531
 IR Inten    --     86.8829                22.1172                13.3760

                     28                     29                     30
                      A                      A                      A
 Frequencies --   1491.4045              1502.0277              1514.7951
 Red. masses --      1.0400                 1.0538                 1.0935
 Frc consts  --      1.3629                 1.4007                 1.4784
 IR Inten    --     10.9066                 1.1192                20.4682

                     31                     32                     33
                      A                      A                      A
 Frequencies --   1847.9970              2010.1981              3076.6438
 Red. masses --     11.7636                 6.8456                 1.0353
 Frc consts  --     23.6697                16.2983                 5.7740
 IR Inten    --    340.9403                63.4028                 8.8602

                     34                     35                     36
                      A                      A                      A
 Frequencies --   3109.1053              3154.0177              3155.1822
 Red. masses --      1.0608                 1.1011                 1.1052
 Frc consts  --      6.0417                 6.4537                 6.4823
 IR Inten    --     19.6346                16.1621                 0.2964

                     37                     38                     39
                      A                      A                      A
 Frequencies --   3176.6484              3463.2236              3832.1180
 Red. masses --      1.1074                 1.1368                 1.0677
 Frc consts  --      6.5843                 8.0332                 9.2379
 IR Inten    --     14.3036                76.5684                59.1846

 - Thermochemistry -
 -------------------
 Temperature   298.150 Kelvin.  Pressure   1.00000 Atm.
 Atom     1 has atomic number  6 and mass  12.00000

 Molecular mass:   115.03952 amu.
 Principal axes and moments of inertia in atomic units:
                           1         2         3
     Eigenvalues --   487.710091376.408131505.39930
           X            0.99993   0.01151  -0.00025
           Y           -0.01145   0.99618   0.08660
           Z            0.00124  -0.08659   0.99624
 This molecule is an asymmetric top.
 Rotational symmetry number  1.
 Warning -- assumption of classical behavior for rotation
           may cause significant error
 Rotational temperatures (Kelvin)      0.17759     0.06293     0.05754
 Rotational constants (GHZ):           3.70044     1.31120     1.19885
    1 imaginary frequencies ignored.
 Zero-point vibrational energy     293557.4 (Joules/Mol)
                                   70.16190 (Kcal/Mol)
 Warning -- explicit consideration of  13 degrees of freedom as
           vibrations may cause significant error
 Vibrational temperatures:    106.16   113.79   169.35   246.58   294.24
          (Kelvin)            312.41   337.31   400.96   485.61   625.84
                              789.94   821.53   881.27  1023.07  1103.50
                             1154.45  1282.54  1296.06  1331.78  1540.75
                             1624.81  1731.68  1847.26  1934.99  2017.44
                             2058.66  2145.80  2161.08  2179.45  2658.86
                             2892.23  4426.60  4473.31  4537.93  4539.60
                             4570.49  4982.81  5513.56

 Zero-point correction=                           0.111810 (Hartree/Particle)
 Thermal correction to Energy=                    0.121280
 Thermal correction to Enthalpy=                  0.122224
 Thermal correction to Gibbs Free Energy=         0.076670
 Sum of electronic and zero-point Energies=           -420.092485
 Sum of electronic and thermal Energies=              -420.083015
 Sum of electronic and thermal Enthalpies=            -420.082071
 Sum of electronic and thermal Free Energies=         -420.127626

                     E (Thermal)             CV                S
                      KCal/Mol        Cal/Mol-Kelvin    Cal/Mol-Kelvin
 Total                   76.104             32.231             95.878
 Electronic               0.000              0.000              1.377
 Translational            0.889              2.981             40.136
 Rotational               0.889              2.981             28.404
 Vibrational             74.327             26.270             25.961
 Vibration     1          0.599              1.966              4.050
 Vibration     2          0.600              1.963              3.913
 Vibration     3          0.608              1.935              3.138
 Vibration     4          0.626              1.878              2.420
 Vibration     5          0.640              1.833              2.092
 Vibration     6          0.646              1.815              1.983
 Vibration     7          0.654              1.788              1.845
 Vibration     8          0.679              1.713              1.542
 Vibration     9          0.718              1.601              1.224
 Vibration    10          0.796              1.394              0.843
 Vibration    11          0.904              1.142              0.546
 Vibration    12          0.927              1.094              0.502
 Vibration    13          0.972              1.005              0.429

 1\1\GINC-AJ\Freq\UM062X\6-311++G(d,p)\C5H7O3(2)\AAYUSH\16-Aug-2025\0\\
 # freq 6-311++g(d,p) m062x\\Title Card Required\\0,2\C,-2.721821,-0.47
 4132,-0.446967\H,-3.746961,-0.559202,-0.725747\C,-1.561515,-0.209041,-
 0.135302\C,-0.163608,-0.537122,0.225906\O,0.164913,-0.894566,1.320268\
 O,0.637734,-0.339346,-0.810483\C,2.052897,-0.424898,-0.539537\C,2.5406
 55,0.843505,0.13179\H,2.501851,-0.563334,-1.5212\H,2.240006,-1.305932,
 0.075226\H,3.622521,0.792587,0.269233\H,2.304658,1.712267,-0.48376\H,2
 .07255,0.964771,1.10901\O,-1.35485,1.656504,0.092205\H,-1.97639,1.7975

 Normal termination of Gaussian 16 at Sat Aug 16 19:43:29 2025.
