 Gaussian 16, Revision A.03,
 Gaussian 16:  ES64L-G16RevA.03 25-Dec-2016

 --------------------------
 # ccsd(t)/6-311++g(d,p) sp
 --------------------------

 -------------------
 Title Card Required
 -------------------
 Symbolic Z-matrix:
 Charge =  0 Multiplicity = 2

                         Standard orientation:
 ---------------------------------------------------------------------
 Center     Atomic      Atomic             Coordinates (Angstroms)
 Number     Number       Type             X           Y           Z
 ---------------------------------------------------------------------
      1          6           0       -2.770078   -0.504546   -0.457087
      2          1           0       -3.797726   -0.563547   -0.738100
      3          6           0       -1.613677   -0.125720   -0.121787
      4          6           0       -0.221779   -0.563399    0.216257
      5          8           0        0.105981   -0.951030    1.300635
      6          8           0        0.581918   -0.343990   -0.814623
      7          6           0        1.997368   -0.432740   -0.544493
      8          6           0        2.481652    0.820884    0.156962
      9          1           0        2.447778   -0.547002   -1.528573
     10          1           0        2.185918   -1.327451    0.049611
     11          1           0        3.563447    0.768584    0.294449
     12          1           0        2.244677    1.703432   -0.438244
     13          1           0        2.012414    0.918596    1.136300
     14          8           0       -1.420805    1.564219    0.123238
     15          1           0       -2.034180    1.726922    0.851452
 ---------------------------------------------------------------------

 SCF Done:  E(UHF) =  -417.983505442     A.U. after   28 cycles
 E2 =    -0.1266424458D+01 EUMP2 =    -0.41924992989989D+03
 CCSD(T)= -0.41936777355D+03

 The electronic state is 2-A.
 Alpha  occ. eigenvalues --  -20.61076 -20.59897 -20.55778 -11.41125 -11.30498
 Alpha  occ. eigenvalues --  -11.29468 -11.28505 -11.22149  -1.48156  -1.37888
 Alpha  occ. eigenvalues --   -1.35593  -1.08793  -1.04383  -0.92694  -0.83984
 Alpha  occ. eigenvalues --   -0.76632  -0.73267  -0.69307  -0.68988  -0.64746
 Alpha  occ. eigenvalues --   -0.62643  -0.61280  -0.57519  -0.54969  -0.53795
 Alpha  occ. eigenvalues --   -0.51637  -0.50157  -0.48099  -0.46008  -0.43913
 Alpha  occ. eigenvalues --   -0.41802
 Alpha virt. eigenvalues --    0.03688   0.04633   0.05748   0.06837   0.07016
 Alpha virt. eigenvalues --    0.08740   0.09774   0.10689   0.11204   0.12288
 Alpha virt. eigenvalues --    0.13258   0.13960   0.14629   0.15796   0.16673

  Beta  occ. eigenvalues --  -20.61077 -20.57635 -20.56043 -11.40782 -11.32680
  Beta  occ. eigenvalues --  -11.29471 -11.25410 -11.22150  -1.48243  -1.38309
  Beta  occ. eigenvalues --   -1.28772  -1.07238  -1.03098  -0.91133  -0.82545
  Beta  occ. eigenvalues --   -0.76241  -0.71681  -0.69573  -0.68240  -0.63590
  Beta  occ. eigenvalues --   -0.62668  -0.57722  -0.55995  -0.53911  -0.50275
  Beta  occ. eigenvalues --   -0.49988  -0.49412  -0.47778  -0.46573  -0.42128
  Beta virt. eigenvalues --    0.03801   0.04112   0.04640   0.06446   0.07006
  Beta virt. eigenvalues --    0.07429   0.08818   0.09731   0.10539   0.11864
  Beta virt. eigenvalues --    0.12872   0.13535   0.14458   0.15902   0.16111

 Mulliken charges and spin densities:
               1          2
     1  C   -0.076486   1.615379
     2  H    0.239944  -0.106172
     3  C    0.228751  -1.113051
     4  C   -0.311864   0.165751
     5  O   -0.285801  -0.051477
     6  O   -0.040761   0.003522
     7  C   -0.171828   0.001024
     8  C   -0.384980   0.000075
     9  H    0.164624   0.000081
    10  H    0.173144   0.000225
    11  H    0.136613  -0.000313
    12  H    0.152546  -0.000506
    13  H    0.177198  -0.000050
    14  O   -0.259714   0.503185
    15  H    0.258615  -0.017674
 Sum of Mulliken charges =  -0.00000   1.00000

 Dipole moment (field-independent basis, Debye):
    X=             -0.9224    Y=             -0.1979    Z=             -0.8757  Tot=              1.2872
 Quadrupole moment (field-independent basis, Debye-Ang):
   XX=            -30.1585   YY=            -49.6872   ZZ=            -51.3300
   XY=              0.2186   XZ=             -1.7694   YZ=              5.3613

 =-419.2944016\MP4SDQ=-419.3063308\CCSD=-419.3127536\CCSD(T)=-419.36777
 Normal termination of Gaussian 16 at Tue Aug  5 09:35:02 2025.
