 Gaussian 16, Revision A.03,
 Gaussian 16:  ES64L-G16RevA.03 25-Dec-2016

 --------------------------
 # freq 6-311++g(d,p) m062x
 --------------------------

 -------------------
 Title Card Required
 -------------------
 Symbolic Z-matrix:
 Charge =  0 Multiplicity = 2

                         Standard orientation:
 ---------------------------------------------------------------------
 Center     Atomic      Atomic             Coordinates (Angstroms)
 Number     Number       Type             X           Y           Z
 ---------------------------------------------------------------------
      1          6           0       -2.783515   -0.491357   -0.442267
      2          1           0       -3.809868   -0.565952   -0.717978
      3          6           0       -1.622096   -0.316486   -0.142074
      4          6           0       -0.221745   -0.564112    0.230318
      5          8           0        0.110227   -0.911464    1.327740
      6          8           0        0.580878   -0.363656   -0.805788
      7          6           0        1.995251   -0.449456   -0.534721
      8          6           0        2.484281    0.820265    0.133021
      9          1           0        2.444349   -0.590947   -1.515953
     10          1           0        2.182074   -1.328792    0.082653
     11          1           0        3.566184    0.769738    0.270251
     12          1           0        2.248733    1.687460   -0.485050
     13          1           0        2.016591    0.943930    1.110138
     14          8           0       -1.406851    1.686638    0.098245
     15          1           0       -2.035154    1.799297    0.828701
 ---------------------------------------------------------------------

 SCF Done:  E(UM062X) =  -420.202401365     A.U. after   23 cycles

 The electronic state is 2-A.
 Alpha  occ. eigenvalues --  -19.68096 -19.65938 -19.63025 -10.70624 -10.60357
 Alpha  occ. eigenvalues --  -10.59307 -10.58485 -10.53372  -1.25652  -1.16356
 Alpha  occ. eigenvalues --   -1.12008  -0.91053  -0.87457  -0.78111  -0.70675
 Alpha  occ. eigenvalues --   -0.64476  -0.62125  -0.58564  -0.57243  -0.53768
 Alpha  occ. eigenvalues --   -0.53237  -0.50224  -0.48439  -0.46057  -0.45074
 Alpha  occ. eigenvalues --   -0.41734  -0.41136  -0.39684  -0.38318  -0.36660
 Alpha  occ. eigenvalues --   -0.34299
 Alpha virt. eigenvalues --   -0.00644  -0.00224   0.00498   0.01478   0.02535
 Alpha virt. eigenvalues --    0.02778   0.03434   0.04326   0.05672   0.06178
 Alpha virt. eigenvalues --    0.07108   0.07613   0.08428   0.09839   0.10659

  Beta  occ. eigenvalues --  -19.68100 -19.64531 -19.63045 -10.70597 -10.60357
  Beta  occ. eigenvalues --  -10.59361 -10.58246 -10.53372  -1.25654  -1.16396
  Beta  occ. eigenvalues --   -1.06187  -0.90439  -0.86996  -0.77865  -0.70410
  Beta  occ. eigenvalues --   -0.64364  -0.61633  -0.58502  -0.56809  -0.53204
  Beta  occ. eigenvalues --   -0.51476  -0.48982  -0.46601  -0.45140  -0.41719
  Beta  occ. eigenvalues --   -0.39540  -0.39341  -0.38426  -0.37928  -0.35863
  Beta virt. eigenvalues --   -0.09831  -0.00189   0.00427   0.00695   0.01774
  Beta virt. eigenvalues --    0.02642   0.02816   0.03457   0.04392   0.05737
  Beta virt. eigenvalues --    0.06150   0.07210   0.07538   0.08481   0.09916

 Mulliken charges and spin densities:
               1          2
     1  C   -0.658692   0.405980
     2  H    0.197134  -0.016434
     3  C    0.869110  -0.175952
     4  C   -0.478084   0.035558
     5  O   -0.200898  -0.009689
     6  O    0.056567   0.000677
     7  C   -0.277866  -0.000789
     8  C   -0.415533   0.003444
     9  H    0.195065   0.000161
    10  H    0.188158  -0.000024
    11  H    0.169047   0.000055
    12  H    0.172503  -0.000464
    13  H    0.189018  -0.001287
    14  O   -0.239224   0.776803
    15  H    0.233696  -0.018039
 Sum of Mulliken charges =  -0.00000   1.00000

 Dipole moment (field-independent basis, Debye):
    X=             -0.6829    Y=             -0.1825    Z=             -0.7275  Tot=              1.0144
 Quadrupole moment (field-independent basis, Debye-Ang):
   XX=            -29.8935   YY=            -49.1176   ZZ=            -51.1239
   XY=              0.3433   XZ=             -1.6422   YZ=              5.0804

  Exact polarizability:  91.224   7.674  73.639   4.698   3.163  59.640
 Approx polarizability:  98.102   8.333  77.880   7.550  -0.105  76.899

 ******    1 imaginary frequencies (negative Signs) ******

                      1                      2                      3
                      A                      A                      A
 Frequencies --   -489.4608                35.8362                56.0316
 Red. masses --     11.9493                 4.7099                 3.7497
 Frc consts  --      1.6867                 0.0036                 0.0069
 IR Inten    --     66.7166                 6.4499                 1.8257

                      4                      5                      6
                      A                      A                      A
 Frequencies --    116.6067               154.5526               165.5195
 Red. masses --      3.5263                 4.6276                 2.8113
 Frc consts  --      0.0283                 0.0651                 0.0454
 IR Inten    --      1.5152                20.4382                 4.3978

                      7                      8                      9
                      A                      A                      A
 Frequencies --    212.6007               228.8023               261.5638
 Red. masses --      1.5263                 1.4475                 2.0264
 Frc consts  --      0.0406                 0.0446                 0.0817
 IR Inten    --     35.0754                 4.8372                26.6539

                     10                     11                     12
                      A                      A                      A
 Frequencies --    336.0210               429.3569               561.1139
 Red. masses --      2.9282                 3.7281                 3.8696
 Frc consts  --      0.1948                 0.4049                 0.7178
 IR Inten    --      9.8339                 3.7285                 5.2382

                     13                     14                     15
                      A                      A                      A
 Frequencies --    607.0475               692.5666               722.0789
 Red. masses --      6.3633                 1.3298                 1.2110
 Frc consts  --      1.3816                 0.3758                 0.3720
 IR Inten    --     13.4037                29.4349                52.3340

                     16                     17                     18
                      A                      A                      A
 Frequencies --    742.6619               769.9732               802.9454
 Red. masses --      1.2458                 7.0709                 1.2056
 Frc consts  --      0.4049                 2.4699                 0.4580
 IR Inten    --     33.6181                72.6004                 5.0234

                     19                     20                     21
                      A                      A                      A
 Frequencies --    897.1008               927.4036              1074.0014
 Red. masses --      3.2549                 2.7372                 4.1160
 Frc consts  --      1.5434                 1.3871                 2.7973
 IR Inten    --     16.4292                 6.6116                25.0309

                     22                     23                     24
                      A                      A                      A
 Frequencies --   1129.5154              1204.1945              1288.1111
 Red. masses --      2.0881                 1.7716                 3.7408
 Frc consts  --      1.5696                 1.5136                 3.6569
 IR Inten    --     22.2285                 6.5386               533.8367

                     25                     26                     27
                      A                      A                      A
 Frequencies --   1345.6285              1402.0799              1431.0423
 Red. masses --      1.2483                 1.2837                 1.3785
 Frc consts  --      1.3318                 1.4868                 1.6633
 IR Inten    --     94.8269                25.4038                13.6945

                     28                     29                     30
                      A                      A                      A
 Frequencies --   1491.2866              1502.3195              1515.0215
 Red. masses --      1.0400                 1.0543                 1.0935
 Frc consts  --      1.3627                 1.4020                 1.4789
 IR Inten    --     10.9591                 1.2223                21.3247

                     31                     32                     33
                      A                      A                      A
 Frequencies --   1846.5014              2148.7012              3076.1115
 Red. masses --     11.9776                 6.2312                 1.0353
 Frc consts  --     24.0613                16.9502                 5.7718
 IR Inten    --    346.3406                93.0001                 9.0939

                     34                     35                     36
                      A                      A                      A
 Frequencies --   3108.2581              3153.1858              3154.5351
 Red. masses --      1.0608                 1.1016                 1.1047
 Frc consts  --      6.0381                 6.4533                 6.4770
 IR Inten    --     19.7437                14.3832                 2.5009

                     37                     38                     39
                      A                      A                      A
 Frequencies --   3175.7394              3477.9352              3814.9713
 Red. masses --      1.1074                 1.1533                 1.0675
 Frc consts  --      6.5804                 8.2192                 9.1535
 IR Inten    --     14.6120                69.9287                47.6508

 - Thermochemistry -
 -------------------
 Temperature   298.150 Kelvin.  Pressure   1.00000 Atm.
 Atom     1 has atomic number  6 and mass  12.00000

 Molecular mass:   115.03952 amu.
 Principal axes and moments of inertia in atomic units:
                           1         2         3
     Eigenvalues --   499.954301378.291361517.93983
           X            0.99994   0.01112  -0.00061
           Y           -0.01104   0.99682   0.07898
           Z            0.00148  -0.07896   0.99688
 This molecule is an asymmetric top.
 Rotational symmetry number  1.
 Warning -- assumption of classical behavior for rotation
           may cause significant error
 Rotational temperatures (Kelvin)      0.17324     0.06284     0.05706
 Rotational constants (GHZ):           3.60981     1.30940     1.18894
    1 imaginary frequencies ignored.
 Zero-point vibrational energy     293437.5 (Joules/Mol)
                                   70.13325 (Kcal/Mol)
 Warning -- explicit consideration of  12 degrees of freedom as
           vibrations may cause significant error
 Vibrational temperatures:     51.56    80.62   167.77   222.37   238.15
          (Kelvin)            305.88   329.20   376.33   483.46   617.75
                              807.32   873.41   996.45  1038.91  1068.52
                             1107.82  1155.26  1290.73  1334.33  1545.25
                             1625.12  1732.57  1853.30  1936.06  2017.28
                             2058.95  2145.63  2161.50  2179.78  2656.70
                             3091.50  4425.84  4472.09  4536.73  4538.67
                             4569.18  5003.97  5488.89

 Zero-point correction=                           0.111764 (Hartree/Particle)
 Thermal correction to Energy=                    0.121468
 Thermal correction to Enthalpy=                  0.122412
 Thermal correction to Gibbs Free Energy=         0.075499
 Sum of electronic and zero-point Energies=           -420.090637
 Sum of electronic and thermal Energies=              -420.080933
 Sum of electronic and thermal Enthalpies=            -420.079989
 Sum of electronic and thermal Free Energies=         -420.126903

                     E (Thermal)             CV                S
                      KCal/Mol        Cal/Mol-Kelvin    Cal/Mol-Kelvin
 Total                   76.222             32.330             98.738
 Electronic               0.000              0.000              1.377
 Translational            0.889              2.981             40.136
 Rotational               0.889              2.981             28.438
 Vibrational             74.445             26.369             28.786
 Vibration     1          0.594              1.982              5.477
 Vibration     2          0.596              1.975              4.592
 Vibration     3          0.608              1.936              3.156
 Vibration     4          0.620              1.898              2.615
 Vibration     5          0.624              1.885              2.486
 Vibration     6          0.644              1.822              2.021
 Vibration     7          0.651              1.797              1.888
 Vibration     8          0.669              1.743              1.651
 Vibration     9          0.717              1.604              1.231
 Vibration    10          0.791              1.406              0.861
 Vibration    11          0.917              1.115              0.522
 Vibration    12          0.966              1.017              0.438

 1\1\GINC-AJ\Freq\UM062X\6-311++G(d,p)\C5H7O3(2)\AAYUSH\23-Jun-2025\0\\
 # freq 6-311++g(d,p) m062x\\Title Card Required\\0,2\C,-2.783515,-0.49
 1358,-0.442267\H,-3.809868,-0.565953,-0.717978\C,-1.622096,-0.316486,-
 0.142074\C,-0.221745,-0.564112,0.230318\O,0.110227,-0.911464,1.32774\O
 ,0.580878,-0.363656,-0.805788\C,1.995251,-0.449456,-0.534721\C,2.48428
 1,0.820265,0.133021\H,2.444349,-0.590947,-1.515953\H,2.182074,-1.32879
 2,0.082653\H,3.566184,0.769738,0.270251\H,2.248733,1.68746,-0.48505\H,
 2.016591,0.94393,1.110138\O,-1.406851,1.686638,0.098245\H,-2.035154,1.

 Normal termination of Gaussian 16 at Mon Jun 23 06:00:39 2025.
