 Gaussian 16, Revision A.03,
 Gaussian 16:  ES64L-G16RevA.03 25-Dec-2016

 -------------------
 # freq 6-31+g m062x
 -------------------

 -------------------
 Title Card Required
 -------------------
 Symbolic Z-matrix:
 Charge =  0 Multiplicity = 2

                         Standard orientation:
 ---------------------------------------------------------------------
 Center     Atomic      Atomic             Coordinates (Angstroms)
 Number     Number       Type             X           Y           Z
 ---------------------------------------------------------------------
      1          6           0       -2.785103   -0.491095   -0.440850
      2          1           0       -3.812034   -0.560834   -0.715310
      3          6           0       -1.622996   -0.337178   -0.143729
      4          6           0       -0.222210   -0.565419    0.231522
      5          8           0        0.111022   -0.907014    1.330630
      6          8           0        0.580768   -0.365723   -0.804841
      7          6           0        1.994954   -0.451150   -0.533722
      8          6           0        2.484621    0.820172    0.130438
      9          1           0        2.444009   -0.595549   -1.514566
     10          1           0        2.181622   -1.328773    0.086166
     11          1           0        3.566538    0.769839    0.267621
     12          1           0        2.249283    1.685747   -0.490019
     13          1           0        2.017149    0.946549    1.107309
     14          8           0       -1.405172    1.700769    0.095559
     15          1           0       -2.035110    1.806779    0.826058
 ---------------------------------------------------------------------

 SCF Done:  E(UM062X) =  -419.954611055     A.U. after   22 cycles

 The electronic state is 2-A.
 Alpha  occ. eigenvalues --  -19.70381 -19.68948 -19.66133 -10.72955 -10.61301
 Alpha  occ. eigenvalues --  -10.60603 -10.59839 -10.54147  -1.27942  -1.18595
 Alpha  occ. eigenvalues --   -1.13581  -0.91679  -0.88058  -0.78519  -0.71195
 Alpha  occ. eigenvalues --   -0.64538  -0.62403  -0.58687  -0.57236  -0.53810
 Alpha  occ. eigenvalues --   -0.53668  -0.50397  -0.48514  -0.46317  -0.45034
 Alpha  occ. eigenvalues --   -0.41735  -0.41403  -0.39624  -0.38026  -0.36859
 Alpha  occ. eigenvalues --   -0.34767
 Alpha virt. eigenvalues --   -0.00842   0.01913   0.02479   0.03572   0.03714
 Alpha virt. eigenvalues --    0.04389   0.05514   0.05849   0.07692   0.08034
 Alpha virt. eigenvalues --    0.08836   0.08933   0.10012   0.11818   0.12260

  Beta  occ. eigenvalues --  -19.70384 -19.67430 -19.66154 -10.72927 -10.61300
  Beta  occ. eigenvalues --  -10.60651 -10.59624 -10.54148  -1.27948  -1.18627
  Beta  occ. eigenvalues --   -1.07496  -0.91195  -0.87727  -0.78352  -0.71002
  Beta  occ. eigenvalues --   -0.64453  -0.61930  -0.58530  -0.56928  -0.53662
  Beta  occ. eigenvalues --   -0.51256  -0.49179  -0.46654  -0.45116  -0.41688
  Beta  occ. eigenvalues --   -0.39475  -0.39390  -0.38219  -0.37991  -0.36164
  Beta virt. eigenvalues --   -0.09688   0.00159   0.01962   0.02499   0.03564
  Beta virt. eigenvalues --    0.03779   0.04593   0.05570   0.05892   0.07728
  Beta virt. eigenvalues --    0.08003   0.08915   0.08964   0.10126   0.11844

 Mulliken charges and spin densities:
               1          2
     1  C    0.164601   0.299162
     2  H    0.322304  -0.012313
     3  C   -0.340332  -0.129795
     4  C    0.082925   0.059097
     5  O   -0.341860  -0.009678
     6  O   -0.163850  -0.000526
     7  C   -0.259765  -0.000961
     8  C   -0.553787   0.000698
     9  H    0.220395  -0.000011
    10  H    0.233677  -0.000113
    11  H    0.204669  -0.000041
    12  H    0.228467  -0.000046
    13  H    0.235728  -0.000029
    14  O   -0.439886   0.824428
    15  H    0.406715  -0.029871
 Sum of Mulliken charges =  -0.00000   1.00000

 Dipole moment (field-independent basis, Debye):
    X=             -0.8030    Y=             -0.0856    Z=             -0.4561  Tot=              0.9275
 Quadrupole moment (field-independent basis, Debye-Ang):
   XX=            -29.4964   YY=            -49.2582   ZZ=            -52.3197
   XY=             -0.1521   XZ=             -2.1086   YZ=              5.6769

  Exact polarizability:  87.042   6.944  67.480   4.110   1.924  57.124
 Approx polarizability:  92.294   7.996  66.368   7.709  -1.897  71.519

 ******    5 imaginary frequencies (negative Signs) ******

                      1                      2                      3
                      A                      A                      A
 Frequencies --   -454.5184              -366.0666              -105.8834
 Red. masses --      1.1008                 8.9897                 6.3128
 Frc consts  --      0.1340                 0.7098                 0.0417
 IR Inten    --    113.9102                26.3762                12.4878

                      4                      5                      6
                      A                      A                      A
 Frequencies --    -56.1389               -14.5062                87.5418
 Red. masses --      4.3816                 2.5565                 3.3151
 Frc consts  --      0.0081                 0.0003                 0.0150
 IR Inten    --      4.2811                 0.3442                 6.7306

                      7                      8                      9
                      A                      A                      A
 Frequencies --    140.8602               174.9982               202.6421
 Red. masses --      5.3876                 1.2957                 5.1028
 Frc consts  --      0.0630                 0.0234                 0.1235
 IR Inten    --      0.2119                 1.2521                 0.6624

                     10                     11                     12
                      A                      A                      A
 Frequencies --    305.9600               414.1370               487.3840
 Red. masses --      2.8463                 3.1994                 1.2649
 Frc consts  --      0.1570                 0.3233                 0.1770
 IR Inten    --     13.2719                17.1017                92.0460

                     13                     14                     15
                      A                      A                      A
 Frequencies --    580.9984               618.9229               698.3354
 Red. masses --      3.4820                 5.1083                 1.7161
 Frc consts  --      0.6925                 1.1529                 0.4931
 IR Inten    --     12.3128                11.7982                10.0034

                     16                     17                     18
                      A                      A                      A
 Frequencies --    729.4596               765.5271               817.8503
 Red. masses --      3.4558                 1.3543                 1.2774
 Frc consts  --      1.0834                 0.4676                 0.5034
 IR Inten    --     91.5150                51.1056                 7.0738

                     19                     20                     21
                      A                      A                      A
 Frequencies --    898.3103               945.1515              1109.5576
 Red. masses --      3.3655                 2.5128                 4.1855
 Frc consts  --      1.6001                 1.3226                 3.0360
 IR Inten    --     21.3337                 5.9743                10.8186

                     22                     23                     24
                      A                      A                      A
 Frequencies --   1158.9856              1228.7758              1326.7302
 Red. masses --      2.0811                 1.7525                 1.9021
 Frc consts  --      1.6470                 1.5590                 1.9726
 IR Inten    --     18.2286                 5.3721               295.9742

                     25                     26                     27
                      A                      A                      A
 Frequencies --   1370.3450              1442.2371              1457.9021
 Red. masses --      1.8081                 1.3899                 1.2583
 Frc consts  --      2.0004                 1.7034                 1.5757
 IR Inten    --    284.2422                36.7993                19.2574

                     28                     29                     30
                      A                      A                      A
 Frequencies --   1526.2982              1536.8667              1544.8360
 Red. masses --      1.0413                 1.0561                 1.0888
 Frc consts  --      1.4293                 1.4697                 1.5310
 IR Inten    --     15.0689                 2.4850                27.8699

                     31                     32                     33
                      A                      A                      A
 Frequencies --   1911.7637              2240.2051              3108.0900
 Red. masses --     12.2398                 5.9104                 1.0350
 Frc consts  --     26.3569                17.4761                 5.8910
 IR Inten    --    320.6667                84.7586                12.1087

                     34                     35                     36
                      A                      A                      A
 Frequencies --   3138.3590              3189.1605              3190.5158
 Red. masses --      1.0601                 1.1029                 1.1001
 Frc consts  --      6.1520                 6.6088                 6.5977
 IR Inten    --     21.4406                 3.0553                17.2422

                     37                     38                     39
                      A                      A                      A
 Frequencies --   3211.6859              3523.2390              3823.6712
 Red. masses --      1.1054                 1.1642                 1.0673
 Frc consts  --      6.7177                 8.5149                 9.1936
 IR Inten    --     17.2349                61.4031                16.2416

 - Thermochemistry -
 -------------------
 Temperature   298.150 Kelvin.  Pressure   1.00000 Atm.
 Atom     1 has atomic number  6 and mass  12.00000

 Molecular mass:   115.03952 amu.
 Principal axes and moments of inertia in atomic units:
                           1         2         3
     Eigenvalues --   503.282161378.837801521.39598
           X            0.99994   0.01100  -0.00070
           Y           -0.01091   0.99697   0.07706
           Z            0.00154  -0.07704   0.99703
 This molecule is an asymmetric top.
 Rotational symmetry number  1.
 Warning -- assumption of classical behavior for rotation
           may cause significant error
 Rotational temperatures (Kelvin)      0.17210     0.06282     0.05693
 Rotational constants (GHZ):           3.58594     1.30889     1.18624
    5 imaginary frequencies ignored.
 Zero-point vibrational energy     292530.6 (Joules/Mol)
                                   69.91650 (Kcal/Mol)
 Warning -- explicit consideration of   9 degrees of freedom as
           vibrations may cause significant error
 Vibrational temperatures:    125.95   202.67   251.78   291.56   440.21
          (Kelvin)            595.85   701.24   835.93   890.49  1004.75
                             1049.53  1101.42  1176.70  1292.47  1359.86
                             1596.41  1667.52  1767.93  1908.87  1971.62
                             2075.06  2097.60  2196.00  2211.21  2222.67
                             2750.60  3223.16  4471.85  4515.40  4588.49
                             4590.44  4620.90  5069.16  5501.41

 Zero-point correction=                           0.111419 (Hartree/Particle)
 Thermal correction to Energy=                    0.118670
 Thermal correction to Enthalpy=                  0.119614
 Thermal correction to Gibbs Free Energy=         0.078579
 Sum of electronic and zero-point Energies=           -419.843192
 Sum of electronic and thermal Energies=              -419.835941
 Sum of electronic and thermal Enthalpies=            -419.834997
 Sum of electronic and thermal Free Energies=         -419.876033

                     E (Thermal)             CV                S
                      KCal/Mol        Cal/Mol-Kelvin    Cal/Mol-Kelvin
 Total                   74.466             25.209             86.367
 Electronic               0.000              0.000              1.377
 Translational            0.889              2.981             40.136
 Rotational               0.889              2.981             28.447
 Vibrational             72.689             19.248             16.406
 Vibration     1          0.601              1.958              3.714
 Vibration     2          0.615              1.912              2.792
 Vibration     3          0.627              1.873              2.381
 Vibration     4          0.639              1.836              2.109
 Vibration     5          0.696              1.662              1.384
 Vibration     6          0.778              1.440              0.912
 Vibration     7          0.843              1.278              0.690
 Vibration     8          0.938              1.072              0.484
 Vibration     9          0.979              0.992              0.418

 Normal termination of Gaussian 16 at Fri Jun 20 14:00:08 2025.
