 Gaussian 16, Revision A.03,
 Gaussian 16:  ES64L-G16RevA.03 25-Dec-2016

 --------------------------
 # freq 6-311++g(d,p) m062x
 --------------------------

 -------------------
 Title Card Required
 -------------------
 Symbolic Z-matrix:
 Charge =  0 Multiplicity = 2

                         Standard orientation:
 ---------------------------------------------------------------------
 Center     Atomic      Atomic             Coordinates (Angstroms)
 Number     Number       Type             X           Y           Z
 ---------------------------------------------------------------------
      1          6           0       -2.785103   -0.491095   -0.440850
      2          1           0       -3.812034   -0.560834   -0.715310
      3          6           0       -1.622996   -0.337178   -0.143729
      4          6           0       -0.222210   -0.565419    0.231522
      5          8           0        0.111022   -0.907014    1.330630
      6          8           0        0.580768   -0.365723   -0.804841
      7          6           0        1.994954   -0.451150   -0.533722
      8          6           0        2.484621    0.820172    0.130438
      9          1           0        2.444009   -0.595549   -1.514566
     10          1           0        2.181622   -1.328773    0.086166
     11          1           0        3.566538    0.769839    0.267621
     12          1           0        2.249283    1.685747   -0.490019
     13          1           0        2.017149    0.946549    1.107309
     14          8           0       -1.405172    1.700769    0.095559
     15          1           0       -2.035110    1.806779    0.826058
 ---------------------------------------------------------------------

 SCF Done:  E(UM062X) =  -420.202847814     A.U. after   24 cycles

 The electronic state is 2-A.
 Alpha  occ. eigenvalues --  -19.68066 -19.66273 -19.62983 -10.70591 -10.60340
 Alpha  occ. eigenvalues --  -10.58909 -10.58246 -10.53370  -1.25611  -1.16313
 Alpha  occ. eigenvalues --   -1.12303  -0.90940  -0.87388  -0.78070  -0.70622
 Alpha  occ. eigenvalues --   -0.64427  -0.62010  -0.58520  -0.57200  -0.53971
 Alpha  occ. eigenvalues --   -0.53234  -0.50306  -0.48480  -0.46084  -0.45064
 Alpha  occ. eigenvalues --   -0.41724  -0.41400  -0.39623  -0.38295  -0.36598
 Alpha  occ. eigenvalues --   -0.34629
 Alpha virt. eigenvalues --   -0.00708  -0.00215   0.00504   0.01474   0.02533
 Alpha virt. eigenvalues --    0.02784   0.03514   0.04346   0.05660   0.06187
 Alpha virt. eigenvalues --    0.07125   0.07624   0.08444   0.09831   0.10685

  Beta  occ. eigenvalues --  -19.68070 -19.64821 -19.63003 -10.70567 -10.60340
  Beta  occ. eigenvalues --  -10.58949 -10.58039 -10.53371  -1.25615  -1.16352
  Beta  occ. eigenvalues --   -1.06102  -0.90407  -0.86972  -0.77856  -0.70395
  Beta  occ. eigenvalues --   -0.64332  -0.61564  -0.58461  -0.56747  -0.53204
  Beta  occ. eigenvalues --   -0.51592  -0.48993  -0.46576  -0.45123  -0.41712
  Beta  occ. eigenvalues --   -0.39492  -0.39199  -0.38409  -0.37987  -0.35928
  Beta virt. eigenvalues --   -0.09634  -0.00202   0.00370   0.00628   0.01768
  Beta virt. eigenvalues --    0.02645   0.02821   0.03530   0.04418   0.05729
  Beta virt. eigenvalues --    0.06168   0.07225   0.07566   0.08490   0.09913

 Mulliken charges and spin densities:
               1          2
     1  C   -0.827985   0.341175
     2  H    0.193416  -0.014676
     3  C    0.996254  -0.149425
     4  C   -0.441581   0.038465
     5  O   -0.200379  -0.009171
     6  O    0.057758   0.000607
     7  C   -0.276507  -0.000827
     8  C   -0.415602   0.003069
     9  H    0.194958   0.000137
    10  H    0.188337  -0.000017
    11  H    0.169452   0.000071
    12  H    0.172112  -0.000401
    13  H    0.189022  -0.001216
    14  O   -0.233197   0.811051
    15  H    0.233943  -0.018842
 Sum of Mulliken charges =  -0.00000   1.00000

 Dipole moment (field-independent basis, Debye):
    X=             -0.6686    Y=             -0.0776    Z=             -0.7015  Tot=              0.9722
 Quadrupole moment (field-independent basis, Debye-Ang):
   XX=            -30.0028   YY=            -48.9588   ZZ=            -51.1588
   XY=              0.1306   XZ=             -1.7061   YZ=              5.0948

  Exact polarizability:  91.326   7.222  72.177   4.647   2.803  59.583
 Approx polarizability:  98.447   7.561  76.100   7.552  -0.483  76.843

 ******    1 imaginary frequencies (negative Signs) ******

                      1                      2                      3
                      A                      A                      A
 Frequencies --   -393.8768                19.7995                51.1130
 Red. masses --     11.9101                 4.7818                 3.8507
 Frc consts  --      1.0886                 0.0011                 0.0059
 IR Inten    --     51.5060                 6.6374                 1.6899

                      4                      5                      6
                      A                      A                      A
 Frequencies --    116.1859               146.9403               162.4156
 Red. masses --      3.6056                 5.3185                 2.6053
 Frc consts  --      0.0287                 0.0677                 0.0405
 IR Inten    --      1.5594                15.1148                 7.7491

                      7                      8                      9
                      A                      A                      A
 Frequencies --    212.1546               227.8300               259.5841
 Red. masses --      1.5729                 1.4486                 1.9023
 Frc consts  --      0.0417                 0.0443                 0.0755
 IR Inten    --     33.9818                 3.8072                31.1120

                     10                     11                     12
                      A                      A                      A
 Frequencies --    335.9486               428.6410               560.2748
 Red. masses --      2.9145                 3.7411                 3.8137
 Frc consts  --      0.1938                 0.4050                 0.7053
 IR Inten    --      9.7774                 3.6238                 6.2951

                     13                     14                     15
                      A                      A                      A
 Frequencies --    607.3023               698.5354               706.5599
 Red. masses --      6.5043                 1.1261                 1.3173
 Frc consts  --      1.4134                 0.3237                 0.3875
 IR Inten    --     12.6878                81.1424                21.2968

                     16                     17                     18
                      A                      A                      A
 Frequencies --    735.8094               771.0982               803.0260
 Red. masses --      1.3250                 8.0058                 1.2053
 Frc consts  --      0.4227                 2.8046                 0.4579
 IR Inten    --     25.0317                63.0320                 5.0797

                     19                     20                     21
                      A                      A                      A
 Frequencies --    897.3063               928.2831              1074.7667
 Red. masses --      3.2439                 2.7451                 4.1258
 Frc consts  --      1.5389                 1.3937                 2.8079
 IR Inten    --     16.1287                 6.3529                24.3412

                     22                     23                     24
                      A                      A                      A
 Frequencies --   1129.5994              1204.3311              1289.4627
 Red. masses --      2.0899                 1.7715                 3.6926
 Frc consts  --      1.5712                 1.5139                 3.6174
 IR Inten    --     22.4352                 6.1490               534.5250

                     25                     26                     27
                      A                      A                      A
 Frequencies --   1345.8888              1402.0708              1431.1344
 Red. masses --      1.2520                 1.2845                 1.3807
 Frc consts  --      1.3362                 1.4878                 1.6661
 IR Inten    --     97.8609                26.4447                13.4830

                     28                     29                     30
                      A                      A                      A
 Frequencies --   1491.2563              1502.3906              1515.0555
 Red. masses --      1.0400                 1.0545                 1.0935
 Frc consts  --      1.3627                 1.4024                 1.4788
 IR Inten    --     10.9303                 1.1937                21.3901

                     31                     32                     33
                      A                      A                      A
 Frequencies --   1845.7265              2173.9547              3075.9772
 Red. masses --     11.9891                 6.1250                 1.0353
 Frc consts  --     24.0641                17.0553                 5.7712
 IR Inten    --    344.6826                87.1435                 9.2331

                     34                     35                     36
                      A                      A                      A
 Frequencies --   3107.9826              3152.9339              3154.4013
 Red. masses --      1.0608                 1.1018                 1.1046
 Frc consts  --      6.0370                 6.4532                 6.4756
 IR Inten    --     19.7813                13.8501                 3.1588

                     37                     38                     39
                      A                      A                      A
 Frequencies --   3175.4996              3480.6939              3811.1905
 Red. masses --      1.1074                 1.1568                 1.0674
 Frc consts  --      6.5793                 8.2570                 9.1349
 IR Inten    --     14.7092                69.2638                45.2586

 - Thermochemistry -
 -------------------
 Temperature   298.150 Kelvin.  Pressure   1.00000 Atm.
 Atom     1 has atomic number  6 and mass  12.00000

 Molecular mass:   115.03952 amu.
 Principal axes and moments of inertia in atomic units:
                           1         2         3
     Eigenvalues --   503.282101378.837811521.39602
           X            0.99994   0.01100  -0.00070
           Y           -0.01091   0.99697   0.07706
           Z            0.00154  -0.07704   0.99703
 This molecule is an asymmetric top.
 Rotational symmetry number  1.
 Warning -- assumption of classical behavior for rotation
           may cause significant error
 Rotational temperatures (Kelvin)      0.17210     0.06282     0.05693
 Rotational constants (GHZ):           3.58594     1.30889     1.18624
    1 imaginary frequencies ignored.
 Zero-point vibrational energy     293283.2 (Joules/Mol)
                                   70.09637 (Kcal/Mol)
 Warning -- explicit consideration of  12 degrees of freedom as
           vibrations may cause significant error
 Vibrational temperatures:     28.49    73.54   167.17   211.41   233.68
          (Kelvin)            305.24   327.80   373.48   483.36   616.72
                              806.11   873.77  1005.04  1016.58  1058.67
                             1109.44  1155.38  1291.02  1335.59  1546.35
                             1625.24  1732.76  1855.25  1936.43  2017.27
                             2059.08  2145.59  2161.60  2179.83  2655.59
                             3127.84  4425.65  4471.69  4536.37  4538.48
                             4568.84  5007.94  5483.45

 Zero-point correction=                           0.111706 (Hartree/Particle)
 Thermal correction to Energy=                    0.121485
 Thermal correction to Enthalpy=                  0.122429
 Thermal correction to Gibbs Free Energy=         0.074779
 Sum of electronic and zero-point Energies=           -420.091142
 Sum of electronic and thermal Energies=              -420.081363
 Sum of electronic and thermal Enthalpies=            -420.080419
 Sum of electronic and thermal Free Energies=         -420.128069

                     E (Thermal)             CV                S
                      KCal/Mol        Cal/Mol-Kelvin    Cal/Mol-Kelvin
 Total                   76.233             32.381            100.288
 Electronic               0.000              0.000              1.377
 Translational            0.889              2.981             40.136
 Rotational               0.889              2.981             28.447
 Vibrational             74.455             26.420             30.328
 Vibration     1          0.593              1.986              6.654
 Vibration     2          0.595              1.977              4.774
 Vibration     3          0.608              1.936              3.163
 Vibration     4          0.617              1.906              2.711
 Vibration     5          0.623              1.889              2.521
 Vibration     6          0.643              1.822              2.025
 Vibration     7          0.651              1.799              1.896
 Vibration     8          0.668              1.747              1.665
 Vibration     9          0.717              1.604              1.231
 Vibration    10          0.790              1.408              0.863
 Vibration    11          0.916              1.117              0.523
 Vibration    12          0.966              1.016              0.437

 1\1\GINC-AJ\Freq\UM062X\6-311++G(d,p)\C5H7O3(2)\AAYUSH\23-Jun-2025\0\\
 # freq 6-311++g(d,p) m062x\\Title Card Required\\0,2\C,-2.785103,-0.49
 1095,-0.44085\H,-3.812034,-0.560834,-0.71531\C,-1.622996,-0.337178,-0.
 143729\C,-0.22221,-0.565419,0.231522\O,0.111022,-0.907014,1.33063\O,0.
 580768,-0.365723,-0.804841\C,1.994954,-0.45115,-0.533722\C,2.484621,0.
 820172,0.130438\H,2.444009,-0.595549,-1.514566\H,2.181622,-1.328773,0.
 086166\H,3.566538,0.769839,0.267621\H,2.249283,1.685747,-0.490019\H,2.
 017149,0.946549,1.107309\O,-1.405172,1.700769,0.095559\H,-2.03511,1.80

 Normal termination of Gaussian 16 at Mon Jun 23 05:31:05 2025.
