 Gaussian 16, Revision A.03,
 Gaussian 16:  ES64L-G16RevA.03 25-Dec-2016

 --------------------------
 # freq 6-311++g(d,p) m062x
 --------------------------

 -------------------
 Title Card Required
 -------------------
 Symbolic Z-matrix:
 Charge =  0 Multiplicity = 2

                         Standard orientation:
 ---------------------------------------------------------------------
 Center     Atomic      Atomic             Coordinates (Angstroms)
 Number     Number       Type             X           Y           Z
 ---------------------------------------------------------------------
      1          6           0       -2.793005   -0.492677   -0.435519
      2          1           0       -3.822958   -0.532047   -0.703792
      3          6           0       -1.626917   -0.416411   -0.149076
      4          6           0       -0.224168   -0.576029    0.235667
      5          8           0        0.115122   -0.887969    1.342587
      6          8           0        0.579486   -0.374696   -0.801009
      7          6           0        1.993401   -0.457664   -0.530002
      8          6           0        2.486358    0.819584    0.119701
      9          1           0        2.441698   -0.613715   -1.509486
     10          1           0        2.179450   -1.328536    0.099667
     11          1           0        3.568428    0.769096    0.255700
     12          1           0        2.251836    1.678811   -0.509903
     13          1           0        2.020447    0.956992    1.095744
     14          8           0       -1.397316    1.759783    0.084726
     15          1           0       -2.031249    1.831630    0.817013
 ---------------------------------------------------------------------

 SCF Done:  E(UM062X) =  -420.205730331     A.U. after   24 cycles

 The electronic state is 2-A.
 Alpha  occ. eigenvalues --  -19.68006 -19.67238 -19.62903 -10.70522 -10.60301
 Alpha  occ. eigenvalues --  -10.57992 -10.57641 -10.53353  -1.25517  -1.16214
 Alpha  occ. eigenvalues --   -1.13086  -0.90641  -0.87182  -0.77955  -0.70500
 Alpha  occ. eigenvalues --   -0.64316  -0.61692  -0.58387  -0.57047  -0.54612
 Alpha  occ. eigenvalues --   -0.53242  -0.50463  -0.48604  -0.46172  -0.45027
 Alpha  occ. eigenvalues --   -0.42168  -0.41700  -0.39458  -0.38254  -0.36429
 Alpha  occ. eigenvalues --   -0.35601
 Alpha virt. eigenvalues --   -0.00977  -0.00202   0.00515   0.01473   0.02525
 Alpha virt. eigenvalues --    0.02794   0.03676   0.04411   0.05629   0.06175
 Alpha virt. eigenvalues --    0.07150   0.07679   0.08464   0.09813   0.10750

  Beta  occ. eigenvalues --  -19.68010 -19.65692 -19.62918 -10.70507 -10.60301
  Beta  occ. eigenvalues --  -10.57983 -10.57527 -10.53354  -1.25524  -1.16247
  Beta  occ. eigenvalues --   -1.05894  -0.90316  -0.86894  -0.77822  -0.70367
  Beta  occ. eigenvalues --   -0.64263  -0.61396  -0.58344  -0.56547  -0.53223
  Beta  occ. eigenvalues --   -0.51987  -0.49030  -0.46498  -0.45066  -0.41698
  Beta  occ. eigenvalues --   -0.39418  -0.39028  -0.38363  -0.38069  -0.36049
  Beta virt. eigenvalues --   -0.09076  -0.00379   0.00030   0.00560   0.01768
  Beta virt. eigenvalues --    0.02633   0.02824   0.03702   0.04504   0.05700
  Beta virt. eigenvalues --    0.06195   0.07243   0.07695   0.08491   0.09906

 Mulliken charges and spin densities:
               1          2
     1  C   -1.596292   0.170405
     2  H    0.179964  -0.009461
     3  C    1.580392  -0.087322
     4  C   -0.270180   0.057674
     5  O   -0.198179  -0.007052
     6  O    0.061172   0.000281
     7  C   -0.267639  -0.000013
     8  C   -0.416469   0.000792
     9  H    0.194961   0.000126
    10  H    0.189421  -0.000002
    11  H    0.170300   0.000060
    12  H    0.170845  -0.000150
    13  H    0.189150  -0.000761
    14  O   -0.222439   0.895503
    15  H    0.234991  -0.020080
 Sum of Mulliken charges =  -0.00000   1.00000

 Dipole moment (field-independent basis, Debye):
    X=             -0.6359    Y=              0.1859    Z=             -0.6261  Tot=              0.9115
 Quadrupole moment (field-independent basis, Debye-Ang):
   XX=            -30.3071   YY=            -48.5816   ZZ=            -51.2875
   XY=             -0.5326   XZ=             -1.9085   YZ=              5.1031

  Exact polarizability:  91.547   5.245  65.714   4.340   1.216  59.327
 Approx polarizability:  99.201   4.534  70.249   7.404  -1.810  76.673

 ******    1 imaginary frequencies (negative Signs) ******

                      1                      2                      3
                      A                      A                      A
 Frequencies --    -28.6013                34.5145               112.5716
 Red. masses --      4.8141                 4.1940                 3.8339
 Frc consts  --      0.0023                 0.0029                 0.0286
 IR Inten    --      7.3423                 2.3906                 1.2610

                      4                      5                      6
                      A                      A                      A
 Frequencies --    124.5649               158.7386               171.9467
 Red. masses --      4.6371                 2.7015                 9.4930
 Frc consts  --      0.0424                 0.0401                 0.1654
 IR Inten    --     11.4032                11.0763                 6.1462

                      7                      8                      9
                      A                      A                      A
 Frequencies --    207.0471               225.7769               257.4720
 Red. masses --      1.4936                 1.3653                 2.1955
 Frc consts  --      0.0377                 0.0410                 0.0858
 IR Inten    --     42.9495                 2.8352                28.1455

                     10                     11                     12
                      A                      A                      A
 Frequencies --    336.9325               427.0518               555.9313
 Red. masses --      2.9255                 3.7848                 2.6390
 Frc consts  --      0.1957                 0.4067                 0.4806
 IR Inten    --      9.9633                 3.7826                23.2300

                     13                     14                     15
                      A                      A                      A
 Frequencies --    592.5356               609.7778               725.0609
 Red. masses --      1.3354                 5.3635                 1.3270
 Frc consts  --      0.2762                 1.1750                 0.4110
 IR Inten    --     75.8868                 8.8140                37.1498

                     16                     17                     18
                      A                      A                      A
 Frequencies --    750.5847               777.4117               803.0000
 Red. masses --      1.3299                 7.4167                 1.2103
 Frc consts  --      0.4414                 2.6410                 0.4598
 IR Inten    --     21.1392                54.6490                 5.4346

                     19                     20                     21
                      A                      A                      A
 Frequencies --    897.6670               929.4131              1076.7959
 Red. masses --      3.2268                 2.7608                 4.1304
 Frc consts  --      1.5320                 1.4051                 2.8217
 IR Inten    --     15.7081                 5.6334                22.2699

                     22                     23                     24
                      A                      A                      A
 Frequencies --   1129.8647              1204.5754              1292.7963
 Red. masses --      2.0928                 1.7708                 3.5852
 Frc consts  --      1.5741                 1.5139                 3.5304
 IR Inten    --     22.5399                 5.3417               539.1733

                     25                     26                     27
                      A                      A                      A
 Frequencies --   1347.1832              1402.1241              1431.6880
 Red. masses --      1.2603                 1.2855                 1.3864
 Frc consts  --      1.3476                 1.4890                 1.6744
 IR Inten    --    105.8669                29.3809                12.1959

                     28                     29                     30
                      A                      A                      A
 Frequencies --   1490.9928              1502.5008              1515.0741
 Red. masses --      1.0401                 1.0556                 1.0928
 Frc consts  --      1.3623                 1.4040                 1.4780
 IR Inten    --     10.8228                 1.0246                21.1933

                     31                     32                     33
                      A                      A                      A
 Frequencies --   1842.8002              2228.3271              3075.7082
 Red. masses --     11.9971                 5.9028                 1.0353
 Frc consts  --     24.0039                17.2689                 5.7703
 IR Inten    --    337.4164                65.5603                 9.8309

                     34                     35                     36
                      A                      A                      A
 Frequencies --   3106.7239              3152.1340              3154.2207
 Red. masses --      1.0607                 1.1021                 1.1044
 Frc consts  --      6.0319                 6.4519                 6.4735
 IR Inten    --     19.9089                12.7141                 4.5905

                     37                     38                     39
                      A                      A                      A
 Frequencies --   3174.7479              3486.1631              3802.4313
 Red. masses --      1.1072                 1.1647                 1.0673
 Frc consts  --      6.5752                 8.3396                 9.0919
 IR Inten    --     14.9686                68.3972                38.3560

 - Thermochemistry -
 -------------------
 Temperature   298.150 Kelvin.  Pressure   1.00000 Atm.
 Atom     1 has atomic number  6 and mass  12.00000

 Molecular mass:   115.03952 amu.
 Principal axes and moments of inertia in atomic units:
                           1         2         3
     Eigenvalues --   517.833391381.346101536.60886
           X            0.99994   0.01046  -0.00108
           Y           -0.01036   0.99753   0.06943
           Z            0.00181  -0.06941   0.99759
 This molecule is an asymmetric top.
 Rotational symmetry number  1.
 Warning -- assumption of classical behavior for rotation
           may cause significant error
 Rotational temperatures (Kelvin)      0.16726     0.06270     0.05637
 Rotational constants (GHZ):           3.48518     1.30651     1.17450
    1 imaginary frequencies ignored.
 Zero-point vibrational energy     293772.0 (Joules/Mol)
                                   70.21320 (Kcal/Mol)
 Warning -- explicit consideration of  13 degrees of freedom as
           vibrations may cause significant error
 Vibrational temperatures:     49.66   161.97   179.22   228.39   247.39
          (Kelvin)            297.89   324.84   370.44   484.77   614.43
                              799.86   852.53   877.33  1043.20  1079.92
                             1118.52  1155.34  1291.54  1337.22  1549.27
                             1625.62  1733.12  1860.05  1938.30  2017.34
                             2059.88  2145.21  2161.76  2179.85  2651.38
                             3206.07  4425.26  4469.88  4535.22  4538.22
                             4567.75  5015.81  5470.85

 Zero-point correction=                           0.111892 (Hartree/Particle)
 Thermal correction to Energy=                    0.121517
 Thermal correction to Enthalpy=                  0.122461
 Thermal correction to Gibbs Free Energy=         0.076146
 Sum of electronic and zero-point Energies=           -420.093838
 Sum of electronic and thermal Energies=              -420.084214
 Sum of electronic and thermal Enthalpies=            -420.083269
 Sum of electronic and thermal Free Energies=         -420.129585

                     E (Thermal)             CV                S
                      KCal/Mol        Cal/Mol-Kelvin    Cal/Mol-Kelvin
 Total                   76.253             32.464             97.479
 Electronic               0.000              0.000              1.377
 Translational            0.889              2.981             40.136
 Rotational               0.889              2.981             28.488
 Vibrational             74.475             26.502             27.478
 Vibration     1          0.594              1.983              5.551
 Vibration     2          0.607              1.939              3.224
 Vibration     3          0.610              1.928              3.028
 Vibration     4          0.621              1.893              2.565
 Vibration     5          0.626              1.877              2.414
 Vibration     6          0.641              1.830              2.070
 Vibration     7          0.650              1.802              1.912
 Vibration     8          0.667              1.750              1.679
 Vibration     9          0.718              1.602              1.227
 Vibration    10          0.789              1.411              0.868
 Vibration    11          0.911              1.127              0.532
 Vibration    12          0.950              1.048              0.463
 Vibration    13          0.969              1.011              0.433

 1\1\GINC-AJ\Freq\UM062X\6-311++G(d,p)\C5H7O3(2)\AAYUSH\23-Jun-2025\0\\
 # freq 6-311++g(d,p) m062x\\Title Card Required\\0,2\C,-2.793005,-0.49
 2677,-0.435519\H,-3.822958,-0.532047,-0.703792\C,-1.626917,-0.416411,-
 0.149076\C,-0.224168,-0.576029,0.235667\O,0.115122,-0.887969,1.342587\
 O,0.579486,-0.374696,-0.801009\C,1.993401,-0.457664,-0.530002\C,2.4863
 58,0.819584,0.119701\H,2.441698,-0.613715,-1.509486\H,2.17945,-1.32853
 6,0.099667\H,3.568428,0.769095,0.2557\H,2.251836,1.678811,-0.509903\H,
 2.020447,0.956992,1.095744\O,-1.397316,1.759783,0.084726\H,-2.031249,1

 Normal termination of Gaussian 16 at Mon Jun 23 05:38:27 2025.
