 Gaussian 16, Revision A.03,
 Gaussian 16:  ES64L-G16RevA.03 25-Dec-2016

 --------------------------
 # ccsd(t)/6-311++g(d,p) sp
 --------------------------

 -------------------
 Title Card Required
 -------------------
 Symbolic Z-matrix:
 Charge =  0 Multiplicity = 2

                         Standard orientation:
 ---------------------------------------------------------------------
 Center     Atomic      Atomic             Coordinates (Angstroms)
 Number     Number       Type             X           Y           Z
 ---------------------------------------------------------------------
      1          6           0       -2.794992   -0.493678   -0.434176
      2          1           0       -3.825674   -0.523715   -0.700845
      3          6           0       -1.628059   -0.435253   -0.150143
      4          6           0       -0.224739   -0.579867    0.236647
      5          8           0        0.116252   -0.882804    1.345713
      6          8           0        0.578887   -0.377441   -0.800023
      7          6           0        1.992883   -0.459273   -0.529057
      8          6           0        2.486813    0.819447    0.116864
      9          1           0        2.440898   -0.618310   -1.508205
     10          1           0        2.178921   -1.328360    0.103112
     11          1           0        3.568942    0.768653    0.252349
     12          1           0        2.252548    1.677085   -0.515006
     13          1           0        2.021491    0.959783    1.092740
     14          8           0       -1.395096    1.775147    0.081784
     15          1           0       -2.028911    1.837390    0.815253
 ---------------------------------------------------------------------

 SCF Done:  E(UHF) =  -417.988958264     A.U. after   40 cycles
 E2 =    -0.1260391567D+01 EUMP2 =    -0.41924934983121D+03
 CCSD(T)= -0.41935640482D+03

 The electronic state is 2-A.
 Alpha  occ. eigenvalues --  -20.63049 -20.61005 -20.55599 -11.41440 -11.29432
 Alpha  occ. eigenvalues --  -11.26717 -11.25809 -11.22181  -1.48019  -1.38684
 Alpha  occ. eigenvalues --   -1.37710  -1.07721  -1.04033  -0.92467  -0.83628
 Alpha  occ. eigenvalues --   -0.76267  -0.73014  -0.69288  -0.68632  -0.66799
 Alpha  occ. eigenvalues --   -0.64799  -0.62896  -0.57937  -0.56133  -0.53850
 Alpha  occ. eigenvalues --   -0.53478  -0.50212  -0.47758  -0.45952  -0.42796
 Alpha  occ. eigenvalues --   -0.42221
 Alpha virt. eigenvalues --    0.03688   0.04599   0.05629   0.06813   0.06996
 Alpha virt. eigenvalues --    0.08779   0.09564   0.09982   0.10870   0.11438
 Alpha virt. eigenvalues --    0.13340   0.13870   0.14726   0.15554   0.16811

  Beta  occ. eigenvalues --  -20.61011 -20.58984 -20.55908 -11.41203 -11.29432
  Beta  occ. eigenvalues --  -11.26940 -11.25376 -11.22182  -1.48147  -1.38206
  Beta  occ. eigenvalues --   -1.23548  -1.07767  -1.03543  -0.91895  -0.83387
  Beta  occ. eigenvalues --   -0.76170  -0.72383  -0.69517  -0.66892  -0.63270
  Beta  occ. eigenvalues --   -0.62951  -0.58212  -0.55302  -0.53869  -0.50352
  Beta  occ. eigenvalues --   -0.50265  -0.48337  -0.46811  -0.43086  -0.42289
  Beta virt. eigenvalues --    0.03741   0.04510   0.04941   0.06694   0.06995
  Beta virt. eigenvalues --    0.08516   0.08933   0.09763   0.10556   0.11101
  Beta virt. eigenvalues --    0.12051   0.13490   0.14247   0.15040   0.15809

 Mulliken charges and spin densities:
               1          2
     1  C   -2.258373   0.564136
     2  H    0.192379  -0.046055
     3  C    2.208807  -0.593615
     4  C   -0.190155   0.192869
     5  O   -0.274203  -0.063235
     6  O   -0.020325   0.001477
     7  C   -0.149335   0.003166
     8  C   -0.384017   0.000003
     9  H    0.166953   0.000139
    10  H    0.173663  -0.000014
    11  H    0.140548  -0.000025
    12  H    0.148166  -0.000428
    13  H    0.180014   0.000327
    14  O   -0.170383   0.978811
    15  H    0.236262  -0.037556
 Sum of Mulliken charges =  -0.00000   1.00000

 Dipole moment (field-independent basis, Debye):
    X=             -0.7613    Y=              0.6701    Z=             -0.6470  Tot=              1.2030
 Quadrupole moment (field-independent basis, Debye-Ang):
   XX=            -30.4160   YY=            -48.0053   ZZ=            -51.8508
   XY=             -1.5553   XZ=             -2.1813   YZ=              5.4569

 PMP3-0=-419.2833026\MP4SDQ=-419.3022599\CCSD=-419.3035796\CCSD(T)=-419
 Normal termination of Gaussian 16 at Tue Aug  5 05:43:19 2025.
