 Gaussian 16, Revision A.03,
 Gaussian 16:  ES64L-G16RevA.03 25-Dec-2016

 --------------------------
 # ccsd(t)/6-311++g(d,p) sp
 --------------------------

 -------------------
 Title Card Required
 -------------------
 Symbolic Z-matrix:
 Charge =  0 Multiplicity = 2

                         Standard orientation:
 ---------------------------------------------------------------------
 Center     Atomic      Atomic             Coordinates (Angstroms)
 Number     Number       Type             X           Y           Z
 ---------------------------------------------------------------------
      1          6           0       -2.788932   -0.491430   -0.438172
      2          1           0       -3.817325   -0.547621   -0.709633
      3          6           0       -1.624831   -0.377491   -0.146622
      4          6           0       -0.223159   -0.569765    0.233677
      5          8           0        0.112942   -0.897766    1.336526
      6          8           0        0.580327   -0.369954   -0.802940
      7          6           0        1.994260   -0.454440   -0.531842
      8          6           0        2.485441    0.819897    0.125169
      9          1           0        2.443027   -0.604622   -1.511992
     10          1           0        2.180572   -1.328723    0.092926
     11          1           0        3.567420    0.769681    0.261916
     12          1           0        2.250485    1.682281   -0.499911
     13          1           0        2.018621    0.951693    1.101602
     14          8           0       -1.401448    1.729829    0.090240
     15          1           0       -2.034047    1.819809    0.821218
 ---------------------------------------------------------------------

 SCF Done:  E(UHF) =  -417.984799911     A.U. after   39 cycles
 E2 =    -0.1258777086D+01 EUMP2 =    -0.41924357699741D+03
 CCSD(T)= -0.41935470600D+03

 The electronic state is 2-A.
 Alpha  occ. eigenvalues --  -20.62811 -20.60967 -20.55526 -11.41380 -11.29419
 Alpha  occ. eigenvalues --  -11.26786 -11.25892 -11.22188  -1.47997  -1.38544
 Alpha  occ. eigenvalues --   -1.37659  -1.07777  -1.04100  -0.92508  -0.83612
 Alpha  occ. eigenvalues --   -0.76272  -0.73037  -0.69261  -0.68769  -0.66511
 Alpha  occ. eigenvalues --   -0.64690  -0.62814  -0.57835  -0.56032  -0.53832
 Alpha  occ. eigenvalues --   -0.53314  -0.50189  -0.47690  -0.45829  -0.42910
 Alpha  occ. eigenvalues --   -0.42217
 Alpha virt. eigenvalues --    0.03701   0.04605   0.05628   0.06819   0.07003
 Alpha virt. eigenvalues --    0.08760   0.09600   0.10207   0.10974   0.11546
 Alpha virt. eigenvalues --    0.13357   0.13885   0.14756   0.15585   0.16806

  Beta  occ. eigenvalues --  -20.60973 -20.58825 -20.55885 -11.41090 -11.29420
  Beta  occ. eigenvalues --  -11.27321 -11.25110 -11.22190  -1.48143  -1.38238
  Beta  occ. eigenvalues --   -1.23936  -1.07788  -1.03492  -0.91772  -0.83250
  Beta  occ. eigenvalues --   -0.76137  -0.72223  -0.69510  -0.67120  -0.63247
  Beta  occ. eigenvalues --   -0.62902  -0.58164  -0.55406  -0.53885  -0.50283
  Beta  occ. eigenvalues --   -0.50243  -0.48376  -0.46865  -0.43432  -0.42286
  Beta virt. eigenvalues --    0.03760   0.04507   0.04859   0.06677   0.07003
  Beta virt. eigenvalues --    0.08328   0.08909   0.09754   0.10721   0.11382
  Beta virt. eigenvalues --    0.12072   0.13528   0.14344   0.15225   0.15836

 Mulliken charges and spin densities:
               1          2
     1  C   -1.626084   0.775852
     2  H    0.201501  -0.059513
     3  C    1.642583  -0.757265
     4  C   -0.256473   0.196510
     5  O   -0.276539  -0.073715
     6  O   -0.024713   0.001801
     7  C   -0.153597   0.002274
     8  C   -0.386696   0.000819
     9  H    0.166318   0.000084
    10  H    0.172896   0.000157
    11  H    0.139977  -0.000112
    12  H    0.148931  -0.000500
    13  H    0.179208  -0.000073
    14  O   -0.166652   0.949752
    15  H    0.239341  -0.036069
 Sum of Mulliken charges =  -0.00000   1.00000

 Dipole moment (field-independent basis, Debye):
    X=             -0.7669    Y=              0.6325    Z=             -0.6731  Tot=              1.2005
 Quadrupole moment (field-independent basis, Debye-Ang):
   XX=            -30.4382   YY=            -48.0038   ZZ=            -51.7610
   XY=             -1.3151   XZ=             -2.1251   YZ=              5.4847

 -0=-419.2812109\MP4SDQ=-419.2981994\CCSD=-419.3013761\CCSD(T)=-419.354
 Normal termination of Gaussian 16 at Tue Aug  5 04:55:24 2025.
