 Gaussian 16, Revision A.03,
 Gaussian 16:  ES64L-G16RevA.03 25-Dec-2016

 -------------------
 # freq 6-31+g m062x
 -------------------

 -------------------
 Title Card Required
 -------------------
 Symbolic Z-matrix:
 Charge =  0 Multiplicity = 2

                         Standard orientation:
 ---------------------------------------------------------------------
 Center     Atomic      Atomic             Coordinates (Angstroms)
 Number     Number       Type             X           Y           Z
 ---------------------------------------------------------------------
      1          6           0       -2.778498   -0.494791   -0.448350
      2          1           0       -3.803508   -0.577996   -0.728170
      3          6           0       -1.618417   -0.231785   -0.134092
      4          6           0       -0.220473   -0.562235    0.224807
      5          8           0        0.107861   -0.928697    1.316238
      6          8           0        0.581111   -0.355395   -0.809624
      7          6           0        1.996226   -0.442560   -0.538943
      8          6           0        2.483173    0.820392    0.143165
      9          1           0        2.445562   -0.572544   -1.521586
     10          1           0        2.183549   -1.328634    0.068466
     11          1           0        3.565019    0.768826    0.280529
     12          1           0        2.246968    1.694179   -0.465150
     13          1           0        2.014696    0.933235    1.121215
     14          8           0       -1.412699    1.631881    0.109130
     15          1           0       -2.034540    1.766497    0.839224
 ---------------------------------------------------------------------

 SCF Done:  E(UM062X) =  -419.954160691     A.U. after   22 cycles

 The electronic state is 2-A.
 Alpha  occ. eigenvalues --  -19.70571 -19.67410 -19.66410 -10.73102 -10.62916
 Alpha  occ. eigenvalues --  -10.61404 -10.60989 -10.54164  -1.28197  -1.18849
 Alpha  occ. eigenvalues --   -1.12306  -0.92258  -0.88358  -0.78717  -0.71503
 Alpha  occ. eigenvalues --   -0.64803  -0.62953  -0.59017  -0.57515  -0.53739
 Alpha  occ. eigenvalues --   -0.53245  -0.49919  -0.48229  -0.46296  -0.45113
 Alpha  occ. eigenvalues --   -0.41803  -0.40516  -0.39714  -0.38162  -0.36969
 Alpha  occ. eigenvalues --   -0.32720
 Alpha virt. eigenvalues --   -0.00535   0.01745   0.02352   0.03033   0.03732
 Alpha virt. eigenvalues --    0.04306   0.05583   0.05926   0.07701   0.07798
 Alpha virt. eigenvalues --    0.08871   0.08915   0.09917   0.11641   0.12111

  Beta  occ. eigenvalues --  -19.70571 -19.66432 -19.66245 -10.73051 -10.63054
  Beta  occ. eigenvalues --  -10.61403 -10.60570 -10.54165  -1.28189  -1.18874
  Beta  occ. eigenvalues --   -1.08238  -0.91351  -0.87803  -0.78374  -0.71074
  Beta  occ. eigenvalues --   -0.64618  -0.62203  -0.58817  -0.57251  -0.53688
  Beta  occ. eigenvalues --   -0.51333  -0.49122  -0.46760  -0.45249  -0.41743
  Beta  occ. eigenvalues --   -0.40776  -0.39517  -0.38296  -0.38047  -0.35582
  Beta virt. eigenvalues --   -0.10184   0.00781   0.01729   0.02361   0.03031
  Beta virt. eigenvalues --    0.03804   0.04403   0.05579   0.05865   0.07696
  Beta virt. eigenvalues --    0.07754   0.08813   0.08928   0.10088   0.11592

 Mulliken charges and spin densities:
               1          2
     1  C    0.416589   0.685093
     2  H    0.307228  -0.024938
     3  C   -0.425971  -0.292181
     4  C   -0.022318   0.061832
     5  O   -0.344649  -0.010239
     6  O   -0.166150  -0.000074
     7  C   -0.260266   0.000082
     8  C   -0.554122   0.001030
     9  H    0.221370  -0.000013
    10  H    0.234623  -0.000163
    11  H    0.204568  -0.000081
    12  H    0.230329  -0.000017
    13  H    0.235518   0.000034
    14  O   -0.484933   0.599300
    15  H    0.408185  -0.019664
 Sum of Mulliken charges =  -0.00000   1.00000

 Dipole moment (field-independent basis, Debye):
    X=             -0.8524    Y=             -0.5851    Z=             -0.5743  Tot=              1.1827
 Quadrupole moment (field-independent basis, Debye-Ang):
   XX=            -29.0748   YY=            -50.2013   ZZ=            -52.1612
   XY=              0.7459   XZ=             -1.8337   YZ=              5.5816

  Exact polarizability:  86.013   7.745  69.766   3.945   2.506  57.145
 Approx polarizability:  89.479  10.845  74.145   7.251  -0.471  71.663

 ******    4 imaginary frequencies (negative Signs) ******

                      1                      2                      3
                      A                      A                      A
 Frequencies --   -703.2123              -459.1350               -80.8497
 Red. masses --     12.8096                 1.0777                 7.2165
 Frc consts  --      3.7321                 0.1338                 0.0278
 IR Inten    --     17.8534               112.7611                 6.8840

                      4                      5                      6
                      A                      A                      A
 Frequencies --    -14.9125                27.2012               118.0795
 Red. masses --      2.8913                 3.2108                 2.6771
 Frc consts  --      0.0004                 0.0014                 0.0220
 IR Inten    --      2.3069                 4.3480                 6.3126

                      7                      8                      9
                      A                      A                      A
 Frequencies --    179.7707               195.5258               254.2814
 Red. masses --      1.4874                 6.0171                 3.7811
 Frc consts  --      0.0283                 0.1355                 0.1440
 IR Inten    --      2.2486                 0.4538                 3.2006

                     10                     11                     12
                      A                      A                      A
 Frequencies --    307.6076               423.5059               542.4358
 Red. masses --      2.9594                 3.5678                 1.4576
 Frc consts  --      0.1650                 0.3770                 0.2527
 IR Inten    --     14.3255                 6.3177                24.0415

                     13                     14                     15
                      A                      A                      A
 Frequencies --    562.3248               613.6728               712.3907
 Red. masses --      2.6578                 6.1129                 8.9685
 Frc consts  --      0.4952                 1.3564                 2.6817
 IR Inten    --     36.5261                13.6816                38.0709

                     16                     17                     18
                      A                      A                      A
 Frequencies --    726.2598               779.2486               816.6219
 Red. masses --      1.2183                 1.3601                 1.3046
 Frc consts  --      0.3786                 0.4866                 0.5126
 IR Inten    --     65.8248                64.0088                 8.4166

                     19                     20                     21
                      A                      A                      A
 Frequencies --    894.9704               940.7355              1105.7536
 Red. masses --      3.2478                 2.4961                 4.2014
 Frc consts  --      1.5327                 1.3015                 3.0266
 IR Inten    --     22.4052                 5.5202                13.1411

                     22                     23                     24
                      A                      A                      A
 Frequencies --   1158.1310              1228.2029              1322.5175
 Red. masses --      2.0584                 1.7454                 2.0884
 Frc consts  --      1.6267                 1.5512                 2.1522
 IR Inten    --     17.7144                 6.5325               319.2188

                     25                     26                     27
                      A                      A                      A
 Frequencies --   1367.7705              1441.1208              1458.7972
 Red. masses --      1.6946                 1.3770                 1.2504
 Frc consts  --      1.8678                 1.6849                 1.5678
 IR Inten    --    244.1280                28.1503                20.1566

                     28                     29                     30
                      A                      A                      A
 Frequencies --   1526.4182              1536.8111              1545.2016
 Red. masses --      1.0411                 1.0535                 1.0904
 Frc consts  --      1.4292                 1.4660                 1.5340
 IR Inten    --     15.2196                 2.6194                26.8595

                     31                     32                     33
                      A                      A                      A
 Frequencies --   1913.0434              2070.8386              3108.7242
 Red. masses --     11.9604                 6.6525                 1.0351
 Frc consts  --     25.7896                16.8085                 5.8937
 IR Inten    --    318.5542                69.5166                11.5834

                     34                     35                     36
                      A                      A                      A
 Frequencies --   3139.4727              3190.4471              3191.1438
 Red. masses --      1.0602                 1.1036                 1.0993
 Frc consts  --      6.1566                 6.6187                 6.5954
 IR Inten    --     21.1220                 0.1778                19.3574

                     37                     38                     39
                      A                      A                      A
 Frequencies --   3212.7929              3506.6129              3846.6665
 Red. masses --      1.1054                 1.1421                 1.0673
 Frc consts  --      6.7225                 8.2743                 9.3052
 IR Inten    --     16.5601                65.6930                26.3219

 - Thermochemistry -
 -------------------
 Temperature   298.150 Kelvin.  Pressure   1.00000 Atm.
 Atom     1 has atomic number  6 and mass  12.00000

 Molecular mass:   115.03952 amu.
 Principal axes and moments of inertia in atomic units:
                           1         2         3
     Eigenvalues --   487.710091376.408131505.39930
           X            0.99993   0.01151  -0.00025
           Y           -0.01145   0.99618   0.08660
           Z            0.00124  -0.08659   0.99624
 This molecule is an asymmetric top.
 Rotational symmetry number  1.
 Warning -- assumption of classical behavior for rotation
           may cause significant error
 Rotational temperatures (Kelvin)      0.17759     0.06293     0.05754
 Rotational constants (GHZ):           3.70044     1.31120     1.19885
    4 imaginary frequencies ignored.
 Zero-point vibrational energy     292876.3 (Joules/Mol)
                                   69.99912 (Kcal/Mol)
 Warning -- explicit consideration of  10 degrees of freedom as
           vibrations may cause significant error
 Vibrational temperatures:     39.14   169.89   258.65   281.32   365.85
          (Kelvin)            442.58   609.33   780.44   809.06   882.94
                             1024.97  1044.93  1121.16  1174.94  1287.66
                             1353.51  1590.93  1666.29  1767.11  1902.81
                             1967.92  2073.45  2098.88  2196.18  2211.13
                             2223.20  2752.44  2979.47  4472.76  4517.00
                             4590.34  4591.34  4622.49  5045.23  5534.50

 Zero-point correction=                           0.111551 (Hartree/Particle)
 Thermal correction to Energy=                    0.119410
 Thermal correction to Enthalpy=                  0.120354
 Thermal correction to Gibbs Free Energy=         0.077334
 Sum of electronic and zero-point Energies=           -419.842610
 Sum of electronic and thermal Energies=              -419.834751
 Sum of electronic and thermal Enthalpies=            -419.833807
 Sum of electronic and thermal Free Energies=         -419.876827

                     E (Thermal)             CV                S
                      KCal/Mol        Cal/Mol-Kelvin    Cal/Mol-Kelvin
 Total                   74.931             26.902             90.543
 Electronic               0.000              0.000              1.377
 Translational            0.889              2.981             40.136
 Rotational               0.889              2.981             28.404
 Vibrational             73.153             20.940             20.626
 Vibration     1          0.593              1.984              6.024
 Vibration     2          0.608              1.934              3.132
 Vibration     3          0.629              1.867              2.331
 Vibration     4          0.636              1.846              2.175
 Vibration     5          0.665              1.756              1.701
 Vibration     6          0.697              1.659              1.375
 Vibration     7          0.786              1.419              0.880
 Vibration     8          0.898              1.156              0.560
 Vibration     9          0.918              1.113              0.519
 Vibration    10          0.973              1.003              0.427

 Normal termination of Gaussian 16 at Fri Jun 20 14:08:13 2025.
