 Gaussian 16, Revision A.03,
 Gaussian 16:  ES64L-G16RevA.03 25-Dec-2016

 --------------------------
 # ccsd(t)/6-311++g(d,p) sp
 --------------------------

 -------------------
 Title Card Required
 -------------------
 Symbolic Z-matrix:
 Charge =  0 Multiplicity = 2

                         Standard orientation:
 ---------------------------------------------------------------------
 Center     Atomic      Atomic             Coordinates (Angstroms)
 Number     Number       Type             X           Y           Z
 ---------------------------------------------------------------------
      1          6           0       -2.796860   -0.494944   -0.432830
      2          1           0       -3.828177   -0.515364   -0.697946
      3          6           0       -1.629236   -0.453632   -0.151083
      4          6           0       -0.225366   -0.584086    0.237649
      5          8           0        0.117343   -0.877476    1.348904
      6          8           0        0.578169   -0.380542   -0.799023
      7          6           0        1.992298   -0.460900   -0.528072
      8          6           0        2.487220    0.819340    0.113956
      9          1           0        2.440022   -0.622951   -1.506876
     10          1           0        2.178459   -1.328126    0.106648
     11          1           0        3.569418    0.768138    0.248835
     12          1           0        2.253240    1.675370   -0.520199
     13          1           0        2.022587    0.962697    1.089688
     14          8           0       -1.392774    1.790823    0.078663
     15          1           0       -2.025792    1.843112    0.813781
 ---------------------------------------------------------------------

 SCF Done:  E(UHF) =  -417.990133248     A.U. after   38 cycles
 E2 =    -0.1260680618D+01 EUMP2 =    -0.41925081386643D+03
 CCSD(T)= -0.41935671760D+03

 The electronic state is 2-A.
 Alpha  occ. eigenvalues --  -20.63106 -20.61018 -20.55628 -11.41460 -11.29436
 Alpha  occ. eigenvalues --  -11.26712 -11.25820 -11.22177  -1.48029  -1.38707
 Alpha  occ. eigenvalues --   -1.37731  -1.07716  -1.04014  -0.92451  -0.83633
 Alpha  occ. eigenvalues --   -0.76269  -0.73013  -0.69300  -0.68578  -0.66858
 Alpha  occ. eigenvalues --   -0.64825  -0.62920  -0.57968  -0.56150  -0.53855
 Alpha  occ. eigenvalues --   -0.53528  -0.50219  -0.47787  -0.45994  -0.42773
 Alpha  occ. eigenvalues --   -0.42235
 Alpha virt. eigenvalues --    0.03708   0.04610   0.05645   0.06815   0.07002
 Alpha virt. eigenvalues --    0.08798   0.09545   0.09918   0.10859   0.11866
 Alpha virt. eigenvalues --    0.13447   0.13921   0.14746   0.15951   0.16835

  Beta  occ. eigenvalues --  -20.61025 -20.59025 -20.55917 -11.41241 -11.29437
  Beta  occ. eigenvalues --  -11.26860 -11.25473 -11.22178  -1.48150  -1.38196
  Beta  occ. eigenvalues --   -1.23448  -1.07761  -1.03560  -0.91928  -0.83423
  Beta  occ. eigenvalues --   -0.76182  -0.72438  -0.69519  -0.66823  -0.63277
  Beta  occ. eigenvalues --   -0.62965  -0.58222  -0.55268  -0.53861  -0.50372
  Beta  occ. eigenvalues --   -0.50267  -0.48327  -0.46792  -0.43012  -0.42300
  Beta virt. eigenvalues --    0.03755   0.04538   0.04974   0.06700   0.06998
  Beta virt. eigenvalues --    0.08571   0.08957   0.09768   0.10462   0.11189
  Beta virt. eigenvalues --    0.12356   0.13595   0.14259   0.15070   0.16149

 Mulliken charges and spin densities:
               1          2
     1  C   -0.552009   0.593529
     2  H    0.222971  -0.041150
     3  C    1.102250  -0.528791
     4  C   -0.817483   0.084965
     5  O   -0.273225  -0.059177
     6  O   -0.025749   0.001211
     7  C   -0.141445   0.001203
     8  C   -0.382411   0.001736
     9  H    0.167334  -0.000014
    10  H    0.174631  -0.000249
    11  H    0.136840   0.000140
    12  H    0.148589  -0.000634
    13  H    0.180151   0.000410
    14  O   -0.174730   0.985345
    15  H    0.234285  -0.038525
 Sum of Mulliken charges =  -0.00000   1.00000

 Dipole moment (field-independent basis, Debye):
    X=             -0.7625    Y=              0.6679    Z=             -0.6377  Tot=              1.1975
 Quadrupole moment (field-independent basis, Debye-Ang):
   XX=            -30.4079   YY=            -48.0265   ZZ=            -51.8817
   XY=             -1.6200   XZ=             -2.2031   YZ=              5.4476

 PMP3-0=-419.2838015\MP4SDQ=-419.3032473\CCSD=-419.3040535\CCSD(T)=-419
 Normal termination of Gaussian 16 at Fri Aug 29 01:25:54 2025.
