 Gaussian 16, Revision A.03,
 Gaussian 16:  ES64L-G16RevA.03 25-Dec-2016

 --------------------------
 # freq 6-311++g(d,p) m062x
 --------------------------

 -------------------
 Title Card Required
 -------------------
 Symbolic Z-matrix:
 Charge =  0 Multiplicity = 2

                         Standard orientation:
 ---------------------------------------------------------------------
 Center     Atomic      Atomic             Coordinates (Angstroms)
 Number     Number       Type             X           Y           Z
 ---------------------------------------------------------------------
      1          6           0       -2.782149   -0.491969   -0.443720
      2          1           0       -3.808067   -0.569925   -0.720530
      3          6           0       -1.621206   -0.295473   -0.140277
      4          6           0       -0.221357   -0.563325    0.229028
      5          8           0        0.109554   -0.915759    1.324907
      6          8           0        0.580944   -0.361641   -0.806731
      7          6           0        1.995512   -0.447771   -0.535737
      8          6           0        2.483982    0.820327    0.135532
      9          1           0        2.444662   -0.586430   -1.517330
     10          1           0        2.182467   -1.328772    0.079191
     11          1           0        3.565870    0.769561    0.272813
     12          1           0        2.248260    1.689138   -0.480162
     13          1           0        2.016081    0.941343    1.112881
     14          8           0       -1.408364    1.672773    0.100932
     15          1           0       -2.035040    1.791374    0.831319
 ---------------------------------------------------------------------

 SCF Done:  E(UM062X) =  -420.202229003     A.U. after   23 cycles

 The electronic state is 2-A.
 Alpha  occ. eigenvalues --  -19.68129 -19.65581 -19.63074 -10.70658 -10.60375
 Alpha  occ. eigenvalues --  -10.59777 -10.58747 -10.53372  -1.25695  -1.16401
 Alpha  occ. eigenvalues --   -1.11691  -0.91177  -0.87528  -0.78155  -0.70737
 Alpha  occ. eigenvalues --   -0.64530  -0.62245  -0.58611  -0.57292  -0.53569
 Alpha  occ. eigenvalues --   -0.53238  -0.50128  -0.48395  -0.46029  -0.45083
 Alpha  occ. eigenvalues --   -0.41746  -0.40867  -0.39742  -0.38344  -0.36720
 Alpha  occ. eigenvalues --   -0.33928
 Alpha virt. eigenvalues --   -0.00575  -0.00232   0.00491   0.01483   0.02537
 Alpha virt. eigenvalues --    0.02768   0.03341   0.04305   0.05685   0.06165
 Alpha virt. eigenvalues --    0.07089   0.07605   0.08409   0.09847   0.10629

  Beta  occ. eigenvalues --  -19.68133 -19.64233 -19.63094 -10.70628 -10.60374
  Beta  occ. eigenvalues --  -10.59849 -10.58472 -10.53372  -1.25696  -1.16442
  Beta  occ. eigenvalues --   -1.06298  -0.90470  -0.87017  -0.77871  -0.70425
  Beta  occ. eigenvalues --   -0.64400  -0.61705  -0.58545  -0.56876  -0.53204
  Beta  occ. eigenvalues --   -0.51376  -0.48970  -0.46629  -0.45156  -0.41726
  Beta  occ. eigenvalues --   -0.39659  -0.39471  -0.38448  -0.37882  -0.35774
  Beta virt. eigenvalues --   -0.10005  -0.00181   0.00454   0.00788   0.01784
  Beta virt. eigenvalues --    0.02631   0.02808   0.03378   0.04365   0.05743
  Beta virt. eigenvalues --    0.06131   0.07193   0.07513   0.08469   0.09919

 Mulliken charges and spin densities:
               1          2
     1  C   -0.507751   0.478022
     2  H    0.201101  -0.018365
     3  C    0.750317  -0.206152
     4  C   -0.503914   0.035890
     5  O   -0.201433  -0.010139
     6  O    0.055316   0.000739
     7  C   -0.278871  -0.000604
     8  C   -0.415577   0.003635
     9  H    0.195187   0.000194
    10  H    0.188036  -0.000027
    11  H    0.168615   0.000029
    12  H    0.172896  -0.000517
    13  H    0.189030  -0.001321
    14  O   -0.246673   0.735432
    15  H    0.233722  -0.016817
 Sum of Mulliken charges =  -0.00000   1.00000

 Dipole moment (field-independent basis, Debye):
    X=             -0.6997    Y=             -0.2966    Z=             -0.7554  Tot=              1.0715
 Quadrupole moment (field-independent basis, Debye-Ang):
   XX=            -29.7814   YY=            -49.2964   ZZ=            -51.0904
   XY=              0.5596   XZ=             -1.5770   YZ=              5.0612

  Exact polarizability:  91.056   7.963  74.510   4.701   3.387  59.666
 Approx polarizability:  97.627   9.011  79.614   7.501   0.249  76.950

 ******    1 imaginary frequencies (negative Signs) ******

                      1                      2                      3
                      A                      A                      A
 Frequencies --   -577.2886                49.7582                61.4087
 Red. masses --     12.0284                 4.6076                 3.6520
 Frc consts  --      2.3618                 0.0067                 0.0081
 IR Inten    --     73.2278                 6.2785                 1.9513

                      4                      5                      6
                      A                      A                      A
 Frequencies --    117.0035               161.0847               172.1056
 Red. masses --      3.4606                 3.1530                 3.7712
 Frc consts  --      0.0279                 0.0482                 0.0658
 IR Inten    --      1.4779                24.5946                 3.4580

                      7                      8                      9
                      A                      A                      A
 Frequencies --    212.6623               229.8447               264.1237
 Red. masses --      1.4865                 1.4447                 2.2073
 Frc consts  --      0.0396                 0.0450                 0.0907
 IR Inten    --     36.6157                 5.4922                21.2740

                     10                     11                     12
                      A                      A                      A
 Frequencies --    336.2388               430.3357               562.1919
 Red. masses --      2.9486                 3.7095                 3.8976
 Frc consts  --      0.1964                 0.4047                 0.7258
 IR Inten    --      9.9173                 3.8489                 4.2163

                     13                     14                     15
                      A                      A                      A
 Frequencies --    606.8492               671.9961               722.1988
 Red. masses --      6.0201                 1.3387                 1.2956
 Frc consts  --      1.3062                 0.3562                 0.3981
 IR Inten    --     14.8102                27.4958                40.5026

                     16                     17                     18
                      A                      A                      A
 Frequencies --    764.7782               780.5738               802.8367
 Red. masses --      4.1466                 1.3372                 1.2067
 Frc consts  --      1.4289                 0.4800                 0.4582
 IR Inten    --     11.5291               105.0434                 4.9714

                     19                     20                     21
                      A                      A                      A
 Frequencies --    896.8660               926.3426              1073.1777
 Red. masses --      3.2688                 2.7249                 4.1030
 Frc consts  --      1.5491                 1.3776                 2.7842
 IR Inten    --     16.8205                 6.8577                25.7230

                     22                     23                     24
                      A                      A                      A
 Frequencies --   1129.4411              1204.0370              1286.7102
 Red. masses --      2.0861                 1.7716                 3.7908
 Frc consts  --      1.5679                 1.5132                 3.6978
 IR Inten    --     21.9927                 6.9621               533.0124

                     25                     26                     27
                      A                      A                      A
 Frequencies --   1345.3990              1402.1014              1430.9718
 Red. masses --      1.2447                 1.2827                 1.3762
 Frc consts  --      1.3274                 1.4857                 1.6603
 IR Inten    --     91.8800                24.3498                13.7811

                     28                     29                     30
                      A                      A                      A
 Frequencies --   1491.3120              1502.2423              1514.9787
 Red. masses --      1.0400                 1.0541                 1.0936
 Frc consts  --      1.3628                 1.4016                 1.4788
 IR Inten    --     10.9753                 1.2291                21.1869

                     31                     32                     33
                      A                      A                      A
 Frequencies --   1847.0943              2117.9361              3076.2445
 Red. masses --     11.9564                 6.3632                 1.0353
 Frc consts  --     24.0342                16.8170                 5.7723
 IR Inten    --    347.1894                94.6583                 8.9828

                     34                     35                     36
                      A                      A                      A
 Frequencies --   3108.4997              3153.4198              3154.6847
 Red. masses --      1.0608                 1.1015                 1.1049
 Frc consts  --      6.0391                 6.4533                 6.4785
 IR Inten    --     19.7032                14.9793                 1.7782

                     37                     38                     39
                      A                      A                      A
 Frequencies --   3175.9834              3474.5445              3819.3348
 Red. masses --      1.1074                 1.1492                 1.0675
 Frc consts  --      6.5815                 8.1742                 9.1749
 IR Inten    --     14.5187                70.9842                50.5687

 - Thermochemistry -
 -------------------
 Temperature   298.150 Kelvin.  Pressure   1.00000 Atm.
 Atom     1 has atomic number  6 and mass  12.00000

 Molecular mass:   115.03952 amu.
 Principal axes and moments of inertia in atomic units:
                           1         2         3
     Eigenvalues --   496.753941377.793901514.64236
           X            0.99994   0.01123  -0.00052
           Y           -0.01115   0.99666   0.08087
           Z            0.00142  -0.08086   0.99672
 This molecule is an asymmetric top.
 Rotational symmetry number  1.
 Warning -- assumption of classical behavior for rotation
           may cause significant error
 Rotational temperatures (Kelvin)      0.17436     0.06286     0.05718
 Rotational constants (GHZ):           3.63307     1.30988     1.19153
    1 imaginary frequencies ignored.
 Zero-point vibrational energy     293547.5 (Joules/Mol)
                                   70.15954 (Kcal/Mol)
 Warning -- explicit consideration of  12 degrees of freedom as
           vibrations may cause significant error
 Vibrational temperatures:     71.59    88.35   168.34   231.76   247.62
          (Kelvin)            305.97   330.70   380.02   483.77   619.16
                              808.87   873.12   966.85  1039.08  1100.35
                             1123.07  1155.10  1290.39  1332.80  1544.06
                             1625.01  1732.34  1851.29  1935.73  2017.31
                             2058.85  2145.67  2161.39  2179.72  2657.56
                             3047.24  4426.03  4472.44  4537.07  4538.89
                             4569.53  4999.09  5495.17

 Zero-point correction=                           0.111806 (Hartree/Particle)
 Thermal correction to Energy=                    0.121438
 Thermal correction to Enthalpy=                  0.122382
 Thermal correction to Gibbs Free Energy=         0.075960
 Sum of electronic and zero-point Energies=           -420.090423
 Sum of electronic and thermal Energies=              -420.080791
 Sum of electronic and thermal Enthalpies=            -420.079847
 Sum of electronic and thermal Free Energies=         -420.126269

                     E (Thermal)             CV                S
                      KCal/Mol        Cal/Mol-Kelvin    Cal/Mol-Kelvin
 Total                   76.204             32.284             97.704
 Electronic               0.000              0.000              1.377
 Translational            0.889              2.981             40.136
 Rotational               0.889              2.981             28.429
 Vibrational             74.426             26.322             27.762
 Vibration     1          0.595              1.978              4.827
 Vibration     2          0.597              1.973              4.411
 Vibration     3          0.608              1.935              3.149
 Vibration     4          0.622              1.890              2.537
 Vibration     5          0.626              1.877              2.412
 Vibration     6          0.644              1.822              2.021
 Vibration     7          0.652              1.795              1.880
 Vibration     8          0.671              1.739              1.634
 Vibration     9          0.717              1.603              1.230
 Vibration    10          0.792              1.404              0.858
 Vibration    11          0.918              1.113              0.519
 Vibration    12          0.966              1.017              0.438

 Optimization completed.
    -- Stationary point found.

 1\1\GINC-AJ\Freq\UM062X\6-311++G(d,p)\C5H7O3(2)\AAYUSH\16-Aug-2025\0\\
 # freq 6-311++g(d,p) m062x\\Title Card Required\\0,2\C,-2.72513527,-0.
 46861086,-0.4473307\H,-3.75105327,-0.54656686,-0.7241407\C,-1.56419227
 ,-0.27211486,-0.1438877\C,-0.16434327,-0.53996686,0.2254173\O,0.166567
 73,-0.89240086,1.3212963\O,0.63795773,-0.33828286,-0.8103417\C,2.05252
 573,-0.42441286,-0.5393477\C,2.54099573,0.84368514,0.1319213\H,2.50167
 573,-0.56307186,-1.5209407\H,2.23948073,-1.30541386,0.0755803\H,3.6228
 8373,0.79291914,0.2692023\H,2.30527373,1.71249614,-0.4837727\H,2.07309

 Normal termination of Gaussian 16 at Sat Aug 16 19:50:29 2025.
