 Gaussian 16, Revision A.03,
 Gaussian 16:  ES64L-G16RevA.03 25-Dec-2016

 --------------------------
 # ccsd(t)/6-311++g(d,p) sp
 --------------------------

 -------------------
 Title Card Required
 -------------------
 Symbolic Z-matrix:
 Charge =  0 Multiplicity = 2

                         Standard orientation:
 ---------------------------------------------------------------------
 Center     Atomic      Atomic             Coordinates (Angstroms)
 Number     Number       Type             X           Y           Z
 ---------------------------------------------------------------------
      1          6           0       -2.777341   -0.496337   -0.450012
      2          1           0       -3.802400   -0.578091   -0.730461
      3          6           0       -1.617375   -0.210377   -0.131773
      4          6           0       -0.220439   -0.562382    0.223238
      5          8           0        0.107439   -0.932995    1.313308
      6          8           0        0.581204   -0.353244   -0.810597
      7          6           0        1.996441   -0.440750   -0.540049
      8          6           0        2.482918    0.820413    0.145748
      9          1           0        2.445892   -0.567767   -1.523016
     10          1           0        2.183919   -1.328524    0.064807
     11          1           0        3.564754    0.768613    0.283108
     12          1           0        2.246559    1.695890   -0.460051
     13          1           0        2.014291    0.930429    1.124046
     14          8           0       -1.414138    1.618474    0.111897
     15          1           0       -2.034274    1.758162    0.841785
 ---------------------------------------------------------------------

 SCF Done:  E(UHF) =  -417.976768061     A.U. after   30 cycles
 E2 =    -0.1257977042D+01 EUMP2 =    -0.41923474510321D+03
 CCSD(T)= -0.41935699136D+03

 The electronic state is 2-A.
 Alpha  occ. eigenvalues --  -20.61280 -20.60994 -20.55566 -11.41234 -11.29441
 Alpha  occ. eigenvalues --  -11.28082 -11.27669 -11.22171  -1.48080  -1.37759
 Alpha  occ. eigenvalues --   -1.37022  -1.08285  -1.04312  -0.92605  -0.83729
 Alpha  occ. eigenvalues --   -0.76474  -0.73216  -0.69261  -0.68861  -0.65132
 Alpha  occ. eigenvalues --   -0.63252  -0.62571  -0.57596  -0.55283  -0.53799
 Alpha  occ. eigenvalues --   -0.52523  -0.50163  -0.47860  -0.45770  -0.43555
 Alpha  occ. eigenvalues --   -0.42198
 Alpha virt. eigenvalues --    0.03698   0.04626   0.05692   0.06832   0.07017
 Alpha virt. eigenvalues --    0.08737   0.09707   0.10645   0.11241   0.11927
 Alpha virt. eigenvalues --    0.13326   0.13924   0.14658   0.15743   0.16782

  Beta  occ. eigenvalues --  -20.60997 -20.58020 -20.55938 -11.40858 -11.30222
  Beta  occ. eigenvalues --  -11.29443 -11.25064 -11.22173  -1.48215  -1.38335
  Beta  occ. eigenvalues --   -1.26178  -1.07587  -1.03294  -0.91321  -0.82735
  Beta  occ. eigenvalues --   -0.76174  -0.71883  -0.69544  -0.67813  -0.63254
  Beta  occ. eigenvalues --   -0.62743  -0.57920  -0.55715  -0.53919  -0.50222
  Beta  occ. eigenvalues --   -0.49850  -0.48604  -0.46995  -0.45666  -0.42309
  Beta virt. eigenvalues --    0.03789   0.04320   0.04654   0.06552   0.07014
  Beta virt. eigenvalues --    0.07703   0.08862   0.09730   0.10650   0.11936
  Beta virt. eigenvalues --    0.12409   0.13562   0.14475   0.15733   0.16031

 Mulliken charges and spin densities:
               1          2
     1  C   -0.316079   1.395539
     2  H    0.225864  -0.099178
     3  C    0.536975  -1.132255
     4  C   -0.427654   0.181862
     5  O   -0.284281  -0.075462
     6  O   -0.037510   0.003413
     7  C   -0.168329   0.001135
     8  C   -0.386228   0.001199
     9  H    0.165008   0.000080
    10  H    0.172570   0.000327
    11  H    0.137153  -0.000341
    12  H    0.151529  -0.000640
    13  H    0.177391  -0.000230
    14  O   -0.197243   0.752206
    15  H    0.250834  -0.027656
 Sum of Mulliken charges =  -0.00000   1.00000

 Dipole moment (field-independent basis, Debye):
    X=             -0.8522    Y=              0.1465    Z=             -0.8026  Tot=              1.1798
 Quadrupole moment (field-independent basis, Debye-Ang):
   XX=            -30.2810   YY=            -48.8373   ZZ=            -51.4799
   XY=             -0.2854   XZ=             -1.8842   YZ=              5.4580

 MP3-0=-419.2840729\MP4SDQ=-419.2934473\CCSD=-419.3018717\CCSD(T)=-419.
 Normal termination of Gaussian 16 at Mon Aug  4 16:33:19 2025.
