 Gaussian 16, Revision A.03,
 Gaussian 16:  ES64L-G16RevA.03 25-Dec-2016

 -------------------
 # freq 6-31+g m062x
 -------------------

 -------------------
 Title Card Required
 -------------------
 Symbolic Z-matrix:
 Charge =  0 Multiplicity = 2

                         Standard orientation:
 ---------------------------------------------------------------------
 Center     Atomic      Atomic             Coordinates (Angstroms)
 Number     Number       Type             X           Y           Z
 ---------------------------------------------------------------------
      1          6           0       -2.793005   -0.492677   -0.435519
      2          1           0       -3.822958   -0.532047   -0.703792
      3          6           0       -1.626917   -0.416411   -0.149076
      4          6           0       -0.224168   -0.576029    0.235667
      5          8           0        0.115122   -0.887969    1.342587
      6          8           0        0.579486   -0.374696   -0.801009
      7          6           0        1.993401   -0.457664   -0.530002
      8          6           0        2.486358    0.819584    0.119701
      9          1           0        2.441698   -0.613715   -1.509486
     10          1           0        2.179450   -1.328536    0.099667
     11          1           0        3.568428    0.769095    0.255700
     12          1           0        2.251836    1.678811   -0.509903
     13          1           0        2.020447    0.956992    1.095744
     14          8           0       -1.397316    1.759783    0.084726
     15          1           0       -2.031249    1.831630    0.817013
 ---------------------------------------------------------------------

 SCF Done:  E(UM062X) =  -419.958209850     A.U. after   24 cycles

 The electronic state is 2-A.
 Alpha  occ. eigenvalues --  -19.70307 -19.69885 -19.66028 -10.72864 -10.61248
 Alpha  occ. eigenvalues --  -10.59736 -10.59285 -10.54114  -1.27816  -1.18467
 Alpha  occ. eigenvalues --   -1.14330  -0.91370  -0.87867  -0.78405  -0.71073
 Alpha  occ. eigenvalues --   -0.64425  -0.62075  -0.58484  -0.57102  -0.54393
 Alpha  occ. eigenvalues --   -0.53666  -0.50513  -0.48653  -0.46359  -0.44977
 Alpha  occ. eigenvalues --   -0.42168  -0.41659  -0.39466  -0.37974  -0.36720
 Alpha  occ. eigenvalues --   -0.35825
 Alpha virt. eigenvalues --   -0.01024   0.01985   0.02496   0.03664   0.03749
 Alpha virt. eigenvalues --    0.04468   0.05473   0.05885   0.07703   0.08256
 Alpha virt. eigenvalues --    0.08843   0.08930   0.10047   0.11855   0.12299

  Beta  occ. eigenvalues --  -19.70312 -19.68273 -19.66045 -10.72846 -10.61248
  Beta  occ. eigenvalues --  -10.59740 -10.59158 -10.54115  -1.27824  -1.18494
  Beta  occ. eigenvalues --   -1.07381  -0.91063  -0.87636  -0.78300  -0.70957
  Beta  occ. eigenvalues --   -0.64377  -0.61765  -0.58358  -0.56767  -0.53651
  Beta  occ. eigenvalues --   -0.51538  -0.49206  -0.46598  -0.45030  -0.41659
  Beta  occ. eigenvalues --   -0.39391  -0.39033  -0.38391  -0.38006  -0.36345
  Beta virt. eigenvalues --   -0.09257  -0.00372   0.02033   0.02511   0.03750
  Beta virt. eigenvalues --    0.03782   0.04668   0.05541   0.05955   0.07755
  Beta virt. eigenvalues --    0.08202   0.08931   0.09003   0.10134   0.11938

 Mulliken charges and spin densities:
               1          2
     1  C   -0.116371   0.139984
     2  H    0.335285  -0.007352
     3  C   -0.240521  -0.062649
     4  C    0.222263   0.065343
     5  O   -0.337514  -0.007478
     6  O   -0.163580  -0.000433
     7  C   -0.246636  -0.000937
     8  C   -0.559028   0.000150
     9  H    0.219585  -0.000013
    10  H    0.232358  -0.000075
    11  H    0.204601  -0.000026
    12  H    0.227635  -0.000054
    13  H    0.236430  -0.000064
    14  O   -0.420697   0.906741
    15  H    0.406190  -0.033137
 Sum of Mulliken charges =  -0.00000   1.00000

 Dipole moment (field-independent basis, Debye):
    X=             -0.7896    Y=              0.1605    Z=             -0.3823  Tot=              0.8918
 Quadrupole moment (field-independent basis, Debye-Ang):
   XX=            -29.7937   YY=            -48.8547   ZZ=            -52.4429
   XY=             -0.7838   XZ=             -2.3133   YZ=              5.6916

  Exact polarizability:  87.218   5.048  61.436   3.818   0.497  56.892
 Approx polarizability:  92.941   4.809  60.589   7.528  -3.134  71.392

 ******    4 imaginary frequencies (negative Signs) ******

                      1                      2                      3
                      A                      A                      A
 Frequencies --   -457.9192              -142.4507               -72.0891
 Red. masses --      1.0901                 4.3410                 4.2927
 Frc consts  --      0.1347                 0.0519                 0.0131
 IR Inten    --    120.5591                16.1039                11.1958

                      4                      5                      6
                      A                      A                      A
 Frequencies --    -14.1419                76.3266                88.0477
 Red. masses --      2.5572                 4.1875                 3.7376
 Frc consts  --      0.0003                 0.0144                 0.0171
 IR Inten    --      0.2850                 1.9200                 4.9643

                      7                      8                      9
                      A                      A                      A
 Frequencies --    150.5495               173.7360               192.6995
 Red. masses --      6.8560                 1.2836                 4.7507
 Frc consts  --      0.0916                 0.0228                 0.1039
 IR Inten    --      1.6287                 1.5166                 2.9520

                     10                     11                     12
                      A                      A                      A
 Frequencies --    305.3430               342.5152               424.5635
 Red. masses --      2.6374                 1.3929                 3.4845
 Frc consts  --      0.1449                 0.0963                 0.3701
 IR Inten    --     17.8131               106.1899                 2.6373

                     13                     14                     15
                      A                      A                      A
 Frequencies --    572.5434               621.9829               747.7315
 Red. masses --      4.2385                 5.4505                 8.9600
 Frc consts  --      0.8186                 1.2423                 2.9515
 IR Inten    --      3.1565                12.9423                55.8856

                     16                     17                     18
                      A                      A                      A
 Frequencies --    756.8405               792.5808               818.1760
 Red. masses --      1.3333                 1.3682                 1.2755
 Frc consts  --      0.4500                 0.5064                 0.5030
 IR Inten    --     54.7130                44.5876                 5.2700

                     19                     20                     21
                      A                      A                      A
 Frequencies --    899.3692               946.3089              1111.8168
 Red. masses --      3.4077                 2.5164                 4.1646
 Frc consts  --      1.6240                 1.3277                 3.0331
 IR Inten    --     20.8468                 5.6191                 8.9546

                     22                     23                     24
                      A                      A                      A
 Frequencies --   1159.4936              1228.8903              1328.9957
 Red. masses --      2.0903                 1.7544                 1.8265
 Frc consts  --      1.6557                 1.5610                 1.9007
 IR Inten    --     18.6777                 4.6987               284.1983

                     25                     26                     27
                      A                      A                      A
 Frequencies --   1372.4543              1443.1199              1457.5768
 Red. masses --      1.8637                 1.3922                 1.2651
 Frc consts  --      2.0684                 1.7082                 1.5835
 IR Inten    --    304.6958                41.0948                17.9363

                     28                     29                     30
                      A                      A                      A
 Frequencies --   1526.0946              1536.7382              1544.5252
 Red. masses --      1.0414                 1.0585                 1.0868
 Frc consts  --      1.4290                 1.4728                 1.5275
 IR Inten    --     14.8046                 2.1839                27.5088

                     31                     32                     33
                      A                      A                      A
 Frequencies --   1909.1342              2292.5122              3107.8364
 Red. masses --     12.2576                 5.7035                 1.0350
 Frc consts  --     26.3227                17.6611                 5.8901
 IR Inten    --    313.4272                66.3714                12.8181

                     34                     35                     36
                      A                      A                      A
 Frequencies --   3137.1117              3188.3096              3190.3013
 Red. masses --      1.0601                 1.1024                 1.1006
 Frc consts  --      6.1469                 6.6027                 6.6000
 IR Inten    --     21.6696                 5.2338                15.5647

                     37                     38                     39
                      A                      A                      A
 Frequencies --   3211.1566              3528.5633              3812.8124
 Red. masses --      1.1052                 1.1724                 1.0672
 Frc consts  --      6.7145                 8.6002                 9.1410
 IR Inten    --     17.5913                60.8703                12.7382

 - Thermochemistry -
 -------------------
 Temperature   298.150 Kelvin.  Pressure   1.00000 Atm.
 Atom     1 has atomic number  6 and mass  12.00000

 Molecular mass:   115.03952 amu.
 Principal axes and moments of inertia in atomic units:
                           1         2         3
     Eigenvalues --   517.833391381.346141536.60887
           X            0.99994   0.01046  -0.00108
           Y           -0.01036   0.99753   0.06943
           Z            0.00181  -0.06941   0.99759
 This molecule is an asymmetric top.
 Rotational symmetry number  1.
 Warning -- assumption of classical behavior for rotation
           may cause significant error
 Rotational temperatures (Kelvin)      0.16726     0.06270     0.05637
 Rotational constants (GHZ):           3.48518     1.30651     1.17450
    4 imaginary frequencies ignored.
 Zero-point vibrational energy     293065.7 (Joules/Mol)
                                   70.04438 (Kcal/Mol)
 Warning -- explicit consideration of   9 degrees of freedom as
           vibrations may cause significant error
 Vibrational temperatures:    109.82   126.68   216.61   249.97   277.25
          (Kelvin)            439.32   492.80   610.85   823.76   894.89
                             1075.82  1088.92  1140.35  1177.17  1293.99
                             1361.53  1599.66  1668.25  1768.10  1912.13
                             1974.66  2076.33  2097.13  2195.71  2211.02
                             2222.23  2746.82  3298.41  4471.48  4513.60
                             4587.27  4590.13  4620.14  5076.82  5485.79

 Zero-point correction=                           0.111623 (Hartree/Particle)
 Thermal correction to Energy=                    0.119748
 Thermal correction to Enthalpy=                  0.120692
 Thermal correction to Gibbs Free Energy=         0.077579
 Sum of electronic and zero-point Energies=           -419.846587
 Sum of electronic and thermal Energies=              -419.838462
 Sum of electronic and thermal Enthalpies=            -419.837518
 Sum of electronic and thermal Free Energies=         -419.880631

                     E (Thermal)             CV                S
                      KCal/Mol        Cal/Mol-Kelvin    Cal/Mol-Kelvin
 Total                   75.143             27.286             90.739
 Electronic               0.000              0.000              1.377
 Translational            0.889              2.981             40.136
 Rotational               0.889              2.981             28.488
 Vibrational             73.365             21.324             20.738
 Vibration     1          0.599              1.965              3.983
 Vibration     2          0.601              1.958              3.703
 Vibration     3          0.618              1.902              2.665
 Vibration     4          0.627              1.875              2.395
 Vibration     5          0.635              1.850              2.202
 Vibration     6          0.696              1.664              1.387
 Vibration     7          0.722              1.590              1.200
 Vibration     8          0.787              1.417              0.877
 Vibration     9          0.929              1.091              0.499

 Normal termination of Gaussian 16 at Fri Jun 20 14:02:33 2025.
