 Gaussian 16, Revision A.03,
 Gaussian 16:  ES64L-G16RevA.03 25-Dec-2016

 -------------------
 # freq 6-31+g m062x
 -------------------

 -------------------
 Title Card Required
 -------------------
 Symbolic Z-matrix:
 Charge =  0 Multiplicity = 2

                         Standard orientation:
 ---------------------------------------------------------------------
 Center     Atomic      Atomic             Coordinates (Angstroms)
 Number     Number       Type             X           Y           Z
 ---------------------------------------------------------------------
      1          6           0       -2.788932   -0.491430   -0.438172
      2          1           0       -3.817325   -0.547621   -0.709633
      3          6           0       -1.624831   -0.377491   -0.146622
      4          6           0       -0.223159   -0.569765    0.233677
      5          8           0        0.112942   -0.897766    1.336526
      6          8           0        0.580327   -0.369954   -0.802940
      7          6           0        1.994260   -0.454440   -0.531842
      8          6           0        2.485441    0.819897    0.125169
      9          1           0        2.443027   -0.604622   -1.511992
     10          1           0        2.180572   -1.328723    0.092926
     11          1           0        3.567420    0.769681    0.261916
     12          1           0        2.250485    1.682281   -0.499911
     13          1           0        2.018621    0.951693    1.101602
     14          8           0       -1.401448    1.729829    0.090240
     15          1           0       -2.034047    1.819809    0.821218
 ---------------------------------------------------------------------

 SCF Done:  E(UM062X) =  -419.956387477     A.U. after   24 cycles

 The electronic state is 2-A.
 Alpha  occ. eigenvalues --  -19.70332 -19.69476 -19.66064 -10.72895 -10.61268
 Alpha  occ. eigenvalues --  -10.60072 -10.59506 -10.54132  -1.27865  -1.18517
 Alpha  occ. eigenvalues --   -1.14016  -0.91498  -0.87949  -0.78455  -0.71121
 Alpha  occ. eigenvalues --   -0.64468  -0.62211  -0.58577  -0.57162  -0.54120
 Alpha  occ. eigenvalues --   -0.53668  -0.50484  -0.48592  -0.46339  -0.45004
 Alpha  occ. eigenvalues --   -0.41873  -0.41650  -0.39531  -0.37991  -0.36774
 Alpha  occ. eigenvalues --   -0.35357
 Alpha virt. eigenvalues --   -0.00926   0.01961   0.02493   0.03651   0.03723
 Alpha virt. eigenvalues --    0.04430   0.05489   0.05865   0.07699   0.08149
 Alpha virt. eigenvalues --    0.08836   0.08936   0.10033   0.11846   0.12290

  Beta  occ. eigenvalues --  -19.70336 -19.67900 -19.66083 -10.72873 -10.61268
  Beta  occ. eigenvalues --  -10.60094 -10.59341 -10.54132  -1.27872  -1.18547
  Beta  occ. eigenvalues --   -1.07420  -0.91118  -0.87674  -0.78324  -0.70974
  Beta  occ. eigenvalues --   -0.64405  -0.61830  -0.58433  -0.56835  -0.53652
  Beta  occ. eigenvalues --   -0.51402  -0.49195  -0.46623  -0.45070  -0.41670
  Beta  occ. eigenvalues --   -0.39408  -0.39164  -0.38308  -0.38012  -0.36278
  Beta virt. eigenvalues --   -0.09414  -0.00111   0.02011   0.02511   0.03685
  Beta virt. eigenvalues --    0.03777   0.04637   0.05553   0.05922   0.07744
  Beta virt. eigenvalues --    0.08105   0.08929   0.08984   0.10131   0.11900

 Mulliken charges and spin densities:
               1          2
     1  C    0.021449   0.201780
     2  H    0.328983  -0.009375
     3  C   -0.290105  -0.088554
     4  C    0.153153   0.064848
     5  O   -0.339816  -0.008594
     6  O   -0.163483  -0.000487
     7  C   -0.254414  -0.000927
     8  C   -0.555831   0.000356
     9  H    0.219976  -0.000012
    10  H    0.233070  -0.000093
    11  H    0.204647  -0.000030
    12  H    0.227954  -0.000050
    13  H    0.236033  -0.000048
    14  O   -0.428381   0.872954
    15  H    0.406764  -0.031769
 Sum of Mulliken charges =  -0.00000   1.00000

 Dipole moment (field-independent basis, Debye):
    X=             -0.7937    Y=              0.0645    Z=             -0.4149  Tot=              0.8980
 Quadrupole moment (field-independent basis, Debye-Ang):
   XX=            -29.6648   YY=            -49.0119   ZZ=            -52.3841
   XY=             -0.5024   XZ=             -2.2203   YZ=              5.6911

  Exact polarizability:  87.139   5.952  64.243   3.962   1.165  56.998
 Approx polarizability:  92.684   6.337  63.171   7.628  -2.573  71.442

 ******    5 imaginary frequencies (negative Signs) ******

                      1                      2                      3
                      A                      A                      A
 Frequencies --   -455.3166              -199.8199               -96.8193
 Red. masses --      1.0905                 6.4450                 5.3954
 Frc consts  --      0.1332                 0.1516                 0.0298
 IR Inten    --    117.9260                 1.9171                19.9063

                      4                      5                      6
                      A                      A                      A
 Frequencies --    -51.8926                -9.5632                83.6019
 Red. masses --      4.5485                 2.7728                 3.2695
 Frc consts  --      0.0072                 0.0001                 0.0135
 IR Inten    --      1.3018                 0.3181                 6.6315

                      7                      8                      9
                      A                      A                      A
 Frequencies --    132.4824               173.9438               194.0535
 Red. masses --      5.5688                 1.2748                 5.4286
 Frc consts  --      0.0576                 0.0227                 0.1204
 IR Inten    --      0.2121                 1.3279                 1.6275

                     10                     11                     12
                      A                      A                      A
 Frequencies --    305.7977               395.4749               433.9861
 Red. masses --      2.7985                 1.5615                 2.0619
 Frc consts  --      0.1542                 0.1439                 0.2288
 IR Inten    --     13.6167                86.2757                33.9018

                     13                     14                     15
                      A                      A                      A
 Frequencies --    574.1812               620.0717               725.2842
 Red. masses --      4.1420                 5.4807                 2.4987
 Frc consts  --      0.8046                 1.2416                 0.7744
 IR Inten    --      4.2273                12.7043                11.2899

                     16                     17                     18
                      A                      A                      A
 Frequencies --    741.4450               777.9085               818.0572
 Red. masses --      2.1514                 1.3500                 1.2738
 Frc consts  --      0.6968                 0.4813                 0.5022
 IR Inten    --     93.0011                50.1177                 6.3173

                     19                     20                     21
                      A                      A                      A
 Frequencies --    899.0345               946.1084              1110.8353
 Red. masses --      3.3905                 2.5146                 4.1732
 Frc consts  --      1.6146                 1.3262                 3.0340
 IR Inten    --     20.9429                 5.7856                 9.7514

                     22                     23                     24
                      A                      A                      A
 Frequencies --   1159.3123              1228.8946              1328.1242
 Red. masses --      2.0877                 1.7540                 1.8494
 Frc consts  --      1.6532                 1.5607                 1.9220
 IR Inten    --     18.5113                 4.9400               287.2722

                     25                     26                     27
                      A                      A                      A
 Frequencies --   1371.4921              1442.6874              1457.6945
 Red. masses --      1.8471                 1.3926                 1.2618
 Frc consts  --      2.0470                 1.7077                 1.5797
 IR Inten    --    297.6521                39.5074                18.5770

                     28                     29                     30
                      A                      A                      A
 Frequencies --   1526.2231              1536.8236              1544.6732
 Red. masses --      1.0414                 1.0573                 1.0879
 Frc consts  --      1.4292                 1.4713                 1.5293
 IR Inten    --     14.9286                 2.3148                27.7704

                     31                     32                     33
                      A                      A                      A
 Frequencies --   1910.3576              2273.3834              3107.9323
 Red. masses --     12.2531                 5.7790                 1.0350
 Frc consts  --     26.3467                17.5975                 5.8904
 IR Inten    --    316.8453                73.6464                12.4759

                     34                     35                     36
                      A                      A                      A
 Frequencies --   3137.7430              3188.6839              3190.3806
 Red. masses --      1.0601                 1.1026                 1.1004
 Frc consts  --      6.1494                 6.6054                 6.5989
 IR Inten    --     21.5759                 4.2318                16.3508

                     37                     38                     39
                      A                      A                      A
 Frequencies --   3211.3578              3526.8469              3817.7201
 Red. masses --      1.1053                 1.1693                 1.0672
 Frc consts  --      6.7159                 8.5694                 9.1648
 IR Inten    --     17.4527                61.0498                14.4975

 - Thermochemistry -
 -------------------
 Temperature   298.150 Kelvin.  Pressure   1.00000 Atm.
 Atom     1 has atomic number  6 and mass  12.00000

 Molecular mass:   115.03952 amu.
 Principal axes and moments of inertia in atomic units:
                           1         2         3
     Eigenvalues --   510.318781380.083471528.78231
           X            0.99994   0.01074  -0.00089
           Y           -0.01064   0.99726   0.07321
           Z            0.00167  -0.07319   0.99732
 This molecule is an asymmetric top.
 Rotational symmetry number  1.
 Warning -- assumption of classical behavior for rotation
           may cause significant error
 Rotational temperatures (Kelvin)      0.16973     0.06276     0.05666
 Rotational constants (GHZ):           3.53650     1.30770     1.18051
    5 imaginary frequencies ignored.
 Zero-point vibrational energy     292442.7 (Joules/Mol)
                                   69.89548 (Kcal/Mol)
 Warning -- explicit consideration of   9 degrees of freedom as
           vibrations may cause significant error
 Vibrational temperatures:    120.28   190.61   250.27   279.20   439.97
          (Kelvin)            569.00   624.41   826.12   892.14  1043.52
                             1066.77  1119.24  1177.00  1293.51  1361.24
                             1598.24  1667.99  1768.11  1910.87  1973.27
                             2075.71  2097.30  2195.89  2211.15  2222.44
                             2748.58  3270.89  4471.62  4514.51  4587.80
                             4590.25  4620.43  5074.35  5492.85

 Zero-point correction=                           0.111386 (Hartree/Particle)
 Thermal correction to Energy=                    0.118721
 Thermal correction to Enthalpy=                  0.119665
 Thermal correction to Gibbs Free Energy=         0.078393
 Sum of electronic and zero-point Energies=           -419.845002
 Sum of electronic and thermal Energies=              -419.837667
 Sum of electronic and thermal Enthalpies=            -419.836723
 Sum of electronic and thermal Free Energies=         -419.877994

                     E (Thermal)             CV                S
                      KCal/Mol        Cal/Mol-Kelvin    Cal/Mol-Kelvin
 Total                   74.498             25.305             86.863
 Electronic               0.000              0.000              1.377
 Translational            0.889              2.981             40.136
 Rotational               0.889              2.981             28.467
 Vibrational             72.721             19.343             16.883
 Vibration     1          0.600              1.960              3.804
 Vibration     2          0.613              1.921              2.910
 Vibration     3          0.627              1.875              2.392
 Vibration     4          0.635              1.848              2.189
 Vibration     5          0.696              1.663              1.385
 Vibration     6          0.762              1.480              0.979
 Vibration     7          0.795              1.396              0.846
 Vibration     8          0.930              1.087              0.496
 Vibration     9          0.980              0.990              0.416

 Normal termination of Gaussian 16 at Fri Jun 20 14:06:35 2025.
