 Gaussian 16, Revision A.03,
 Gaussian 16:  ES64L-G16RevA.03 25-Dec-2016

 --------------------------
 # freq 6-311++g(d,p) m062x
 --------------------------

 -------------------
 Title Card Required
 -------------------
 Symbolic Z-matrix:
 Charge =  0 Multiplicity = 2

                         Standard orientation:
 ---------------------------------------------------------------------
 Center     Atomic      Atomic             Coordinates (Angstroms)
 Number     Number       Type             X           Y           Z
 ---------------------------------------------------------------------
      1          6           0       -2.798543   -0.496365   -0.431477
      2          1           0       -3.830352   -0.507786   -0.695200
      3          6           0       -1.630350   -0.471610   -0.151917
      4          6           0       -0.225967   -0.588667    0.238722
      5          8           0        0.118403   -0.871988    1.352206
      6          8           0        0.577357   -0.384152   -0.797982
      7          6           0        1.991679   -0.462489   -0.527053
      8          6           0        2.487493    0.819370    0.110950
      9          1           0        2.439049   -0.627503   -1.505537
     10          1           0        2.178173   -1.327762    0.110259
     11          1           0        3.569780    0.767734    0.245078
     12          1           0        2.253701    1.673768   -0.525466
     13          1           0        2.023767    0.965816    1.086624
     14          8           0       -1.390528    1.806768    0.075308
     15          1           0       -2.021841    1.849266    0.812638
 ---------------------------------------------------------------------

 SCF Done:  E(UM062X) =  -420.207668372     A.U. after   22 cycles

 The electronic state is 2-A.
 Alpha  occ. eigenvalues --  -19.68001 -19.67684 -19.62904 -10.70524 -10.60296
 Alpha  occ. eigenvalues --  -10.57722 -10.57432 -10.53338  -1.25496  -1.16188
 Alpha  occ. eigenvalues --   -1.13391  -0.90528  -0.87095  -0.77901  -0.70458
 Alpha  occ. eigenvalues --   -0.64287  -0.61571  -0.58324  -0.56936  -0.54936
 Alpha  occ. eigenvalues --   -0.53261  -0.50460  -0.48673  -0.46216  -0.45003
 Alpha  occ. eigenvalues --   -0.42512  -0.41698  -0.39413  -0.38258  -0.36402
 Alpha  occ. eigenvalues --   -0.36076
 Alpha virt. eigenvalues --   -0.01174  -0.00198   0.00519   0.01492   0.02517
 Alpha virt. eigenvalues --    0.02797   0.03710   0.04442   0.05617   0.06405
 Alpha virt. eigenvalues --    0.07143   0.07827   0.08491   0.10039   0.10893

  Beta  occ. eigenvalues --  -19.68006 -19.66108 -19.62917 -10.70513 -10.60296
  Beta  occ. eigenvalues --  -10.57693 -10.57361 -10.53339  -1.25503  -1.16215
  Beta  occ. eigenvalues --   -1.05819  -0.90286  -0.86871  -0.77803  -0.70364
  Beta  occ. eigenvalues --   -0.64250  -0.61350  -0.58294  -0.56444  -0.53247
  Beta  occ. eigenvalues --   -0.52184  -0.49052  -0.46460  -0.45032  -0.41699
  Beta  occ. eigenvalues --   -0.39412  -0.39138  -0.38331  -0.37996  -0.36107
  Beta virt. eigenvalues --   -0.08961  -0.00668  -0.00054   0.00557   0.01787
  Beta virt. eigenvalues --    0.02622   0.02825   0.03748   0.04548   0.05688
  Beta virt. eigenvalues --    0.06416   0.07232   0.07902   0.08528   0.10182

 Mulliken charges and spin densities:
               1          2
     1  C   -0.471196   0.146978
     2  H    0.199732  -0.007442
     3  C    0.917903  -0.045475
     4  C   -0.760431   0.004080
     5  O   -0.196214  -0.005512
     6  O    0.057247   0.000157
     7  C   -0.255147  -0.000569
     8  C   -0.414975   0.000503
     9  H    0.195471   0.000076
    10  H    0.190220  -0.000102
    11  H    0.167173   0.000090
    12  H    0.170392  -0.000122
    13  H    0.189236  -0.000439
    14  O   -0.223640   0.928846
    15  H    0.234229  -0.021068
 Sum of Mulliken charges =  -0.00000   1.00000

 Dipole moment (field-independent basis, Debye):
    X=             -0.6242    Y=              0.2622    Z=             -0.5863  Tot=              0.8956
 Quadrupole moment (field-independent basis, Debye-Ang):
   XX=            -30.4532   YY=            -48.4778   ZZ=            -51.3701
   XY=             -0.8542   XZ=             -2.0191   YZ=              5.0849

  Exact polarizability:  91.579   4.184  62.495   4.164   0.439  59.193
 Approx polarizability:  99.361   2.701  67.292   7.294  -2.442  76.573

 ******    1 imaginary frequencies (negative Signs) ******

                      1                      2                      3
                      A                      A                      A
 Frequencies --    -19.4661                38.0900               110.2256
 Red. masses --      4.9121                 4.1901                 4.8065
 Frc consts  --      0.0011                 0.0036                 0.0344
 IR Inten    --      8.4242                 1.1946                 1.3958

                      4                      5                      6
                      A                      A                      A
 Frequencies --    119.1313               158.1837               198.7371
 Red. masses --      3.5714                 2.5405                 2.3052
 Frc consts  --      0.0299                 0.0375                 0.0536
 IR Inten    --     10.8049                11.7147                23.4517

                      7                      8                      9
                      A                      A                      A
 Frequencies --    217.4391               227.9228               287.1155
 Red. masses --      1.8467                 1.4093                 3.8320
 Frc consts  --      0.0514                 0.0431                 0.1861
 IR Inten    --     22.8053                19.0112                10.1566

                     10                     11                     12
                      A                      A                      A
 Frequencies --    338.6175               425.5186               524.5595
 Red. masses --      3.0050                 3.8049                 1.1155
 Frc consts  --      0.2030                 0.4059                 0.1808
 IR Inten    --     10.4313                 4.9459               101.3812

                     13                     14                     15
                      A                      A                      A
 Frequencies --    565.0501               608.2461               728.5835
 Red. masses --      3.6434                 7.1101                 1.3205
 Frc consts  --      0.6854                 1.5498                 0.4130
 IR Inten    --      8.8246                 7.1060                37.9305

                     16                     17                     18
                      A                      A                      A
 Frequencies --    756.1823               780.9732               802.6684
 Red. masses --      1.3219                 7.4580                 1.2194
 Frc consts  --      0.4454                 2.6801                 0.4629
 IR Inten    --     25.2884                47.8832                 5.5833

                     19                     20                     21
                      A                      A                      A
 Frequencies --    897.5214               928.8863              1077.5571
 Red. masses --      3.2109                 2.7853                 4.1190
 Frc consts  --      1.5239                 1.4160                 2.8179
 IR Inten    --     15.6897                 5.6685                21.7710

                     22                     23                     24
                      A                      A                      A
 Frequencies --   1129.8325              1204.4946              1293.5772
 Red. masses --      2.0905                 1.7703                 3.5902
 Frc consts  --      1.5722                 1.5132                 3.5396
 IR Inten    --     22.0494                 5.2264               545.2112

                     25                     26                     27
                      A                      A                      A
 Frequencies --   1348.5230              1402.3402              1432.2623
 Red. masses --      1.2582                 1.2842                 1.3875
 Frc consts  --      1.3481                 1.4880                 1.6769
 IR Inten    --    106.5324                30.2478                11.2609

                     28                     29                     30
                      A                      A                      A
 Frequencies --   1490.7019              1502.4518              1515.0765
 Red. masses --      1.0401                 1.0565                 1.0920
 Frc consts  --      1.3618                 1.4052                 1.4769
 IR Inten    --     10.8100                 0.9286                20.7475

                     31                     32                     33
                      A                      A                      A
 Frequencies --   1841.0665              2243.3409              3075.6220
 Red. masses --     11.9920                 5.8390                 1.0353
 Frc consts  --     23.9487                17.3132                 5.7703
 IR Inten    --    333.5755                60.1598                10.1871

                     34                     35                     36
                      A                      A                      A
 Frequencies --   3105.7928              3151.7097              3154.1981
 Red. masses --      1.0607                 1.1021                 1.1044
 Frc consts  --      6.0284                 6.4500                 6.4740
 IR Inten    --     19.8830                12.9816                 4.4178

                     37                     38                     39
                      A                      A                      A
 Frequencies --   3174.4419              3486.8508              3797.9170
 Red. masses --      1.1071                 1.1670                 1.0672
 Frc consts  --      6.5730                 8.3599                 9.0697
 IR Inten    --     15.0433                67.7757                34.5451

 - Thermochemistry -
 -------------------
 Temperature   298.150 Kelvin.  Pressure   1.00000 Atm.
 Atom     1 has atomic number  6 and mass  12.00000

 Molecular mass:   115.03952 amu.
 Principal axes and moments of inertia in atomic units:
                           1         2         3
     Eigenvalues --   530.172181382.838581548.88542
           X            0.99995   0.01008  -0.00138
           Y           -0.00997   0.99790   0.06398
           Z            0.00202  -0.06396   0.99795
 This molecule is an asymmetric top.
 Rotational symmetry number  1.
 Warning -- assumption of classical behavior for rotation
           may cause significant error
 Rotational temperatures (Kelvin)      0.16337     0.06263     0.05592
 Rotational constants (GHZ):           3.40407     1.30510     1.16519
    1 imaginary frequencies ignored.
 Zero-point vibrational energy     293930.9 (Joules/Mol)
                                   70.25117 (Kcal/Mol)
 Warning -- explicit consideration of  13 degrees of freedom as
           vibrations may cause significant error
 Vibrational temperatures:     54.80   158.59   171.40   227.59   285.94
          (Kelvin)            312.85   327.93   413.10   487.20   612.23
                              754.72   812.98   875.13  1048.27  1087.98
                             1123.65  1154.86  1291.33  1336.46  1550.36
                             1625.58  1733.00  1861.17  1940.22  2017.65
                             2060.71  2144.79  2161.69  2179.86  2648.88
                             3227.67  4425.13  4468.54  4534.61  4538.19
                             4567.31  5016.80  5464.36

 Zero-point correction=                           0.111952 (Hartree/Particle)
 Thermal correction to Energy=                    0.121516
 Thermal correction to Enthalpy=                  0.122460
 Thermal correction to Gibbs Free Energy=         0.076376
 Sum of electronic and zero-point Energies=           -420.095716
 Sum of electronic and thermal Energies=              -420.086153
 Sum of electronic and thermal Enthalpies=            -420.085208
 Sum of electronic and thermal Free Energies=         -420.131292

                     E (Thermal)             CV                S
                      KCal/Mol        Cal/Mol-Kelvin    Cal/Mol-Kelvin
 Total                   76.252             32.472             96.992
 Electronic               0.000              0.000              1.377
 Translational            0.889              2.981             40.136
 Rotational               0.889              2.981             28.520
 Vibrational             74.475             26.511             26.959
 Vibration     1          0.594              1.982              5.356
 Vibration     2          0.606              1.941              3.265
 Vibration     3          0.609              1.933              3.114
 Vibration     4          0.621              1.893              2.571
 Vibration     5          0.637              1.842              2.145
 Vibration     6          0.646              1.814              1.980
 Vibration     7          0.651              1.798              1.895
 Vibration     8          0.684              1.698              1.491
 Vibration     9          0.719              1.598              1.219
 Vibration    10          0.787              1.415              0.873
 Vibration    11          0.880              1.196              0.599
 Vibration    12          0.921              1.107              0.514
 Vibration    13          0.967              1.014              0.436

 1\1\GINC-AJ\Freq\UM062X\6-311++G(d,p)\C5H7O3(2)\AAYUSH\23-Jun-2025\0\\
 # freq 6-311++g(d,p) m062x\\Title Card Required\\0,2\C,-2.798543,-0.49
 6365,-0.431477\H,-3.830352,-0.507786,-0.6952\C,-1.63035,-0.47161,-0.15
 1917\C,-0.225967,-0.588667,0.238722\O,0.118403,-0.871988,1.352206\O,0.
 577357,-0.384152,-0.797982\C,1.991679,-0.462489,-0.527053\C,2.487493,0
 .81937,0.11095\H,2.439049,-0.627503,-1.505537\H,2.178173,-1.327762,0.1
 10259\H,3.56978,0.767734,0.245078\H,2.253701,1.673768,-0.525466\H,2.02
 3767,0.965816,1.086624\O,-1.390528,1.806768,0.075308\H,-2.021841,1.849

 Normal termination of Gaussian 16 at Mon Jun 23 05:28:35 2025.
