 Gaussian 16, Revision A.03,
 Gaussian 16:  ES64L-G16RevA.03 25-Dec-2016

 --------------------------
 # ccsd(t)/6-311++g(d,p) sp
 --------------------------

 -------------------
 Title Card Required
 -------------------
 Symbolic Z-matrix:
 Charge =  0 Multiplicity = 2

                         Standard orientation:
 ---------------------------------------------------------------------
 Center     Atomic      Atomic             Coordinates (Angstroms)
 Number     Number       Type             X           Y           Z
 ---------------------------------------------------------------------
      1          6           0       -2.775994   -0.498105   -0.451719
      2          1           0       -3.801325   -0.576805   -0.732624
      3          6           0       -1.616354   -0.189017   -0.129368
      4          6           0       -0.220551   -0.562605    0.221600
      5          8           0        0.107048   -0.937357    1.310304
      6          8           0        0.581329   -0.351040   -0.811581
      7          6           0        1.996658   -0.438878   -0.541161
      8          6           0        2.482646    0.820463    0.148401
      9          1           0        2.446271   -0.562855   -1.524434
     10          1           0        2.184332   -1.328360    0.061098
     11          1           0        3.564473    0.768465    0.285765
     12          1           0        2.246136    1.697656   -0.454838
     13          1           0        2.013873    0.927566    1.126953
     14          8           0       -1.415644    1.605044    0.114685
     15          1           0       -2.034057    1.750008    0.844297
 ---------------------------------------------------------------------

 SCF Done:  E(UHF) =  -417.977337197     A.U. after   30 cycles
 E2 =    -0.1259472881D+01 EUMP2 =    -0.41923681007784D+03
 CCSD(T)= -0.41935899493D+03

 The electronic state is 2-A.
 Alpha  occ. eigenvalues --  -20.61015 -20.60956 -20.55612 -11.41215 -11.29449
 Alpha  occ. eigenvalues --  -11.28604 -11.27911 -11.22165  -1.48102  -1.37787
 Alpha  occ. eigenvalues --   -1.36677  -1.08409  -1.04336  -0.92630  -0.83786
 Alpha  occ. eigenvalues --   -0.76517  -0.73247  -0.69268  -0.68866  -0.65001
 Alpha  occ. eigenvalues --   -0.62897  -0.62463  -0.57577  -0.55173  -0.53797
 Alpha  occ. eigenvalues --   -0.52326  -0.50163  -0.47926  -0.45815  -0.43669
 Alpha  occ. eigenvalues --   -0.42147
 Alpha virt. eigenvalues --    0.03693   0.04628   0.05708   0.06835   0.07017
 Alpha virt. eigenvalues --    0.08737   0.09725   0.10659   0.11242   0.12006
 Alpha virt. eigenvalues --    0.13310   0.13925   0.14642   0.15759   0.16761

  Beta  occ. eigenvalues --  -20.61017 -20.57890 -20.55965 -11.40842 -11.30823
  Beta  occ. eigenvalues --  -11.29450 -11.25150 -11.22167  -1.48228  -1.38340
  Beta  occ. eigenvalues --   -1.26686  -1.07522  -1.03256  -0.91271  -0.82684
  Beta  occ. eigenvalues --   -0.76193  -0.71855  -0.69555  -0.67905  -0.63290
  Beta  occ. eigenvalues --   -0.62726  -0.57876  -0.55764  -0.53919  -0.50218
  Beta  occ. eigenvalues --   -0.49809  -0.48677  -0.47058  -0.46074  -0.42295
  Beta virt. eigenvalues --    0.03790   0.04262   0.04647   0.06527   0.07013
  Beta virt. eigenvalues --    0.07626   0.08851   0.09730   0.10618   0.11911
  Beta virt. eigenvalues --    0.12525   0.13556   0.14474   0.15784   0.16053

 Mulliken charges and spin densities:
               1          2
     1  C   -0.235702   1.460783
     2  H    0.229491  -0.102391
     3  C    0.444750  -1.147934
     4  C   -0.405851   0.178963
     5  O   -0.284898  -0.071225
     6  O   -0.038575   0.003550
     7  C   -0.169475   0.001099
     8  C   -0.385857   0.000955
     9  H    0.164887   0.000084
    10  H    0.172675   0.000318
    11  H    0.136956  -0.000352
    12  H    0.151832  -0.000621
    13  H    0.177292  -0.000188
    14  O   -0.210162   0.702536
    15  H    0.252638  -0.025576
 Sum of Mulliken charges =  -0.00000   1.00000

 Dipole moment (field-independent basis, Debye):
    X=             -0.8722    Y=              0.0493    Z=             -0.8239  Tot=              1.2008
 Quadrupole moment (field-independent basis, Debye-Ang):
   XX=            -30.2314   YY=            -49.0459   ZZ=            -51.4412
   XY=             -0.1296   XZ=             -1.8472   YZ=              5.4389

 P3-0=-419.2861138\MP4SDQ=-419.2953683\CCSD=-419.3037891\CCSD(T)=-419.3
 Normal termination of Gaussian 16 at Wed Aug 27 17:55:11 2025.
