 Gaussian 16, Revision A.03,
 Gaussian 16:  ES64L-G16RevA.03 25-Dec-2016

 --------------------------
 # freq 6-311++g(d,p) m062x
 --------------------------

 -------------------
 Title Card Required
 -------------------
 Symbolic Z-matrix:
 Charge =  0 Multiplicity = 2

                         Standard orientation:
 ---------------------------------------------------------------------
 Center     Atomic      Atomic             Coordinates (Angstroms)
 Number     Number       Type             X           Y           Z
 ---------------------------------------------------------------------
      1          6           0       -2.772416   -0.502225   -0.455254
      2          1           0       -3.799046   -0.569630   -0.736471
      3          6           0       -1.614493   -0.146644   -0.124367
      4          6           0       -0.221220   -0.563145    0.218111
      5          8           0        0.106329   -0.946352    1.303989
      6          8           0        0.581685   -0.346425   -0.813590
      7          6           0        1.997119   -0.434886   -0.543385
      8          6           0        2.482020    0.820690    0.153989
      9          1           0        2.447209   -0.552501   -1.527216
     10          1           0        2.185323   -1.327831    0.053509
     11          1           0        3.563826    0.768439    0.291413
     12          1           0        2.245204    1.701413   -0.443966
     13          1           0        2.012945    0.921656    1.133063
     14          8           0       -1.418958    1.577944    0.120347
     15          1           0       -2.033969    1.734379    0.849147
 ---------------------------------------------------------------------

 SCF Done:  E(UM062X) =  -420.214283461     A.U. after   19 cycles

 The electronic state is 2-A.
 Alpha  occ. eigenvalues --  -19.68218 -19.64313 -19.63241 -10.70457 -10.62980
 Alpha  occ. eigenvalues --  -10.60410 -10.59644 -10.53375  -1.25785  -1.16502
 Alpha  occ. eigenvalues --   -1.11116  -0.91376  -0.87670  -0.78204  -0.70945
 Alpha  occ. eigenvalues --   -0.64674  -0.62268  -0.58864  -0.57806  -0.53668
 Alpha  occ. eigenvalues --   -0.53115  -0.49666  -0.48152  -0.46089  -0.45132
 Alpha  occ. eigenvalues --   -0.41752  -0.40382  -0.39655  -0.38415  -0.36382
 Alpha  occ. eigenvalues --   -0.31531
 Alpha virt. eigenvalues --   -0.00262   0.00361   0.00728   0.01361   0.02303
 Alpha virt. eigenvalues --    0.02697   0.03132   0.04295   0.05769   0.06132
 Alpha virt. eigenvalues --    0.07099   0.07686   0.08369   0.09995   0.10488

  Beta  occ. eigenvalues --  -19.68215 -19.63614 -19.63250 -10.70403 -10.63140
  Beta  occ. eigenvalues --  -10.60409 -10.59075 -10.53376  -1.25755  -1.16509
  Beta  occ. eigenvalues --   -1.08647  -0.90175  -0.86694  -0.77578  -0.70167
  Beta  occ. eigenvalues --   -0.64452  -0.61422  -0.58700  -0.57426  -0.53074
  Beta  occ. eigenvalues --   -0.52469  -0.48806  -0.46942  -0.45249  -0.42671
  Beta  occ. eigenvalues --   -0.41696  -0.39286  -0.38728  -0.38407  -0.35000
  Beta virt. eigenvalues --   -0.09143  -0.00200   0.00461   0.01416   0.02005
  Beta virt. eigenvalues --    0.02362   0.02762   0.03330   0.04341   0.05746
  Beta virt. eigenvalues --    0.06033   0.07205   0.07555   0.08427   0.09891

 Mulliken charges and spin densities:
               1          2
     1  C   -0.040261   0.939740
     2  H    0.221105  -0.028916
     3  C    0.197185  -0.323328
     4  C   -0.397757   0.062506
     5  O   -0.207257  -0.004149
     6  O    0.048604   0.002839
     7  C   -0.279912   0.001390
     8  C   -0.419253   0.002126
     9  H    0.195514   0.000272
    10  H    0.188904  -0.000181
    11  H    0.166457  -0.000080
    12  H    0.174156  -0.000359
    13  H    0.189767  -0.000797
    14  O   -0.286433   0.351342
    15  H    0.249182  -0.002406
 Sum of Mulliken charges =  -0.00000   1.00000

 Dipole moment (field-independent basis, Debye):
    X=             -0.7094    Y=             -0.5563    Z=             -0.8233  Tot=              1.2208
 Quadrupole moment (field-independent basis, Debye-Ang):
   XX=            -30.0458   YY=            -50.0689   ZZ=            -50.9483
   XY=              0.9239   XZ=             -1.4837   YZ=              4.9569

  Exact polarizability:  88.466   6.387  68.433   3.756   2.320  59.306
 Approx polarizability:  91.529   8.811  81.218   5.823   0.527  76.772

 ******    1 imaginary frequencies (negative Signs) ******

                      1                      2                      3
                      A                      A                      A
 Frequencies --   -586.6129                82.0632                95.3650
 Red. masses --      9.1895                 2.7671                 4.4898
 Frc consts  --      1.8631                 0.0110                 0.0241
 IR Inten    --     35.3696                 3.1059                 7.6649

                      4                      5                      6
                      A                      A                      A
 Frequencies --    114.5114               168.9000               189.8595
 Red. masses --      2.6539                 1.4522                 1.6812
 Frc consts  --      0.0205                 0.0244                 0.0357
 IR Inten    --      4.1133                66.9615                10.1661

                      7                      8                      9
                      A                      A                      A
 Frequencies --    238.2677               253.3787               270.3255
 Red. masses --      1.8324                 4.6289                 1.3206
 Frc consts  --      0.0613                 0.1751                 0.0569
 IR Inten    --      2.9442                 7.7534                25.1846

                     10                     11                     12
                      A                      A                      A
 Frequencies --    339.0854               355.4512               445.6591
 Red. masses --      2.9698                 5.5444                 3.5727
 Frc consts  --      0.2012                 0.4127                 0.4181
 IR Inten    --     11.3426                 7.3603                 7.9901

                     13                     14                     15
                      A                      A                      A
 Frequencies --    584.7937               628.1847               696.6950
 Red. masses --      3.9935                 5.5465                 1.3846
 Frc consts  --      0.8047                 1.2896                 0.3960
 IR Inten    --      6.9036                14.4315                40.5908

                     16                     17                     18
                      A                      A                      A
 Frequencies --    778.7402               801.9069               894.4538
 Red. masses --     10.5711                 1.2119                 3.2428
 Frc consts  --      3.7771                 0.4592                 1.5286
 IR Inten    --     19.6727                 4.9090                16.5888

                     19                     20                     21
                      A                      A                      A
 Frequencies --    918.5942              1030.6560              1071.9224
 Red. masses --      2.6516                 1.2194                 3.4532
 Frc consts  --      1.3183                 0.7631                 2.3378
 IR Inten    --      1.9266                41.1934                39.2984

                     22                     23                     24
                      A                      A                      A
 Frequencies --   1129.1975              1203.1711              1282.8785
 Red. masses --      2.0790                 1.7723                 3.8945
 Frc consts  --      1.5618                 1.5116                 3.7764
 IR Inten    --     21.7393                 7.8731               511.6425

                     25                     26                     27
                      A                      A                      A
 Frequencies --   1344.3521              1402.1125              1430.5553
 Red. masses --      1.2381                 1.2810                 1.3666
 Frc consts  --      1.3183                 1.4838                 1.6478
 IR Inten    --     84.6636                20.7180                12.2519

                     28                     29                     30
                      A                      A                      A
 Frequencies --   1491.6303              1501.8575              1514.4139
 Red. masses --      1.0400                 1.0539                 1.0930
 Frc consts  --      1.3633                 1.4006                 1.4770
 IR Inten    --     10.6612                 0.9499                19.2421

                     31                     32                     33
                      A                      A                      A
 Frequencies --   1836.7554              1894.5772              3076.8725
 Red. masses --      9.7585                 8.2529                 1.0353
 Frc consts  --     19.3971                17.4535                 5.7749
 IR Inten    --    244.4119               103.7924                 8.9743

                     34                     35                     36
                      A                      A                      A
 Frequencies --   3109.6333              3154.2667              3155.4911
 Red. masses --      1.0608                 1.1011                 1.1052
 Frc consts  --      6.0438                 6.4544                 6.4836
 IR Inten    --     19.7078                16.3315                 0.0939

                     37                     38                     39
                      A                      A                      A
 Frequencies --   3177.0422              3446.1487              3852.5685
 Red. masses --      1.1075                 1.1263                 1.0677
 Frc consts  --      6.5861                 7.8807                 9.3365
 IR Inten    --     14.3352                81.6668                63.5531

 - Thermochemistry -
 -------------------
 Temperature   298.150 Kelvin.  Pressure   1.00000 Atm.
 Atom     1 has atomic number  6 and mass  12.00000

 Molecular mass:   115.03952 amu.
 Principal axes and moments of inertia in atomic units:
                           1         2         3
     Eigenvalues --   476.811221374.392081494.13040
           X            0.99993   0.01163   0.00009
           Y           -0.01159   0.99551   0.09399
           Z            0.00100  -0.09398   0.99557
 This molecule is an asymmetric top.
 Rotational symmetry number  1.
 Warning -- assumption of classical behavior for rotation
           may cause significant error
 Rotational temperatures (Kelvin)      0.18165     0.06302     0.05797
 Rotational constants (GHZ):           3.78502     1.31312     1.20789
    1 imaginary frequencies ignored.
 Zero-point vibrational energy     292859.8 (Joules/Mol)
                                   69.99518 (Kcal/Mol)
 Warning -- explicit consideration of  12 degrees of freedom as
           vibrations may cause significant error
 Vibrational temperatures:    118.07   137.21   164.76   243.01   273.17
          (Kelvin)            342.81   364.56   388.94   487.87   511.42
                              641.20   841.39   903.82  1002.39  1120.43
                             1153.77  1286.92  1321.65  1482.88  1542.26
                             1624.66  1731.09  1845.78  1934.22  2017.33
                             2058.25  2146.12  2160.84  2178.90  2642.68
                             2725.87  4426.93  4474.07  4538.29  4540.05
                             4571.06  4958.24  5542.99

 Zero-point correction=                           0.111544 (Hartree/Particle)
 Thermal correction to Energy=                    0.121072
 Thermal correction to Enthalpy=                  0.122016
 Thermal correction to Gibbs Free Energy=         0.076549
 Sum of electronic and zero-point Energies=           -420.102739
 Sum of electronic and thermal Energies=              -420.093211
 Sum of electronic and thermal Enthalpies=            -420.092267
 Sum of electronic and thermal Free Energies=         -420.137734

                     E (Thermal)             CV                S
                      KCal/Mol        Cal/Mol-Kelvin    Cal/Mol-Kelvin
 Total                   75.974             32.392             95.694
 Electronic               0.000              0.000              1.377
 Translational            0.889              2.981             40.136
 Rotational               0.889              2.981             28.373
 Vibrational             74.196             26.431             25.808
 Vibration     1          0.600              1.961              3.841
 Vibration     2          0.603              1.953              3.547
 Vibration     3          0.607              1.937              3.191
 Vibration     4          0.625              1.881              2.448
 Vibration     5          0.633              1.854              2.229
 Vibration     6          0.656              1.782              1.816
 Vibration     7          0.665              1.757              1.707
 Vibration     8          0.674              1.728              1.594
 Vibration     9          0.719              1.597              1.216
 Vibration    10          0.731              1.564              1.142
 Vibration    11          0.805              1.370              0.809
 Vibration    12          0.942              1.064              0.477

 1\1\GINC-AJ\Freq\UM062X\6-311++G(d,p)\C5H7O3(2)\AAYUSH\23-Jun-2025\0\\
 # freq 6-311++g(d,p) m062x\\Title Card Required\\0,2\C,-2.772416,-0.50
 2225,-0.455254\H,-3.799046,-0.56963,-0.736471\C,-1.614493,-0.146644,-0
 .124367\C,-0.22122,-0.563145,0.218111\O,0.106329,-0.946352,1.303989\O,
 0.581685,-0.346425,-0.81359\C,1.997119,-0.434886,-0.543385\C,2.48202,0
 .82069,0.153989\H,2.447209,-0.552501,-1.527216\H,2.185323,-1.327831,0.
 053509\H,3.563826,0.768439,0.291413\H,2.245204,1.701413,-0.443966\H,2.
 012945,0.921656,1.133063\O,-1.418958,1.577944,0.120347\H,-2.033969,1.7

 Normal termination of Gaussian 16 at Mon Jun 23 05:16:22 2025.
