 Gaussian 16, Revision A.03,
 Gaussian 16:  ES64L-G16RevA.03 25-Dec-2016

 --------------------------
 # ccsd(t)/6-311++g(d,p) sp
 --------------------------

 -------------------
 Title Card Required
 -------------------
 Symbolic Z-matrix:
 Charge =  0 Multiplicity = 2

                         Standard orientation:
 ---------------------------------------------------------------------
 Center     Atomic      Atomic             Coordinates (Angstroms)
 Number     Number       Type             X           Y           Z
 ---------------------------------------------------------------------
      1          6           0       -2.764064   -0.509675   -0.460899
      2          1           0       -3.794353   -0.545958   -0.740589
      3          6           0       -1.612324   -0.084625   -0.116494
      4          6           0       -0.223336   -0.563720    0.212332
      5          8           0        0.105248   -0.960829    1.293434
      6          8           0        0.582494   -0.338830   -0.816753
      7          6           0        1.997916   -0.428093   -0.546677
      8          6           0        2.480777    0.821462    0.163349
      9          1           0        2.449138   -0.535252   -1.531194
     10          1           0        2.187331   -1.326430    0.041589
     11          1           0        3.562546    0.769234    0.301052
     12          1           0        2.243453    1.707798   -0.426114
     13          1           0        2.011162    0.912249    1.143206
     14          8           0       -1.424960    1.536341    0.129163
     15          1           0       -2.035347    1.712811    0.855625
 ---------------------------------------------------------------------

 SCF Done:  E(UHF) =  -417.991587881     A.U. after   27 cycles
 E2 =    -0.1269914171D+01 EUMP2 =    -0.41926150205264D+03
 CCSD(T)= -0.41937519603D+03

 The electronic state is 2-A.
 Alpha  occ. eigenvalues --  -20.61067 -20.59398 -20.55843 -11.40983 -11.31528
 Alpha  occ. eigenvalues --  -11.29460 -11.28675 -11.22146  -1.48133  -1.37900
 Alpha  occ. eigenvalues --   -1.35317  -1.08844  -1.04359  -0.92670  -0.84072
 Alpha  occ. eigenvalues --   -0.76648  -0.73095  -0.69402  -0.69212  -0.64790
 Alpha  occ. eigenvalues --   -0.62595  -0.60770  -0.57457  -0.54983  -0.53789
 Alpha  occ. eigenvalues --   -0.51374  -0.50122  -0.48085  -0.46113  -0.43832
 Alpha  occ. eigenvalues --   -0.41502
 Alpha virt. eigenvalues --    0.03713   0.04636   0.05738   0.06818   0.07016
 Alpha virt. eigenvalues --    0.08740   0.09787   0.10741   0.11211   0.12499
 Alpha virt. eigenvalues --    0.13248   0.14041   0.14706   0.15811   0.16603

  Beta  occ. eigenvalues --  -20.61069 -20.57784 -20.56039 -11.40669 -11.33541
  Beta  occ. eigenvalues --  -11.29463 -11.25417 -11.22147  -1.48190  -1.38214
  Beta  occ. eigenvalues --   -1.30723  -1.06943  -1.02912  -0.91005  -0.82414
  Beta  occ. eigenvalues --   -0.76229  -0.71357  -0.69538  -0.68622  -0.64063
  Beta  occ. eigenvalues --   -0.62603  -0.57592  -0.56372  -0.53894  -0.51455
  Beta  occ. eigenvalues --   -0.50278  -0.49978  -0.47890  -0.46489  -0.41807
  Beta virt. eigenvalues --    0.03826   0.04142   0.04643   0.06412   0.06998
  Beta virt. eigenvalues --    0.07336   0.08808   0.09732   0.10524   0.11901
  Beta virt. eigenvalues --    0.13154   0.13534   0.14452   0.15948   0.16163

 Mulliken charges and spin densities:
               1          2
     1  C   -0.027995   1.682011
     2  H    0.244249  -0.103210
     3  C    0.134653  -1.039013
     4  C   -0.246834   0.153792
     5  O   -0.286166  -0.035989
     6  O   -0.041672   0.003198
     7  C   -0.172704   0.001031
     8  C   -0.384814  -0.000473
     9  H    0.164399   0.000063
    10  H    0.173622   0.000108
    11  H    0.136554  -0.000233
    12  H    0.152603  -0.000399
    13  H    0.177181   0.000021
    14  O   -0.286736   0.351342
    15  H    0.263660  -0.012250
 Sum of Mulliken charges =  -0.00000   1.00000

 Dipole moment (field-independent basis, Debye):
    X=             -0.9268    Y=             -0.2045    Z=             -0.8765  Tot=              1.2919
 Quadrupole moment (field-independent basis, Debye-Ang):
   XX=            -30.3211   YY=            -49.9359   ZZ=            -51.2805
   XY=              0.1578   XZ=             -1.7972   YZ=              5.3111

 MP3-0=-419.3012992\MP4SDQ=-419.3159855\CCSD=-419.320614\CCSD(T)=-419.3
 Normal termination of Gaussian 16 at Tue Aug  5 08:53:18 2025.
