 Gaussian 16, Revision A.03,
 Gaussian 16:  ES64L-G16RevA.03 25-Dec-2016

 -------------------
 # freq 6-31+g m062x
 -------------------

 -------------------
 Title Card Required
 -------------------
 Symbolic Z-matrix:
 Charge =  0 Multiplicity = 2

                         Standard orientation:
 ---------------------------------------------------------------------
 Center     Atomic      Atomic             Coordinates (Angstroms)
 Number     Number       Type             X           Y           Z
 ---------------------------------------------------------------------
      1          6           0       -2.799953   -0.498404   -0.430207
      2          1           0       -3.832301   -0.499762   -0.692511
      3          6           0       -1.631517   -0.488839   -0.152522
      4          6           0       -0.226718   -0.593508    0.239868
      5          8           0        0.119296   -0.866298    1.355598
      6          8           0        0.576446   -0.388305   -0.796955
      7          6           0        1.990971   -0.464192   -0.525933
      8          6           0        2.487607    0.819429    0.107862
      9          1           0        2.438146   -0.632270   -1.503998
     10          1           0        2.178070   -1.327351    0.114103
     11          1           0        3.569993    0.767359    0.241180
     12          1           0        2.254043    1.672098   -0.530954
     13          1           0        2.024747    0.969070    1.083424
     14          8           0       -1.388039    1.823177    0.071645
     15          1           0       -2.016675    1.855353    0.812045
 ---------------------------------------------------------------------

 SCF Done:  E(UM062X) =  -419.961065674     A.U. after   24 cycles

 The electronic state is 2-A.
 Alpha  occ. eigenvalues --  -19.70459 -19.70299 -19.66022 -10.72858 -10.61237
 Alpha  occ. eigenvalues --  -10.59393 -10.59049 -10.54085  -1.27778  -1.18416
 Alpha  occ. eigenvalues --   -1.14726  -0.91216  -0.87764  -0.78336  -0.71017
 Alpha  occ. eigenvalues --   -0.64384  -0.61910  -0.58342  -0.57000  -0.54817
 Alpha  occ. eigenvalues --   -0.53674  -0.50477  -0.48750  -0.46397  -0.44937
 Alpha  occ. eigenvalues --   -0.42606  -0.41659  -0.39402  -0.37977  -0.36716
 Alpha  occ. eigenvalues --   -0.36465
 Alpha virt. eigenvalues --   -0.01239   0.01979   0.02499   0.03646   0.03783
 Alpha virt. eigenvalues --    0.04538   0.05467   0.05917   0.07700   0.08405
 Alpha virt. eigenvalues --    0.08855   0.08898   0.10084   0.11861   0.12280

  Beta  occ. eigenvalues --  -19.70303 -19.68809 -19.66034 -10.72847 -10.61237
  Beta  occ. eigenvalues --  -10.59377 -10.58972 -10.54086  -1.27785  -1.18438
  Beta  occ. eigenvalues --   -1.07352  -0.91004  -0.87596  -0.78265  -0.70941
  Beta  occ. eigenvalues --   -0.64355  -0.61701  -0.58254  -0.56685  -0.53662
  Beta  occ. eigenvalues --   -0.51760  -0.49220  -0.46566  -0.44971  -0.41657
  Beta  occ. eigenvalues --   -0.39388  -0.39070  -0.38355  -0.38001  -0.36437
  Beta virt. eigenvalues --   -0.09208  -0.00824   0.02032   0.02509   0.03764
  Beta virt. eigenvalues --    0.03829   0.04711   0.05535   0.06016   0.07762
  Beta virt. eigenvalues --    0.08358   0.08899   0.09033   0.10155   0.11993

 Mulliken charges and spin densities:
               1          2
     1  C   -0.290364   0.087730
     2  H    0.343768  -0.004922
     3  C   -0.150105  -0.035419
     4  C    0.279221   0.045239
     5  O   -0.333861  -0.005396
     6  O   -0.165216  -0.000336
     7  C   -0.227915  -0.001407
     8  C   -0.567185   0.000282
     9  H    0.218924  -0.000014
    10  H    0.230835  -0.000050
    11  H    0.204466  -0.000028
    12  H    0.227381  -0.000065
    13  H    0.237179  -0.000089
    14  O   -0.410587   0.949638
    15  H    0.403457  -0.035163
 Sum of Mulliken charges =  -0.00000   1.00000

 Dipole moment (field-independent basis, Debye):
    X=             -0.7795    Y=              0.2446    Z=             -0.3280  Tot=              0.8803
 Quadrupole moment (field-independent basis, Debye-Ang):
   XX=            -30.0119   YY=            -48.7066   ZZ=            -52.5426
   XY=             -1.1691   XZ=             -2.4555   YZ=              5.6778

  Exact polarizability:  87.328   3.694  57.547   3.600  -0.414  56.773
 Approx polarizability:  93.221   2.312  56.961   7.366  -3.864  71.383

 ******    4 imaginary frequencies (negative Signs) ******

                      1                      2                      3
                      A                      A                      A
 Frequencies --   -457.3647              -183.2746               -77.0705
 Red. masses --      1.0895                 1.7931                 5.5831
 Frc consts  --      0.1343                 0.0355                 0.0195
 IR Inten    --    125.0929                90.5351                 6.9254

                      4                      5                      6
                      A                      A                      A
 Frequencies --    -17.8371                65.6757                90.3200
 Red. masses --      2.9180                 3.1748                 3.1193
 Frc consts  --      0.0005                 0.0081                 0.0150
 IR Inten    --      0.2872                 2.3230                 7.2212

                      7                      8                      9
                      A                      A                      A
 Frequencies --    119.3311               173.6631               221.2552
 Red. masses --      4.9111                 1.3322                 2.7577
 Frc consts  --      0.0412                 0.0237                 0.0795
 IR Inten    --      9.1157                 1.7725                11.8548

                     10                     11                     12
                      A                      A                      A
 Frequencies --    284.1443               312.5199               423.6559
 Red. masses --      3.3601                 3.0859                 3.8627
 Frc consts  --      0.1598                 0.1776                 0.4085
 IR Inten    --     33.9593                16.1320                 1.0855

                     13                     14                     15
                      A                      A                      A
 Frequencies --    572.3281               624.7093               765.8527
 Red. masses --      4.2250                 5.3350                 3.2583
 Frc consts  --      0.8154                 1.2267                 1.1260
 IR Inten    --      2.8026                12.9537                82.4315

                     16                     17                     18
                      A                      A                      A
 Frequencies --    792.9514               817.1499               835.7208
 Red. masses --      1.5088                 1.2760                 1.6931
 Frc consts  --      0.5590                 0.5020                 0.6967
 IR Inten    --     56.4929                 5.5340                15.6155

                     19                     20                     21
                      A                      A                      A
 Frequencies --    899.4117               945.4929              1113.3071
 Red. masses --      3.4185                 2.5315                 4.1603
 Frc consts  --      1.6293                 1.3333                 3.0381
 IR Inten    --     20.9461                 5.5574                 8.1152

                     22                     23                     24
                      A                      A                      A
 Frequencies --   1159.4220              1228.6098              1329.9967
 Red. masses --      2.0874                 1.7538                 1.8418
 Frc consts  --      1.6533                 1.5597                 1.9196
 IR Inten    --     18.7994                 4.5060               291.0156

                     25                     26                     27
                      A                      A                      A
 Frequencies --   1374.0820              1444.1499              1457.3913
 Red. masses --      1.8429                 1.3843                 1.2713
 Frc consts  --      2.0501                 1.7010                 1.5909
 IR Inten    --    303.9370                41.9590                16.8252

                     28                     29                     30
                      A                      A                      A
 Frequencies --   1525.7046              1536.4830              1544.3009
 Red. masses --      1.0415                 1.0611                 1.0844
 Frc consts  --      1.4284                 1.4759                 1.5237
 IR Inten    --     14.6244                 2.0551                26.8407

                     31                     32                     33
                      A                      A                      A
 Frequencies --   1907.0198              2310.3575              3107.7129
 Red. masses --     12.2561                 5.6278                 1.0351
 Frc consts  --     26.2611                17.6991                 5.8899
 IR Inten    --    308.3765                60.6605                13.3681

                     34                     35                     36
                      A                      A                      A
 Frequencies --   3135.9121              3187.7794              3190.1255
 Red. masses --      1.0601                 1.1020                 1.1011
 Frc consts  --      6.1424                 6.5981                 6.6021
 IR Inten    --     21.7661                 7.4286                13.6497

                     37                     38                     39
                      A                      A                      A
 Frequencies --   3211.0881              3529.1358              3803.5879
 Red. masses --      1.1050                 1.1755                 1.0671
 Frc consts  --      6.7128                 8.6260                 9.0962
 IR Inten    --     17.6678                60.1487                 9.7019

 - Thermochemistry -
 -------------------
 Temperature   298.150 Kelvin.  Pressure   1.00000 Atm.
 Atom     1 has atomic number  6 and mass  12.00000

 Molecular mass:   115.03952 amu.
 Principal axes and moments of inertia in atomic units:
                           1         2         3
     Eigenvalues --   534.639721383.083111553.02753
           X            0.99995   0.00997  -0.00148
           Y           -0.00986   0.99801   0.06223
           Z            0.00210  -0.06222   0.99806
 This molecule is an asymmetric top.
 Rotational symmetry number  1.
 Warning -- assumption of classical behavior for rotation
           may cause significant error
 Rotational temperatures (Kelvin)      0.16200     0.06262     0.05577
 Rotational constants (GHZ):           3.37562     1.30487     1.16208
    4 imaginary frequencies ignored.
 Zero-point vibrational energy     293326.4 (Joules/Mol)
                                   70.10670 (Kcal/Mol)
 Warning -- explicit consideration of   9 degrees of freedom as
           vibrations may cause significant error
 Vibrational temperatures:     94.49   129.95   171.69   249.86   318.34
          (Kelvin)            408.82   449.65   609.55   823.45   898.82
                             1101.89  1140.88  1175.70  1202.42  1294.05
                             1360.35  1601.80  1668.15  1767.70  1913.57
                             1977.00  2077.81  2096.86  2195.15  2210.66
                             2221.90  2743.78  3324.09  4471.31  4511.88
                             4586.50  4589.88  4620.04  5077.64  5472.51

 Zero-point correction=                           0.111722 (Hartree/Particle)
 Thermal correction to Energy=                    0.119908
 Thermal correction to Enthalpy=                  0.120853
 Thermal correction to Gibbs Free Energy=         0.077421
 Sum of electronic and zero-point Energies=           -419.849344
 Sum of electronic and thermal Energies=              -419.841157
 Sum of electronic and thermal Enthalpies=            -419.840213
 Sum of electronic and thermal Free Energies=         -419.883644

                     E (Thermal)             CV                S
                      KCal/Mol        Cal/Mol-Kelvin    Cal/Mol-Kelvin
 Total                   75.244             27.213             91.409
 Electronic               0.000              0.000              1.377
 Translational            0.889              2.981             40.136
 Rotational               0.889              2.981             28.531
 Vibrational             73.466             21.251             21.365
 Vibration     1          0.597              1.971              4.279
 Vibration     2          0.602              1.956              3.653
 Vibration     3          0.609              1.933              3.111
 Vibration     4          0.627              1.875              2.395
 Vibration     5          0.648              1.809              1.949
 Vibration     6          0.683              1.703              1.509
 Vibration     7          0.701              1.650              1.349
 Vibration     8          0.786              1.419              0.880
 Vibration     9          0.929              1.091              0.500

 Normal termination of Gaussian 16 at Fri Jun 20 14:05:46 2025.
