 Gaussian 16, Revision A.03,
 Gaussian 16:  ES64L-G16RevA.03 25-Dec-2016

 --------------------------
 # ccsd(t)/6-311++g(d,p) sp
 --------------------------

 -------------------
 Title Card Required
 -------------------
 Symbolic Z-matrix:
 Charge =  0 Multiplicity = 2

                         Standard orientation:
 ---------------------------------------------------------------------
 Center     Atomic      Atomic             Coordinates (Angstroms)
 Number     Number       Type             X           Y           Z
 ---------------------------------------------------------------------
      1          6           0       -2.780784   -0.492539   -0.445206
      2          1           0       -3.806266   -0.573830   -0.723139
      3          6           0       -1.620326   -0.274459   -0.138381
      4          6           0       -0.220972   -0.562548    0.227713
      5          8           0        0.108879   -0.920120    1.322008
      6          8           0        0.581007   -0.359580   -0.807690
      7          6           0        1.995771   -0.446062   -0.536773
      8          6           0        2.483687    0.820364    0.138089
      9          1           0        2.444972   -0.581836   -1.518727
     10          1           0        2.182854   -1.328756    0.075655
     11          1           0        3.565559    0.769346    0.275418
     12          1           0        2.247794    1.690819   -0.475174
     13          1           0        2.015575    0.938677    1.115670
     14          8           0       -1.409865    1.658905    0.103637
     15          1           0       -2.034915    1.783413    0.834000
 ---------------------------------------------------------------------

 SCF Done:  E(UHF) =  -417.978079717     A.U. after   35 cycles
 E2 =    -0.1256470859D+01 EUMP2 =    -0.41923455057521D+03
 CCSD(T)= -0.41935382380D+03

 The electronic state is 2-A.
 Alpha  occ. eigenvalues --  -20.62059 -20.60953 -20.55490 -11.41289 -11.29424
 Alpha  occ. eigenvalues --  -11.27259 -11.26719 -11.22186  -1.48023  -1.37905
 Alpha  occ. eigenvalues --   -1.37626  -1.08010  -1.04233  -0.92555  -0.83626
 Alpha  occ. eigenvalues --   -0.76362  -0.73126  -0.69256  -0.68859  -0.65641
 Alpha  occ. eigenvalues --   -0.64163  -0.62672  -0.57670  -0.55636  -0.53809
 Alpha  occ. eigenvalues --   -0.52938  -0.50165  -0.47715  -0.45715  -0.43245
 Alpha  occ. eigenvalues --   -0.42245
 Alpha virt. eigenvalues --    0.03708   0.04618   0.05653   0.06825   0.07014
 Alpha virt. eigenvalues --    0.08739   0.09656   0.10548   0.11177   0.11742
 Alpha virt. eigenvalues --    0.13358   0.13917   0.14708   0.15686   0.16801

  Beta  occ. eigenvalues --  -20.60958 -20.58392 -20.55887 -11.40926 -11.29425
  Beta  occ. eigenvalues --  -11.28725 -11.24919 -11.22188  -1.48175  -1.38302
  Beta  occ. eigenvalues --   -1.25036  -1.07724  -1.03389  -0.91492  -0.82925
  Beta  occ. eigenvalues --   -0.76133  -0.71978  -0.69517  -0.67546  -0.63222
  Beta  occ. eigenvalues --   -0.62803  -0.58034  -0.55590  -0.53910  -0.50239
  Beta  occ. eigenvalues --   -0.50029  -0.48478  -0.46941  -0.44554  -0.42311
  Beta virt. eigenvalues --    0.03784   0.04448   0.04704   0.06615   0.07013
  Beta virt. eigenvalues --    0.07945   0.08884   0.09733   0.10732   0.11995
  Beta virt. eigenvalues --    0.12048   0.13565   0.14459   0.15553   0.15955

 Mulliken charges and spin densities:
               1          2
     1  C   -0.663755   1.171639
     2  H    0.215877  -0.085607
     3  C    0.873402  -1.023945
     4  C   -0.436395   0.187805
     5  O   -0.281614  -0.081247
     6  O   -0.033378   0.002783
     7  C   -0.163653   0.001290
     8  C   -0.387209   0.001599
     9  H    0.165465   0.000065
    10  H    0.172404   0.000311
    11  H    0.138019  -0.000264
    12  H    0.150555  -0.000638
    13  H    0.177907  -0.000300
    14  O   -0.173499   0.858729
    15  H    0.245874  -0.032220
 Sum of Mulliken charges =  -0.00000   1.00000

 Dipole moment (field-independent basis, Debye):
    X=             -0.8027    Y=              0.4023    Z=             -0.7423  Tot=              1.1650
 Quadrupole moment (field-independent basis, Debye-Ang):
   XX=            -30.4003   YY=            -48.3430   ZZ=            -51.5912
   XY=             -0.7397   XZ=             -1.9921   YZ=              5.4916

 PMP3-0=-419.2804832\MP4SDQ=-419.2923484\CCSD=-419.2993046\CCSD(T)=-419
 Normal termination of Gaussian 16 at Wed Aug 27 21:16:22 2025.
