 Gaussian 16, Revision A.03,
 Gaussian 16:  ES64L-G16RevA.03 25-Dec-2016

 --------------------------
 # freq 6-311++g(d,p) m062x
 --------------------------

 -------------------
 Title Card Required
 -------------------
 Symbolic Z-matrix:
 Charge =  0 Multiplicity = 2

                         Standard orientation:
 ---------------------------------------------------------------------
 Center     Atomic      Atomic             Coordinates (Angstroms)
 Number     Number       Type             X           Y           Z
 ---------------------------------------------------------------------
      1          6           0       -2.767314   -0.507033   -0.458967
      2          1           0       -3.796194   -0.555684   -0.739486
      3          6           0       -1.612949   -0.105030   -0.119160
      4          6           0       -0.222484   -0.563601    0.214331
      5          8           0        0.105625   -0.955849    1.297124
      6          8           0        0.582188   -0.341462   -0.815677
      7          6           0        1.997632   -0.430479   -0.545592
      8          6           0        2.481241    0.821139    0.160076
      9          1           0        2.448419   -0.541260   -1.529902
     10          1           0        2.186585   -1.326987    0.045638
     11          1           0        3.563024    0.768845    0.297655
     12          1           0        2.244098    1.705557   -0.432303
     13          1           0        2.011824    0.915462    1.139675
     14          8           0       -1.422800    1.550357    0.126174
     15          1           0       -2.034621    1.719725    0.853629
 ---------------------------------------------------------------------

 SCF Done:  E(UM062X) =  -420.221754989     A.U. after   18 cycles

 The electronic state is 2-A.
 Alpha  occ. eigenvalues --  -19.68158 -19.64532 -19.63195 -10.70251 -10.63393
 Alpha  occ. eigenvalues --  -10.60378 -10.59491 -10.53384  -1.25701  -1.16414
 Alpha  occ. eigenvalues --   -1.11862  -0.91106  -0.87557  -0.78092  -0.70885
 Alpha  occ. eigenvalues --   -0.64606  -0.61925  -0.59029  -0.58025  -0.54122
 Alpha  occ. eigenvalues --   -0.53026  -0.49787  -0.48162  -0.46180  -0.45136
 Alpha  occ. eigenvalues --   -0.41732  -0.40594  -0.39536  -0.38369  -0.36090
 Alpha  occ. eigenvalues --   -0.31279
 Alpha virt. eigenvalues --   -0.00249   0.00390   0.01133   0.01278   0.02266
 Alpha virt. eigenvalues --    0.02711   0.03270   0.04367   0.05792   0.06149
 Alpha virt. eigenvalues --    0.07169   0.07743   0.08421   0.10047   0.10516

  Beta  occ. eigenvalues --  -19.68154 -19.64002 -19.63198 -10.70194 -10.63552
  Beta  occ. eigenvalues --  -10.60377 -10.58849 -10.53384  -1.25660  -1.16406
  Beta  occ. eigenvalues --   -1.09997  -0.89934  -0.86441  -0.77403  -0.69989
  Beta  occ. eigenvalues --   -0.64388  -0.60985  -0.58725  -0.57701  -0.53359
  Beta  occ. eigenvalues --   -0.52876  -0.48742  -0.47149  -0.45306  -0.43792
  Beta  occ. eigenvalues --   -0.41664  -0.39413  -0.38978  -0.38310  -0.34673
  Beta virt. eigenvalues --   -0.08576  -0.00226   0.00455   0.01471   0.02141
  Beta virt. eigenvalues --    0.02359   0.02764   0.03465   0.04421   0.05765
  Beta virt. eigenvalues --    0.06003   0.07270   0.07650   0.08460   0.09858

 Mulliken charges and spin densities:
               1          2
     1  C   -0.021137   1.016348
     2  H    0.221481  -0.028408
     3  C    0.115539  -0.310340
     4  C   -0.342223   0.061061
     5  O   -0.209130  -0.000786
     6  O    0.047651   0.003788
     7  C   -0.279994   0.001753
     8  C   -0.420491   0.001547
     9  H    0.195315   0.000239
    10  H    0.189465  -0.000273
    11  H    0.166256  -0.000078
    12  H    0.173898  -0.000246
    13  H    0.189844  -0.000604
    14  O   -0.283163   0.255877
    15  H    0.256689   0.000120
 Sum of Mulliken charges =  -0.00000   1.00000

 Dipole moment (field-independent basis, Debye):
    X=             -0.6683    Y=             -0.3708    Z=             -0.7837  Tot=              1.0946
 Quadrupole moment (field-independent basis, Debye-Ang):
   XX=            -30.4804   YY=            -50.0088   ZZ=            -50.9379
   XY=              0.5428   XZ=             -1.5982   YZ=              4.9472

  Exact polarizability:  87.928   6.023  66.471   3.550   1.990  59.245
 Approx polarizability:  90.068   8.089  78.958   5.347   0.158  76.661

 ******    1 imaginary frequencies (negative Signs) ******

                      1                      2                      3
                      A                      A                      A
 Frequencies --   -455.1603                42.1274                93.1427
 Red. masses --      4.6121                 1.4041                 3.9757
 Frc consts  --      0.5630                 0.0015                 0.0203
 IR Inten    --     99.3942                31.8791                 7.8180

                      4                      5                      6
                      A                      A                      A
 Frequencies --    110.6942               137.1633               188.8688
 Red. masses --      2.6994                 2.8759                 1.7125
 Frc consts  --      0.0195                 0.0319                 0.0360
 IR Inten    --      5.9023                24.0379                 8.0066

                      7                      8                      9
                      A                      A                      A
 Frequencies --    226.9156               245.8135               272.9811
 Red. masses --      1.3059                 1.8311                 5.8200
 Frc consts  --      0.0396                 0.0652                 0.2555
 IR Inten    --     32.9942                 1.7463                 0.3253

                     10                     11                     12
                      A                      A                      A
 Frequencies --    340.5093               357.9761               450.1251
 Red. masses --      3.1218                 9.8216                 3.5122
 Frc consts  --      0.2133                 0.7415                 0.4193
 IR Inten    --     11.6796                 1.1601                 8.1934

                     13                     14                     15
                      A                      A                      A
 Frequencies --    595.8338               639.9667               692.2962
 Red. masses --      3.9921                 4.8091                 1.4354
 Frc consts  --      0.8350                 1.1605                 0.4053
 IR Inten    --     10.2633                16.1420                39.9430

                     16                     17                     18
                      A                      A                      A
 Frequencies --    787.0568               801.9174               894.1458
 Red. masses --     10.5854                 1.2140                 3.2330
 Frc consts  --      3.8634                 0.4600                 1.5229
 IR Inten    --     14.2598                 4.8164                16.0030

                     19                     20                     21
                      A                      A                      A
 Frequencies --    918.5342              1060.5433              1093.8777
 Red. masses --      2.6894                 2.5100                 1.4142
 Frc consts  --      1.3369                 1.6633                 0.9970
 IR Inten    --      1.5176                16.2508                60.6722

                     22                     23                     24
                      A                      A                      A
 Frequencies --   1129.2036              1202.9495              1282.2223
 Red. masses --      2.0761                 1.7733                 3.9275
 Frc consts  --      1.5597                 1.5119                 3.8044
 IR Inten    --     22.5638                 7.6659               506.7206

                     25                     26                     27
                      A                      A                      A
 Frequencies --   1343.9139              1401.8991              1430.2632
 Red. masses --      1.2350                 1.2805                 1.3650
 Frc consts  --      1.3142                 1.4827                 1.6452
 IR Inten    --     82.6576                20.0748                11.7363

                     28                     29                     30
                      A                      A                      A
 Frequencies --   1491.7927              1501.8197              1514.1503
 Red. masses --      1.0400                 1.0543                 1.0924
 Frc consts  --      1.3637                 1.4010                 1.4757
 IR Inten    --     10.5289                 0.9097                18.6377

                     31                     32                     33
                      A                      A                      A
 Frequencies --   1809.4306              1868.0548              3076.8152
 Red. masses --      7.8430                10.6230                 1.0353
 Frc consts  --     15.1293                21.8412                 5.7746
 IR Inten    --     93.0828               247.3184                 9.0707

                     34                     35                     36
                      A                      A                      A
 Frequencies --   3109.8389              3154.1825              3155.3889
 Red. masses --      1.0608                 1.1011                 1.1052
 Frc consts  --      6.0444                 6.4540                 6.4831
 IR Inten    --     19.7677                16.4766                 0.0953

                     37                     38                     39
                      A                      A                      A
 Frequencies --   3177.0152              3431.9215              3860.3824
 Red. masses --      1.1075                 1.1227                 1.0676
 Frc consts  --      6.5862                 7.7910                 9.3735
 IR Inten    --     14.4696                76.6196                66.9381

 - Thermochemistry -
 -------------------
 Temperature   298.150 Kelvin.  Pressure   1.00000 Atm.
 Atom     1 has atomic number  6 and mass  12.00000

 Molecular mass:   115.03952 amu.
 Principal axes and moments of inertia in atomic units:
                           1         2         3
     Eigenvalues --   471.652031373.000001488.53608
           X            0.99993   0.01156   0.00025
           Y           -0.01153   0.99516   0.09757
           Z            0.00088  -0.09757   0.99523
 This molecule is an asymmetric top.
 Rotational symmetry number  1.
 Warning -- assumption of classical behavior for rotation
           may cause significant error
 Rotational temperatures (Kelvin)      0.18364     0.06308     0.05819
 Rotational constants (GHZ):           3.82643     1.31445     1.21243
    1 imaginary frequencies ignored.
 Zero-point vibrational energy     292437.5 (Joules/Mol)
                                   69.89424 (Kcal/Mol)
 Warning -- explicit consideration of  12 degrees of freedom as
           vibrations may cause significant error
 Vibrational temperatures:     60.61   134.01   159.26   197.35   271.74
          (Kelvin)            326.48   353.67   392.76   489.92   515.05
                              647.63   857.27   920.77   996.06  1132.40
                             1153.78  1286.48  1321.57  1525.89  1573.85
                             1624.67  1730.78  1844.83  1933.59  2017.02
                             2057.83  2146.36  2160.78  2178.52  2603.37
                             2687.71  4426.85  4474.36  4538.17  4539.90
                             4571.02  4937.77  5554.23

 Zero-point correction=                           0.111384 (Hartree/Particle)
 Thermal correction to Energy=                    0.121058
 Thermal correction to Enthalpy=                  0.122002
 Thermal correction to Gibbs Free Energy=         0.075653
 Sum of electronic and zero-point Energies=           -420.110371
 Sum of electronic and thermal Energies=              -420.100697
 Sum of electronic and thermal Enthalpies=            -420.099753
 Sum of electronic and thermal Free Energies=         -420.146102

                     E (Thermal)             CV                S
                      KCal/Mol        Cal/Mol-Kelvin    Cal/Mol-Kelvin
 Total                   75.965             32.364             97.549
 Electronic               0.000              0.000              1.377
 Translational            0.889              2.981             40.136
 Rotational               0.889              2.981             28.357
 Vibrational             74.188             26.402             27.679
 Vibration     1          0.595              1.980              5.156
 Vibration     2          0.602              1.954              3.593
 Vibration     3          0.607              1.941              3.257
 Vibration     4          0.614              1.916              2.843
 Vibration     5          0.633              1.855              2.239
 Vibration     6          0.651              1.800              1.903
 Vibration     7          0.660              1.770              1.760
 Vibration     8          0.676              1.723              1.577
 Vibration     9          0.720              1.595              1.210
 Vibration    10          0.733              1.559              1.131
 Vibration    11          0.809              1.361              0.795
 Vibration    12          0.954              1.041              0.457

 1\1\GINC-AJ\Freq\UM062X\6-311++G(d,p)\C5H7O3(2)\AAYUSH\23-Jun-2025\0\\
 # freq 6-311++g(d,p) m062x\\Title Card Required\\0,2\C,-2.767314,-0.50
 7033,-0.458967\H,-3.796194,-0.555684,-0.739486\C,-1.612949,-0.10503,-0
 .11916\C,-0.222484,-0.563601,0.214331\O,0.105625,-0.955849,1.297124\O,
 0.582188,-0.341462,-0.815677\C,1.997632,-0.430479,-0.545592\C,2.481241
 ,0.821139,0.160076\H,2.448419,-0.54126,-1.529902\H,2.186585,-1.326987,
 0.045638\H,3.563024,0.768845,0.297655\H,2.244098,1.705557,-0.432303\H,
 2.011824,0.915462,1.139675\O,-1.4228,1.550357,0.126174\H,-2.034621,1.7

 Normal termination of Gaussian 16 at Mon Jun 23 05:18:47 2025.
