 Gaussian 16, Revision A.03,
 Gaussian 16:  ES64L-G16RevA.03 25-Dec-2016

 --------------------------
 # freq 6-311++g(d,p) m062x
 --------------------------

 -------------------
 Title Card Required
 -------------------
 Symbolic Z-matrix:
 Charge =  0 Multiplicity = 2

                         Standard orientation:
 ---------------------------------------------------------------------
 Center     Atomic      Atomic             Coordinates (Angstroms)
 Number     Number       Type             X           Y           Z
 ---------------------------------------------------------------------
      1          6           0       -2.770078   -0.504546   -0.457087
      2          1           0       -3.797726   -0.563547   -0.738100
      3          6           0       -1.613677   -0.125720   -0.121787
      4          6           0       -0.221779   -0.563399    0.216257
      5          8           0        0.105981   -0.951030    1.300635
      6          8           0        0.581918   -0.343990   -0.814623
      7          6           0        1.997368   -0.432740   -0.544493
      8          6           0        2.481652    0.820884    0.156962
      9          1           0        2.447778   -0.547002   -1.528573
     10          1           0        2.185918   -1.327451    0.049611
     11          1           0        3.563447    0.768584    0.294449
     12          1           0        2.244677    1.703432   -0.438244
     13          1           0        2.012414    0.918596    1.136300
     14          8           0       -1.420805    1.564219    0.123238
     15          1           0       -2.034180    1.726922    0.851452
 ---------------------------------------------------------------------

 SCF Done:  E(UM062X) =  -420.217871790     A.U. after   19 cycles

 The electronic state is 2-A.
 Alpha  occ. eigenvalues --  -19.68192 -19.64399 -19.63222 -10.70359 -10.63219
 Alpha  occ. eigenvalues --  -10.60396 -10.59582 -10.53379  -1.25748  -1.16463
 Alpha  occ. eigenvalues --   -1.11438  -0.91254  -0.87621  -0.78153  -0.70919
 Alpha  occ. eigenvalues --   -0.64643  -0.62112  -0.58923  -0.57916  -0.53887
 Alpha  occ. eigenvalues --   -0.53074  -0.49705  -0.48155  -0.46133  -0.45135
 Alpha  occ. eigenvalues --   -0.41741  -0.40463  -0.39615  -0.38396  -0.36244
 Alpha  occ. eigenvalues --   -0.31377
 Alpha virt. eigenvalues --   -0.00254   0.00382   0.00932   0.01318   0.02278
 Alpha virt. eigenvalues --    0.02704   0.03193   0.04326   0.05780   0.06139
 Alpha virt. eigenvalues --    0.07132   0.07715   0.08391   0.10022   0.10498

  Beta  occ. eigenvalues --  -19.68188 -19.63788 -19.63229 -10.70303 -10.63379
  Beta  occ. eigenvalues --  -10.60395 -10.58976 -10.53380  -1.25713  -1.16463
  Beta  occ. eigenvalues --   -1.09287  -0.90058  -0.86574  -0.77492  -0.70079
  Beta  occ. eigenvalues --   -0.64422  -0.61219  -0.58705  -0.57551  -0.53095
  Beta  occ. eigenvalues --   -0.52792  -0.48771  -0.47031  -0.45271  -0.43245
  Beta  occ. eigenvalues --   -0.41681  -0.39231  -0.38958  -0.38366  -0.34850
  Beta virt. eigenvalues --   -0.08861  -0.00211   0.00458   0.01448   0.02073
  Beta virt. eigenvalues --    0.02355   0.02762   0.03392   0.04376   0.05753
  Beta virt. eigenvalues --    0.06019   0.07235   0.07600   0.08439   0.09876

 Mulliken charges and spin densities:
               1          2
     1  C   -0.027539   0.981378
     2  H    0.221613  -0.028908
     3  C    0.152708  -0.318603
     4  C   -0.368994   0.062432
     5  O   -0.208212  -0.002414
     6  O    0.048096   0.003323
     7  C   -0.279924   0.001583
     8  C   -0.419893   0.001830
     9  H    0.195429   0.000256
    10  H    0.189179  -0.000227
    11  H    0.166338  -0.000078
    12  H    0.174055  -0.000301
    13  H    0.189821  -0.000697
    14  O   -0.285537   0.301403
    15  H    0.252861  -0.000978
 Sum of Mulliken charges =  -0.00000   1.00000

 Dipole moment (field-independent basis, Debye):
    X=             -0.6902    Y=             -0.4748    Z=             -0.8061  Tot=              1.1626
 Quadrupole moment (field-independent basis, Debye-Ang):
   XX=            -30.2512   YY=            -50.0513   ZZ=            -50.9420
   XY=              0.7540   XZ=             -1.5352   YZ=              4.9512

  Exact polarizability:  88.176   6.186  67.422   3.644   2.149  59.271
 Approx polarizability:  90.754   8.442  80.139   5.571   0.348  76.715

 ******    1 imaginary frequencies (negative Signs) ******

                      1                      2                      3
                      A                      A                      A
 Frequencies --   -529.0924                75.9104                94.5052
 Red. masses --      6.9790                 2.0067                 4.2313
 Frc consts  --      1.1511                 0.0068                 0.0223
 IR Inten    --     65.8361                11.9892                 9.3875

                      4                      5                      6
                      A                      A                      A
 Frequencies --    111.7764               149.1777               188.4098
 Red. masses --      2.4543                 1.8175                 1.7408
 Frc consts  --      0.0181                 0.0238                 0.0364
 IR Inten    --      7.1186                48.9895                 6.6848

                      7                      8                      9
                      A                      A                      A
 Frequencies --    234.0743               246.2453               264.7017
 Red. masses --      1.3860                 1.5846                 5.2477
 Frc consts  --      0.0447                 0.0566                 0.2166
 IR Inten    --     28.1560                11.1112                 1.2790

                     10                     11                     12
                      A                      A                      A
 Frequencies --    339.0418               352.7074               447.8799
 Red. masses --      3.1392                 8.5814                 3.5378
 Frc consts  --      0.2126                 0.6290                 0.4181
 IR Inten    --     10.9191                 2.7133                 8.0195

                     13                     14                     15
                      A                      A                      A
 Frequencies --    590.0108               633.8323               694.1870
 Red. masses --      3.9983                 5.1984                 1.4054
 Frc consts  --      0.8201                 1.2305                 0.3990
 IR Inten    --      8.3317                15.1200                40.4006

                     16                     17                     18
                      A                      A                      A
 Frequencies --    782.7668               801.8620               894.2849
 Red. masses --     10.6763                 1.2120                 3.2411
 Frc consts  --      3.8542                 0.4592                 1.5272
 IR Inten    --     16.8576                 4.8691                16.3250

                     19                     20                     21
                      A                      A                      A
 Frequencies --    918.4771              1051.6991              1077.7031
 Red. masses --      2.6703                 1.5308                 2.1956
 Frc consts  --      1.3272                 0.9976                 1.5024
 IR Inten    --      1.6548                24.3041                54.0099

                     22                     23                     24
                      A                      A                      A
 Frequencies --   1129.1705              1203.0599              1282.5625
 Red. masses --      2.0788                 1.7728                 3.9091
 Frc consts  --      1.5616                 1.5118                 3.7886
 IR Inten    --     21.9888                 7.7945               509.0162

                     25                     26                     27
                      A                      A                      A
 Frequencies --   1344.1515              1402.0179              1430.4207
 Red. masses --      1.2368                 1.2808                 1.3658
 Frc consts  --      1.3166                 1.4833                 1.6465
 IR Inten    --     83.7701                20.3954                11.9801

                     28                     29                     30
                      A                      A                      A
 Frequencies --   1491.7075              1501.8352              1514.2868
 Red. masses --      1.0400                 1.0541                 1.0928
 Frc consts  --      1.3635                 1.4008                 1.4764
 IR Inten    --     10.5943                 0.9258                18.9315

                     31                     32                     33
                      A                      A                      A
 Frequencies --   1825.6226              1877.9052              3076.8603
 Red. masses --      8.5941                 9.4168                 1.0353
 Frc consts  --     16.8762                19.5659                 5.7748
 IR Inten    --    163.3207               179.8728                 9.0207

                     34                     35                     36
                      A                      A                      A
 Frequencies --   3109.7423              3154.2432              3155.4646
 Red. masses --      1.0608                 1.1011                 1.1052
 Frc consts  --      6.0441                 6.4543                 6.4834
 IR Inten    --     19.7360                16.3936                 0.0934

                     37                     38                     39
                      A                      A                      A
 Frequencies --   3177.0507              3439.6214              3856.6859
 Red. masses --      1.1075                 1.1244                 1.0676
 Frc consts  --      6.5862                 7.8378                 9.3561
 IR Inten    --     14.3957                79.9016                64.9803

 - Thermochemistry -
 -------------------
 Temperature   298.150 Kelvin.  Pressure   1.00000 Atm.
 Atom     1 has atomic number  6 and mass  12.00000

 Molecular mass:   115.03952 amu.
 Principal axes and moments of inertia in atomic units:
                           1         2         3
     Eigenvalues --   474.212351373.737761491.34060
           X            0.99993   0.01161   0.00017
           Y           -0.01157   0.99533   0.09579
           Z            0.00094  -0.09579   0.99540
 This molecule is an asymmetric top.
 Rotational symmetry number  1.
 Warning -- assumption of classical behavior for rotation
           may cause significant error
 Rotational temperatures (Kelvin)      0.18265     0.06305     0.05808
 Rotational constants (GHZ):           3.80577     1.31375     1.21015
    1 imaginary frequencies ignored.
 Zero-point vibrational energy     292616.5 (Joules/Mol)
                                   69.93703 (Kcal/Mol)
 Warning -- explicit consideration of  12 degrees of freedom as
           vibrations may cause significant error
 Vibrational temperatures:    109.22   135.97   160.82   214.63   271.08
          (Kelvin)            336.78   354.29   380.85   487.81   507.47
                              644.40   848.89   911.94   998.78  1126.23
                             1153.70  1286.68  1321.48  1513.16  1550.57
                             1624.62  1730.93  1845.32  1933.93  2017.19
                             2058.06  2146.23  2160.81  2178.72  2626.66
                             2701.89  4426.92  4474.23  4538.25  4540.01
                             4571.07  4948.85  5548.91

 Zero-point correction=                           0.111452 (Hartree/Particle)
 Thermal correction to Energy=                    0.121050
 Thermal correction to Enthalpy=                  0.121994
 Thermal correction to Gibbs Free Energy=         0.076263
 Sum of electronic and zero-point Energies=           -420.106420
 Sum of electronic and thermal Energies=              -420.096822
 Sum of electronic and thermal Enthalpies=            -420.095877
 Sum of electronic and thermal Free Energies=         -420.141609

                     E (Thermal)             CV                S
                      KCal/Mol        Cal/Mol-Kelvin    Cal/Mol-Kelvin
 Total                   75.960             32.405             96.250
 Electronic               0.000              0.000              1.377
 Translational            0.889              2.981             40.136
 Rotational               0.889              2.981             28.365
 Vibrational             74.183             26.443             26.372
 Vibration     1          0.599              1.965              3.994
 Vibration     2          0.603              1.953              3.565
 Vibration     3          0.607              1.940              3.238
 Vibration     4          0.618              1.904              2.683
 Vibration     5          0.633              1.856              2.243
 Vibration     6          0.654              1.789              1.847
 Vibration     7          0.661              1.769              1.757
 Vibration     8          0.671              1.738              1.631
 Vibration     9          0.719              1.597              1.217
 Vibration    10          0.729              1.570              1.154
 Vibration    11          0.807              1.366              0.802
 Vibration    12          0.947              1.053              0.467

 1\1\GINC-AJ\Freq\UM062X\6-311++G(d,p)\C5H7O3(2)\AAYUSH\16-Aug-2025\0\\
 # freq 6-311++g(d,p) m062x\\Title Card Required\\0,2\C,-2.714206,-0.48
 7658,-0.446363\H,-3.742219,-0.551551,-0.724963\C,-1.556876,-0.102967,-
 0.121097\C,-0.165356,-0.534874,0.225808\O,0.16283,-0.897548,1.318658\O
 ,0.637696,-0.340962,-0.810672\C,2.053262,-0.425664,-0.539853\C,2.54023
 2,0.843247,0.131614\H,2.502537,-0.563662,-1.521406\H,2.240952,-1.30652
 9,0.074858\H,3.622074,0.792422,0.269283\H,2.304097,1.712005,-0.483869\
 H,2.072098,0.964619,1.108831\O,-1.361059,1.591929,0.084121\H,-1.973469

 Normal termination of Gaussian 16 at Sat Aug 16 19:32:00 2025.
