 Gaussian 16, Revision A.03,
 Gaussian 16:  ES64L-G16RevA.03 25-Dec-2016

 --------------------------
 # ccsd(t)/6-311++g(d,p) sp
 --------------------------

 -------------------
 Title Card Required
 -------------------
 Symbolic Z-matrix:
 Charge =  0 Multiplicity = 2

                         Standard orientation:
 ---------------------------------------------------------------------
 Center     Atomic      Atomic             Coordinates (Angstroms)
 Number     Number       Type             X           Y           Z
 ---------------------------------------------------------------------
      1          6           0       -2.799953   -0.498404   -0.430207
      2          1           0       -3.832301   -0.499762   -0.692511
      3          6           0       -1.631517   -0.488839   -0.152522
      4          6           0       -0.226718   -0.593508    0.239868
      5          8           0        0.119296   -0.866298    1.355598
      6          8           0        0.576446   -0.388305   -0.796955
      7          6           0        1.990971   -0.464192   -0.525933
      8          6           0        2.487607    0.819429    0.107862
      9          1           0        2.438146   -0.632270   -1.503998
     10          1           0        2.178070   -1.327351    0.114103
     11          1           0        3.569993    0.767359    0.241180
     12          1           0        2.254043    1.672098   -0.530954
     13          1           0        2.024747    0.969070    1.083424
     14          8           0       -1.388039    1.823177    0.071645
     15          1           0       -2.016675    1.855353    0.812045
 ---------------------------------------------------------------------

 SCF Done:  E(UHF) =  -417.992363640     A.U. after   34 cycles
 E2 =    -0.1261365369D+01 EUMP2 =    -0.41925372900869D+03
 CCSD(T)= -0.41935772697D+03

 The electronic state is 2-A.
 Alpha  occ. eigenvalues --  -20.63200 -20.61047 -20.55685 -11.41496 -11.29450
 Alpha  occ. eigenvalues --  -11.26711 -11.25855 -11.22174  -1.48053  -1.38727
 Alpha  occ. eigenvalues --   -1.37773  -1.07716  -1.03981  -0.92420  -0.83641
 Alpha  occ. eigenvalues --   -0.76275  -0.73007  -0.69329  -0.68463  -0.66932
 Alpha  occ. eigenvalues --   -0.64872  -0.62968  -0.58027  -0.56170  -0.53875
 Alpha  occ. eigenvalues --   -0.53620  -0.50238  -0.47848  -0.46078  -0.42734
 Alpha  occ. eigenvalues --   -0.42266
 Alpha virt. eigenvalues --    0.03700   0.04608   0.05649   0.06811   0.06999
 Alpha virt. eigenvalues --    0.08803   0.09487   0.09829   0.10814   0.11846
 Alpha virt. eigenvalues --    0.13434   0.13910   0.14746   0.15928   0.16843

  Beta  occ. eigenvalues --  -20.61053 -20.59097 -20.55934 -11.41312 -11.29451
  Beta  occ. eigenvalues --  -11.26730 -11.25658 -11.22175  -1.48159  -1.38174
  Beta  occ. eigenvalues --   -1.23276  -1.07745  -1.03596  -0.91988  -0.83479
  Beta  occ. eigenvalues --   -0.76206  -0.72533  -0.69522  -0.66695  -0.63290
  Beta  occ. eigenvalues --   -0.62992  -0.58241  -0.55203  -0.53851  -0.50409
  Beta  occ. eigenvalues --   -0.50272  -0.48304  -0.46753  -0.42901  -0.42324
  Beta virt. eigenvalues --    0.03744   0.04540   0.05019   0.06709   0.06994
  Beta virt. eigenvalues --    0.08655   0.08984   0.09772   0.10244   0.11125
  Beta virt. eigenvalues --    0.12315   0.13584   0.14221   0.15007   0.16126

 Mulliken charges and spin densities:
               1          2
     1  C   -0.579901   0.487313
     2  H    0.223108  -0.033953
     3  C    1.140819  -0.429871
     4  C   -0.831237   0.065303
     5  O   -0.272453  -0.050841
     6  O   -0.024732   0.001080
     7  C   -0.137345   0.001362
     8  C   -0.382803   0.001388
     9  H    0.167467  -0.000013
    10  H    0.174373  -0.000298
    11  H    0.136941   0.000186
    12  H    0.148507  -0.000572
    13  H    0.180421   0.000684
    14  O   -0.175870   0.998077
    15  H    0.232703  -0.039845
 Sum of Mulliken charges =  -0.00000   1.00000

 Dipole moment (field-independent basis, Debye):
    X=             -0.7572    Y=              0.6582    Z=             -0.6232  Tot=              1.1810
 Quadrupole moment (field-independent basis, Debye-Ang):
   XX=            -30.4164   YY=            -48.0760   ZZ=            -51.9306
   XY=             -1.7180   XZ=             -2.2269   YZ=              5.4280

 MP3-0=-419.2851421\MP4SDQ=-419.3053549\CCSD=-419.3052906\CCSD(T)=-419.
 Normal termination of Gaussian 16 at Tue Aug  5 04:13:26 2025.
