 Gaussian 16, Revision A.03,
 Gaussian 16:  ES64L-G16RevA.03 25-Dec-2016

 --------------------------
 # freq 6-311++g(d,p) m062x
 --------------------------

 -------------------
 Title Card Required
 -------------------
 Symbolic Z-matrix:
 Charge =  0 Multiplicity = 2

                         Standard orientation:
 ---------------------------------------------------------------------
 Center     Atomic      Atomic             Coordinates (Angstroms)
 Number     Number       Type             X           Y           Z
 ---------------------------------------------------------------------
      1          6           0       -2.777341   -0.496337   -0.450012
      2          1           0       -3.802400   -0.578091   -0.730461
      3          6           0       -1.617375   -0.210377   -0.131773
      4          6           0       -0.220439   -0.562382    0.223238
      5          8           0        0.107439   -0.932995    1.313308
      6          8           0        0.581204   -0.353244   -0.810597
      7          6           0        1.996441   -0.440750   -0.540049
      8          6           0        2.482918    0.820413    0.145748
      9          1           0        2.445892   -0.567767   -1.523016
     10          1           0        2.183919   -1.328524    0.064807
     11          1           0        3.564754    0.768613    0.283108
     12          1           0        2.246559    1.695890   -0.460051
     13          1           0        2.014291    0.930429    1.124046
     14          8           0       -1.414138    1.618474    0.111897
     15          1           0       -2.034274    1.758162    0.841785
 ---------------------------------------------------------------------

 SCF Done:  E(UM062X) =  -420.206033365     A.U. after   22 cycles

 The electronic state is 2-A.
 Alpha  occ. eigenvalues --  -19.68234 -19.64451 -19.63231 -10.70659 -10.61858
 Alpha  occ. eigenvalues --  -10.60423 -10.59561 -10.53368  -1.25820  -1.16535
 Alpha  occ. eigenvalues --   -1.10801  -0.91523  -0.87716  -0.78268  -0.70943
 Alpha  occ. eigenvalues --   -0.64697  -0.62503  -0.58771  -0.57541  -0.53302
 Alpha  occ. eigenvalues --   -0.53150  -0.49748  -0.48215  -0.46002  -0.45117
 Alpha  occ. eigenvalues --   -0.41771  -0.40361  -0.39687  -0.38425  -0.36700
 Alpha  occ. eigenvalues --   -0.32333
 Alpha virt. eigenvalues --   -0.00288  -0.00021   0.00476   0.01463   0.02452
 Alpha virt. eigenvalues --    0.02697   0.03074   0.04259   0.05734   0.06128
 Alpha virt. eigenvalues --    0.07046   0.07617   0.08354   0.09913   0.10509

  Beta  occ. eigenvalues --  -19.68234 -19.63457 -19.63248 -10.70613 -10.61997
  Beta  occ. eigenvalues --  -10.60423 -10.59116 -10.53369  -1.25806  -1.16563
  Beta  occ. eigenvalues --   -1.07201  -0.90435  -0.86952  -0.77781  -0.70370
  Beta  occ. eigenvalues --   -0.64490  -0.61790  -0.58678  -0.57158  -0.53164
  Beta  occ. eigenvalues --   -0.51572  -0.48898  -0.46770  -0.45212  -0.41734
  Beta  occ. eigenvalues --   -0.41060  -0.39508  -0.38502  -0.38089  -0.35335
  Beta virt. eigenvalues --   -0.09883  -0.00182   0.00468   0.01224   0.01857
  Beta virt. eigenvalues --    0.02459   0.02772   0.03234   0.04297   0.05743
  Beta virt. eigenvalues --    0.06071   0.07154   0.07477   0.08426   0.09919

 Mulliken charges and spin densities:
               1          2
     1  C   -0.135192   0.773649
     2  H    0.215737  -0.026116
     3  C    0.377246  -0.307449
     4  C   -0.482912   0.054596
     5  O   -0.204350  -0.008825
     6  O    0.050761   0.001538
     7  C   -0.280054   0.000680
     8  C   -0.417242   0.003019
     9  H    0.195568   0.000297
    10  H    0.188232  -0.000069
    11  H    0.167100  -0.000075
    12  H    0.174054  -0.000518
    13  H    0.189433  -0.001099
    14  O   -0.277982   0.518781
    15  H    0.239602  -0.008410
 Sum of Mulliken charges =  -0.00000   1.00000

 Dipole moment (field-independent basis, Debye):
    X=             -0.7393    Y=             -0.6248    Z=             -0.8349  Tot=              1.2783
 Quadrupole moment (field-independent basis, Debye-Ang):
   XX=            -29.6487   YY=            -49.9264   ZZ=            -50.9844
   XY=              1.1124   XZ=             -1.4203   YZ=              4.9878

  Exact polarizability:  89.600   7.258  71.871   4.202   2.933  59.469
 Approx polarizability:  94.280   9.732  83.019   6.679   0.858  76.929

 ******    1 imaginary frequencies (negative Signs) ******

                      1                      2                      3
                      A                      A                      A
 Frequencies --   -687.5313                76.8556                85.0719
 Red. masses --     12.3474                 3.2336                 4.5885
 Frc consts  --      3.4388                 0.0113                 0.0196
 IR Inten    --      3.1961                 1.4894                 6.6828

                      4                      5                      6
                      A                      A                      A
 Frequencies --    117.4481               174.4811               205.6541
 Red. masses --      3.2039                 2.0390                 1.3716
 Frc consts  --      0.0260                 0.0366                 0.0342
 IR Inten    --      1.2563                22.9221                58.3770

                      7                      8                      9
                      A                      A                      A
 Frequencies --    224.2608               236.6805               284.9409
 Red. masses --      4.0649                 1.7896                 2.5505
 Frc consts  --      0.1204                 0.0591                 0.1220
 IR Inten    --      1.0130                 4.5423                 9.5289

                     10                     11                     12
                      A                      A                      A
 Frequencies --    338.2497               436.7591               495.2805
 Red. masses --      3.0867                 3.4459                 1.4118
 Frc consts  --      0.2081                 0.3873                 0.2040
 IR Inten    --     10.4480                 3.5582                35.7288

                     13                     14                     15
                      A                      A                      A
 Frequencies --    572.2584               614.7923               706.9548
 Red. masses --      3.9056                 6.4869                 1.3421
 Frc consts  --      0.7536                 1.4446                 0.3952
 IR Inten    --      6.1562                12.2671                40.3891

                     16                     17                     18
                      A                      A                      A
 Frequencies --    768.9104               802.2303               894.7040
 Red. masses --     10.0405                 1.2115                 3.1117
 Frc consts  --      3.4975                 0.4594                 1.4676
 IR Inten    --     29.1929                 4.9893                17.1517

                     19                     20                     21
                      A                      A                      A
 Frequencies --    916.7296               941.9890              1070.4235
 Red. masses --      2.1642                 1.2984                 4.0320
 Frc consts  --      1.0716                 0.6788                 2.7219
 IR Inten    --      9.3257                56.8532                28.8900

                     22                     23                     24
                      A                      A                      A
 Frequencies --   1129.2777              1203.4662              1283.4947
 Red. masses --      2.0798                 1.7715                 3.8808
 Frc consts  --      1.5627                 1.5117                 3.7666
 IR Inten    --     21.4400                 7.9935               522.2431

                     25                     26                     27
                      A                      A                      A
 Frequencies --   1344.7664              1402.2067              1430.7954
 Red. masses --      1.2390                 1.2811                 1.3692
 Frc consts  --      1.3202                 1.4840                 1.6515
 IR Inten    --     86.1684                21.6571                13.1127

                     28                     29                     30
                      A                      A                      A
 Frequencies --   1491.4481              1501.9698              1514.7161
 Red. masses --      1.0400                 1.0537                 1.0935
 Frc consts  --      1.3630                 1.4006                 1.4782
 IR Inten    --     10.8545                 1.0679                20.1691

                     31                     32                     33
                      A                      A                      A
 Frequencies --   1847.3264              1975.3221              3076.7451
 Red. masses --     11.5852                 7.0323                 1.0353
 Frc consts  --     23.2939                16.1668                 5.7744
 IR Inten    --    333.6066                51.5970                 8.8733

                     34                     35                     36
                      A                      A                      A
 Frequencies --   3109.2513              3154.1358              3155.3256
 Red. masses --      1.0608                 1.1011                 1.1052
 Frc consts  --      6.0423                 6.4540                 6.4830
 IR Inten    --     19.6405                16.2404                 0.1650

                     37                     38                     39
                      A                      A                      A
 Frequencies --   3176.8093              3459.7058              3837.5598
 Red. masses --      1.1074                 1.1334                 1.0677
 Frc consts  --      6.5850                 7.9931                 9.2643
 IR Inten    --     14.2777                78.9537                60.7475

 - Thermochemistry -
 -------------------
 Temperature   298.150 Kelvin.  Pressure   1.00000 Atm.
 Atom     1 has atomic number  6 and mass  12.00000

 Molecular mass:   115.03952 amu.
 Principal axes and moments of inertia in atomic units:
                           1         2         3
     Eigenvalues --   484.893351375.967691502.53188
           X            0.99993   0.01157  -0.00016
           Y           -0.01151   0.99601   0.08846
           Z            0.00119  -0.08846   0.99608
 This molecule is an asymmetric top.
 Rotational symmetry number  1.
 Warning -- assumption of classical behavior for rotation
           may cause significant error
 Rotational temperatures (Kelvin)      0.17862     0.06295     0.05765
 Rotational constants (GHZ):           3.72193     1.31162     1.20113
    1 imaginary frequencies ignored.
 Zero-point vibrational energy     293438.0 (Joules/Mol)
                                   70.13336 (Kcal/Mol)
 Warning -- explicit consideration of  13 degrees of freedom as
           vibrations may cause significant error
 Vibrational temperatures:    110.58   122.40   168.98   251.04   295.89
          (Kelvin)            322.66   340.53   409.97   486.67   628.40
                              712.60   823.35   884.55  1017.15  1106.29
                             1154.23  1287.28  1318.97  1355.31  1540.10
                             1624.78  1731.52  1846.66  1934.82  2017.46
                             2058.60  2145.86  2161.00  2179.34  2657.89
                             2842.05  4426.75  4473.52  4538.10  4539.81
                             4570.72  4977.75  5521.39

 Zero-point correction=                           0.111765 (Hartree/Particle)
 Thermal correction to Energy=                    0.121216
 Thermal correction to Enthalpy=                  0.122160
 Thermal correction to Gibbs Free Energy=         0.076743
 Sum of electronic and zero-point Energies=           -420.094269
 Sum of electronic and thermal Energies=              -420.084818
 Sum of electronic and thermal Enthalpies=            -420.083874
 Sum of electronic and thermal Free Energies=         -420.129290

                     E (Thermal)             CV                S
                      KCal/Mol        Cal/Mol-Kelvin    Cal/Mol-Kelvin
 Total                   76.064             32.261             95.588
 Electronic               0.000              0.000              1.377
 Translational            0.889              2.981             40.136
 Rotational               0.889              2.981             28.396
 Vibrational             74.286             26.299             25.678
 Vibration     1          0.599              1.965              3.970
 Vibration     2          0.601              1.960              3.770
 Vibration     3          0.608              1.935              3.142
 Vibration     4          0.627              1.874              2.387
 Vibration     5          0.640              1.832              2.082
 Vibration     6          0.649              1.804              1.924
 Vibration     7          0.656              1.785              1.828
 Vibration     8          0.683              1.702              1.504
 Vibration     9          0.719              1.599              1.220
 Vibration    10          0.797              1.390              0.837
 Vibration    11          0.851              1.260              0.670
 Vibration    12          0.928              1.091              0.500
 Vibration    13          0.974              1.001              0.425

 1\1\GINC-AJ\Freq\UM062X\6-311++G(d,p)\C5H7O3(2)\AAYUSH\23-Jun-2025\0\\
 # freq 6-311++g(d,p) m062x\\Title Card Required\\0,2\C,-2.777341,-0.49
 6337,-0.450012\H,-3.8024,-0.578091,-0.730461\C,-1.617375,-0.210377,-0.
 131773\C,-0.220439,-0.562382,0.223238\O,0.107439,-0.932995,1.313308\O,
 0.581204,-0.353244,-0.810597\C,1.996441,-0.44075,-0.540049\C,2.482918,
 0.820413,0.145748\H,2.445892,-0.567767,-1.523016\H,2.183919,-1.328524,
 0.064807\H,3.564754,0.768613,0.283108\H,2.246559,1.69589,-0.460051\H,2
 .014291,0.930429,1.124046\O,-1.414138,1.618474,0.111897\H,-2.034274,1.

 Normal termination of Gaussian 16 at Mon Jun 23 05:40:54 2025.
