 Gaussian 16, Revision A.03,
 Gaussian 16:  ES64L-G16RevA.03 25-Dec-2016

 -------------------
 # freq 6-31+g m062x
 -------------------

 -------------------
 Title Card Required
 -------------------
 Symbolic Z-matrix:
 Charge =  0 Multiplicity = 2

                         Standard orientation:
 ---------------------------------------------------------------------
 Center     Atomic      Atomic             Coordinates (Angstroms)
 Number     Number       Type             X           Y           Z
 ---------------------------------------------------------------------
      1          6           0       -2.775994   -0.498105   -0.451719
      2          1           0       -3.801325   -0.576805   -0.732624
      3          6           0       -1.616354   -0.189017   -0.129368
      4          6           0       -0.220551   -0.562605    0.221600
      5          8           0        0.107048   -0.937357    1.310304
      6          8           0        0.581329   -0.351040   -0.811581
      7          6           0        1.996658   -0.438878   -0.541161
      8          6           0        2.482646    0.820463    0.148401
      9          1           0        2.446271   -0.562855   -1.524434
     10          1           0        2.184332   -1.328360    0.061098
     11          1           0        3.564473    0.768465    0.285765
     12          1           0        2.246136    1.697656   -0.454838
     13          1           0        2.013873    0.927566    1.126953
     14          8           0       -1.415644    1.605044    0.114685
     15          1           0       -2.034057    1.750008    0.844297
 ---------------------------------------------------------------------

 SCF Done:  E(UM062X) =  -419.957304076     A.U. after   21 cycles

 The electronic state is 2-A.
 Alpha  occ. eigenvalues --  -19.70609 -19.67106 -19.66476 -10.73040 -10.63850
 Alpha  occ. eigenvalues --  -10.61419 -10.61235 -10.54167  -1.28238  -1.18887
 Alpha  occ. eigenvalues --   -1.12219  -0.92332  -0.88395  -0.78743  -0.71585
 Alpha  occ. eigenvalues --   -0.64853  -0.62982  -0.59147  -0.57650  -0.53736
 Alpha  occ. eigenvalues --   -0.53436  -0.49754  -0.48114  -0.46333  -0.45139
 Alpha  occ. eigenvalues --   -0.41817  -0.40478  -0.39667  -0.38185  -0.36817
 Alpha  occ. eigenvalues --   -0.31960
 Alpha virt. eigenvalues --   -0.00207   0.01726   0.02251   0.02826   0.03734
 Alpha virt. eigenvalues --    0.04287   0.05594   0.06026   0.07701   0.07828
 Alpha virt. eigenvalues --    0.08871   0.08922   0.09886   0.11560   0.12076

  Beta  occ. eigenvalues --  -19.70607 -19.66495 -19.66158 -10.72981 -10.64017
  Beta  occ. eigenvalues --  -10.61418 -10.60719 -10.54168  -1.28219  -1.18902
  Beta  occ. eigenvalues --   -1.09012  -0.91264  -0.87715  -0.78300  -0.71015
  Beta  occ. eigenvalues --   -0.64639  -0.62122  -0.58903  -0.57383  -0.53658
  Beta  occ. eigenvalues --   -0.51844  -0.49093  -0.46821  -0.45298  -0.41749
  Beta  occ. eigenvalues --   -0.41648  -0.39448  -0.38427  -0.38205  -0.35388
  Beta virt. eigenvalues --   -0.09903   0.01021   0.01630   0.02278   0.02892
  Beta virt. eigenvalues --    0.03819   0.04322   0.05570   0.05892   0.07666
  Beta virt. eigenvalues --    0.07739   0.08741   0.08916   0.10073   0.11465

 Mulliken charges and spin densities:
               1          2
     1  C    0.426107   0.837042
     2  H    0.301047  -0.030494
     3  C   -0.423969  -0.333595
     4  C   -0.017324   0.067546
     5  O   -0.345698  -0.007824
     6  O   -0.167547   0.000630
     7  C   -0.255772   0.000764
     8  C   -0.556096   0.000959
     9  H    0.221584  -0.000017
    10  H    0.234892  -0.000167
    11  H    0.204536  -0.000074
    12  H    0.230769   0.000004
    13  H    0.235390   0.000056
    14  O   -0.500244   0.479272
    15  H    0.412324  -0.014102
 Sum of Mulliken charges =  -0.00000   1.00000

 Dipole moment (field-independent basis, Debye):
    X=             -0.8561    Y=             -0.6571    Z=             -0.5897  Tot=              1.2298
 Quadrupole moment (field-independent basis, Debye-Ang):
   XX=            -29.1428   YY=            -50.4855   ZZ=            -52.1172
   XY=              0.8168   XZ=             -1.8168   YZ=              5.5503

  Exact polarizability:  85.169   7.164  67.814   3.616   2.137  57.019
 Approx polarizability:  87.451  10.639  74.801   6.669  -0.421  71.584

 ******    3 imaginary frequencies (negative Signs) ******

                      1                      2                      3
                      A                      A                      A
 Frequencies --   -676.8054              -462.7947               -72.1060
 Red. masses --     11.9048                 1.0745                 6.6844
 Frc consts  --      3.2129                 0.1356                 0.0205
 IR Inten    --      0.8259               113.0329                 5.6508

                      4                      5                      6
                      A                      A                      A
 Frequencies --     22.2375                45.4060               132.1371
 Red. masses --      2.6365                 3.6472                 2.1680
 Frc consts  --      0.0008                 0.0044                 0.0223
 IR Inten    --      1.4596                 6.2530                 5.6665

                      7                      8                      9
                      A                      A                      A
 Frequencies --    187.1196               215.9236               274.1350
 Red. masses --      1.6242                 7.2881                 2.7148
 Frc consts  --      0.0335                 0.2002                 0.1202
 IR Inten    --      2.3284                 1.1632                 9.3439

                     10                     11                     12
                      A                      A                      A
 Frequencies --    309.1568               418.1498               433.4863
 Red. masses --      3.0277                 1.7114                 2.8619
 Frc consts  --      0.1705                 0.1763                 0.3168
 IR Inten    --     14.8980                16.5344                28.3252

                     13                     14                     15
                      A                      A                      A
 Frequencies --    567.0550               618.4055               716.6358
 Red. masses --      3.5398                 6.1391                 7.6259
 Frc consts  --      0.6706                 1.3833                 2.3075
 IR Inten    --     13.9137                16.1920                39.3855

                     16                     17                     18
                      A                      A                      A
 Frequencies --    722.6283               816.2190               865.9383
 Red. masses --      1.3532                 1.3152                 1.2617
 Frc consts  --      0.4163                 0.5162                 0.5574
 IR Inten    --     50.6828                 8.2073                54.6276

                     19                     20                     21
                      A                      A                      A
 Frequencies --    894.1037               941.6063              1104.8523
 Red. masses --      3.1685                 2.4250                 4.1973
 Frc consts  --      1.4924                 1.2668                 3.0188
 IR Inten    --     22.2342                 7.4218                13.7428

                     22                     23                     24
                      A                      A                      A
 Frequencies --   1158.0013              1228.0573              1321.7273
 Red. masses --      2.0539                 1.7438                 2.1230
 Frc consts  --      1.6228                 1.5495                 2.1851
 IR Inten    --     17.9431                 6.4932               318.4020

                     25                     26                     27
                      A                      A                      A
 Frequencies --   1367.2976              1440.7811              1459.0492
 Red. masses --      1.6781                 1.3743                 1.2485
 Frc consts  --      1.8484                 1.6808                 1.5660
 IR Inten    --    236.1568                25.8025                20.0724

                     28                     29                     30
                      A                      A                      A
 Frequencies --   1526.5254              1536.8033              1545.2939
 Red. masses --      1.0411                 1.0530                 1.0907
 Frc consts  --      1.4294                 1.4652                 1.5345
 IR Inten    --     15.1323                 2.5003                26.1082

                     31                     32                     33
                      A                      A                      A
 Frequencies --   1909.9792              2000.8307              3108.8967
 Red. masses --     11.3167                 7.1269                 1.0351
 Frc consts  --     24.3236                16.8101                 5.8944
 IR Inten    --    297.4752                54.8734                11.6153

                     34                     35                     36
                      A                      A                      A
 Frequencies --   3139.7386              3190.7225              3191.3320
 Red. masses --      1.0602                 1.1036                 1.0992
 Frc consts  --      6.1578                 6.6200                 6.5959
 IR Inten    --     21.0862                 0.2576                19.1361

                     37                     38                     39
                      A                      A                      A
 Frequencies --   3213.0776              3499.6851              3858.1503
 Red. masses --      1.1054                 1.1350                 1.0673
 Frc consts  --      6.7237                 8.1905                 9.3605
 IR Inten    --     16.4636                68.0399                31.0020

 - Thermochemistry -
 -------------------
 Temperature   298.150 Kelvin.  Pressure   1.00000 Atm.
 Atom     1 has atomic number  6 and mass  12.00000

 Molecular mass:   115.03952 amu.
 Principal axes and moments of inertia in atomic units:
                           1         2         3
     Eigenvalues --   482.144811375.494761499.71120
           X            0.99993   0.01162  -0.00008
           Y           -0.01156   0.99585   0.09032
           Z            0.00113  -0.09031   0.99591
 This molecule is an asymmetric top.
 Rotational symmetry number  1.
 Warning -- assumption of classical behavior for rotation
           may cause significant error
 Rotational temperatures (Kelvin)      0.17964     0.06297     0.05775
 Rotational constants (GHZ):           3.74315     1.31207     1.20339
    3 imaginary frequencies ignored.
 Zero-point vibrational energy     292972.3 (Joules/Mol)
                                   70.02206 (Kcal/Mol)
 Warning -- explicit consideration of  11 degrees of freedom as
           vibrations may cause significant error
 Vibrational temperatures:     31.99    65.33   190.12   269.22   310.67
          (Kelvin)            394.42   444.81   601.62   623.69   815.87
                              889.75  1031.08  1039.70  1174.36  1245.89
                             1286.42  1354.76  1589.64  1666.11  1766.90
                             1901.67  1967.24  2072.96  2099.25  2196.33
                             2211.12  2223.33  2748.03  2878.75  4473.01
                             4517.38  4590.74  4591.62  4622.90  5035.27
                             5551.02

 Zero-point correction=                           0.111587 (Hartree/Particle)
 Thermal correction to Energy=                    0.120264
 Thermal correction to Enthalpy=                  0.121208
 Thermal correction to Gibbs Free Energy=         0.075811
 Sum of electronic and zero-point Energies=           -419.845717
 Sum of electronic and thermal Energies=              -419.837040
 Sum of electronic and thermal Enthalpies=            -419.836096
 Sum of electronic and thermal Free Energies=         -419.881494

                     E (Thermal)             CV                S
                      KCal/Mol        Cal/Mol-Kelvin    Cal/Mol-Kelvin
 Total                   75.467             28.892             95.547
 Electronic               0.000              0.000              1.377
 Translational            0.889              2.981             40.136
 Rotational               0.889              2.981             28.388
 Vibrational             73.689             22.930             25.645
 Vibration     1          0.593              1.985              6.424
 Vibration     2          0.595              1.979              5.008
 Vibration     3          0.612              1.921              2.915
 Vibration     4          0.632              1.858              2.256
 Vibration     5          0.645              1.817              1.993
 Vibration     6          0.676              1.721              1.570
 Vibration     7          0.699              1.656              1.367
 Vibration     8          0.781              1.431              0.898
 Vibration     9          0.794              1.397              0.847
 Vibration    10          0.923              1.103              0.510
 Vibration    11          0.978              0.993              0.419

 Normal termination of Gaussian 16 at Fri Jun 20 14:00:55 2025.
