 Gaussian 16, Revision A.03,
 Gaussian 16:  ES64L-G16RevA.03 25-Dec-2016

 --------------------------
 # freq 6-311++g(d,p) m062x
 --------------------------

 -------------------
 Title Card Required
 -------------------
 Symbolic Z-matrix:
 Charge =  0 Multiplicity = 2

                         Standard orientation:
 ---------------------------------------------------------------------
 Center     Atomic      Atomic             Coordinates (Angstroms)
 Number     Number       Type             X           Y           Z
 ---------------------------------------------------------------------
      1          6           0       -2.796860   -0.494944   -0.432830
      2          1           0       -3.828177   -0.515364   -0.697946
      3          6           0       -1.629236   -0.453632   -0.151083
      4          6           0       -0.225366   -0.584086    0.237649
      5          8           0        0.117343   -0.877476    1.348904
      6          8           0        0.578169   -0.380542   -0.799023
      7          6           0        1.992298   -0.460900   -0.528072
      8          6           0        2.487220    0.819340    0.113956
      9          1           0        2.440022   -0.622951   -1.506876
     10          1           0        2.178459   -1.328126    0.106648
     11          1           0        3.569418    0.768138    0.248835
     12          1           0        2.253240    1.675370   -0.520199
     13          1           0        2.022587    0.962697    1.089688
     14          8           0       -1.392774    1.790823    0.078663
     15          1           0       -2.025792    1.843112    0.813781
 ---------------------------------------------------------------------

 SCF Done:  E(UM062X) =  -420.207064921     A.U. after   22 cycles

 The electronic state is 2-A.
 Alpha  occ. eigenvalues --  -19.68000 -19.67553 -19.62901 -10.70521 -10.60295
 Alpha  occ. eigenvalues --  -10.57791 -10.57488 -10.53342  -1.25499  -1.16194
 Alpha  occ. eigenvalues --   -1.13306  -0.90560  -0.87120  -0.77916  -0.70470
 Alpha  occ. eigenvalues --   -0.64293  -0.61605  -0.58342  -0.56973  -0.54838
 Alpha  occ. eigenvalues --   -0.53254  -0.50467  -0.48650  -0.46201  -0.45010
 Alpha  occ. eigenvalues --   -0.42412  -0.41697  -0.39425  -0.38255  -0.36404
 Alpha  occ. eigenvalues --   -0.35942
 Alpha virt. eigenvalues --   -0.01110  -0.00197   0.00520   0.01491   0.02519
 Alpha virt. eigenvalues --    0.02797   0.03702   0.04433   0.05621   0.06400
 Alpha virt. eigenvalues --    0.07145   0.07826   0.08488   0.10053   0.10891

  Beta  occ. eigenvalues --  -19.68005 -19.65985 -19.62914 -10.70509 -10.60295
  Beta  occ. eigenvalues --  -10.57767 -10.57405 -10.53342  -1.25506  -1.16223
  Beta  occ. eigenvalues --   -1.05839  -0.90294  -0.86877  -0.77808  -0.70365
  Beta  occ. eigenvalues --   -0.64252  -0.61362  -0.58308  -0.56475  -0.53238
  Beta  occ. eigenvalues --   -0.52125  -0.49045  -0.46471  -0.45042  -0.41697
  Beta  occ. eigenvalues --   -0.39413  -0.39096  -0.38339  -0.38027  -0.36089
  Beta virt. eigenvalues --   -0.08978  -0.00566  -0.00038   0.00558   0.01785
  Beta virt. eigenvalues --    0.02624   0.02825   0.03737   0.04535   0.05692
  Beta virt. eigenvalues --    0.06405   0.07235   0.07886   0.08525   0.10191

 Mulliken charges and spin densities:
               1          2
     1  C   -0.454581   0.163362
     2  H    0.200156  -0.008061
     3  C    0.899432  -0.052894
     4  C   -0.755065   0.005477
     5  O   -0.196726  -0.006000
     6  O    0.056991   0.000140
     7  C   -0.257569  -0.000598
     8  C   -0.414847   0.000724
     9  H    0.195463   0.000077
    10  H    0.190475  -0.000100
    11  H    0.167134   0.000089
    12  H    0.170575  -0.000132
    13  H    0.189144  -0.000542
    14  O   -0.224731   0.919278
    15  H    0.234150  -0.020819
 Sum of Mulliken charges =  -0.00000   1.00000

 Dipole moment (field-independent basis, Debye):
    X=             -0.6299    Y=              0.2430    Z=             -0.5979  Tot=              0.9018
 Quadrupole moment (field-independent basis, Debye-Ang):
   XX=            -30.4040   YY=            -48.5061   ZZ=            -51.3448
   XY=             -0.7632   XZ=             -1.9886   YZ=              5.0918

  Exact polarizability:  91.548   4.497  63.394   4.220   0.665  59.212
 Approx polarizability:  99.293   3.266  68.123   7.335  -2.253  76.573

 ******    1 imaginary frequencies (negative Signs) ******

                      1                      2                      3
                      A                      A                      A
 Frequencies --    -24.6531                37.0036               111.3323
 Red. masses --      4.8668                 4.1744                 4.4704
 Frc consts  --      0.0017                 0.0034                 0.0326
 IR Inten    --      8.3608                 1.4149                 1.2431

                      4                      5                      6
                      A                      A                      A
 Frequencies --    119.9761               157.7403               199.3247
 Red. masses --      3.7802                 2.5561                 2.3607
 Frc consts  --      0.0321                 0.0375                 0.0553
 IR Inten    --     11.7291                11.6898                22.4001

                      7                      8                      9
                      A                      A                      A
 Frequencies --    215.2911               226.8190               275.7227
 Red. masses --      2.0713                 1.3673                 3.3290
 Frc consts  --      0.0566                 0.0414                 0.1491
 IR Inten    --     26.9666                11.1796                14.5883

                     10                     11                     12
                      A                      A                      A
 Frequencies --    337.8796               425.9590               539.8218
 Red. masses --      2.9628                 3.8032                 1.2454
 Frc consts  --      0.1993                 0.4066                 0.2138
 IR Inten    --     10.2251                 4.4893                85.4255

                     13                     14                     15
                      A                      A                      A
 Frequencies --    568.0577               608.3129               727.5091
 Red. masses --      2.7291                 7.0014                 1.3215
 Frc consts  --      0.5189                 1.5265                 0.4121
 IR Inten    --     21.8852                 7.0926                37.6669

                     16                     17                     18
                      A                      A                      A
 Frequencies --    754.4236               779.8679               802.8046
 Red. masses --      1.3227                 7.4852                 1.2159
 Frc consts  --      0.4435                 2.6822                 0.4617
 IR Inten    --     24.2865                49.7136                 5.5370

                     19                     20                     21
                      A                      A                      A
 Frequencies --    897.5866               929.0972              1077.3224
 Red. masses --      3.2183                 2.7748                 4.1229
 Frc consts  --      1.5277                 1.4113                 2.8193
 IR Inten    --     15.6831                 5.5970                21.8757

                     22                     23                     24
                      A                      A                      A
 Frequencies --   1129.8754              1204.5515              1293.3508
 Red. masses --      2.0914                 1.7703                 3.5892
 Frc consts  --      1.5730                 1.5134                 3.5373
 IR Inten    --     22.2337                 5.2298               543.5266

                     25                     26                     27
                      A                      A                      A
 Frequencies --   1348.0300              1402.2470              1432.0716
 Red. masses --      1.2591                 1.2847                 1.3871
 Frc consts  --      1.3480                 1.4883                 1.6761
 IR Inten    --    106.4906                29.9531                11.5277

                     28                     29                     30
                      A                      A                      A
 Frequencies --   1490.8248              1502.4814              1515.1085
 Red. masses --      1.0401                 1.0561                 1.0924
 Frc consts  --      1.3620                 1.4047                 1.4774
 IR Inten    --     10.8103                 0.9417                20.8578

                     31                     32                     33
                      A                      A                      A
 Frequencies --   1841.5715              2239.5910              3075.6427
 Red. masses --     11.9944                 5.8549                 1.0353
 Frc consts  --     23.9665                17.3024                 5.7702
 IR Inten    --    334.5261                61.3624                10.0864

                     34                     35                     36
                      A                      A                      A
 Frequencies --   3106.0903              3151.8271              3154.2170
 Red. masses --      1.0607                 1.1021                 1.1044
 Frc consts  --      6.0295                 6.4507                 6.4738
 IR Inten    --     19.8862                12.8267                 4.5532

                     37                     38                     39
                      A                      A                      A
 Frequencies --   3174.5203              3486.5536              3799.0350
 Red. masses --      1.1071                 1.1664                 1.0672
 Frc consts  --      6.5736                 8.3542                 9.0752
 IR Inten    --     15.0265                67.9601                35.6517

 - Thermochemistry -
 -------------------
 Temperature   298.150 Kelvin.  Pressure   1.00000 Atm.
 Atom     1 has atomic number  6 and mass  12.00000

 Molecular mass:   115.03952 amu.
 Principal axes and moments of inertia in atomic units:
                           1         2         3
     Eigenvalues --   525.897451382.428881544.74311
           X            0.99995   0.01019  -0.00128
           Y           -0.01009   0.99779   0.06575
           Z            0.00195  -0.06574   0.99784
 This molecule is an asymmetric top.
 Rotational symmetry number  1.
 Warning -- assumption of classical behavior for rotation
           may cause significant error
 Rotational temperatures (Kelvin)      0.16470     0.06265     0.05607
 Rotational constants (GHZ):           3.43174     1.30549     1.16831
    1 imaginary frequencies ignored.
 Zero-point vibrational energy     293919.1 (Joules/Mol)
                                   70.24836 (Kcal/Mol)
 Warning -- explicit consideration of  13 degrees of freedom as
           vibrations may cause significant error
 Vibrational temperatures:     53.24   160.18   172.62   226.95   286.78
          (Kelvin)            309.76   326.34   396.70   486.13   612.86
                              776.68   817.31   875.23  1046.72  1085.45
                             1122.06  1155.06  1291.43  1336.76  1550.03
                             1625.64  1733.08  1860.84  1939.51  2017.52
                             2060.43  2144.96  2161.74  2179.90  2649.61
                             3222.27  4425.16  4468.97  4534.78  4538.21
                             4567.43  5016.37  5465.96

 Zero-point correction=                           0.111948 (Hartree/Particle)
 Thermal correction to Energy=                    0.121519
 Thermal correction to Enthalpy=                  0.122463
 Thermal correction to Gibbs Free Energy=         0.076344
 Sum of electronic and zero-point Energies=           -420.095117
 Sum of electronic and thermal Energies=              -420.085546
 Sum of electronic and thermal Enthalpies=            -420.084602
 Sum of electronic and thermal Free Energies=         -420.130721

                     E (Thermal)             CV                S
                      KCal/Mol        Cal/Mol-Kelvin    Cal/Mol-Kelvin
 Total                   76.254             32.463             97.067
 Electronic               0.000              0.000              1.377
 Translational            0.889              2.981             40.136
 Rotational               0.889              2.981             28.509
 Vibrational             74.477             26.502             27.045
 Vibration     1          0.594              1.982              5.413
 Vibration     2          0.607              1.940              3.246
 Vibration     3          0.609              1.933              3.101
 Vibration     4          0.621              1.894              2.577
 Vibration     5          0.637              1.841              2.139
 Vibration     6          0.645              1.818              1.998
 Vibration     7          0.650              1.800              1.904
 Vibration     8          0.677              1.718              1.560
 Vibration     9          0.718              1.600              1.222
 Vibration    10          0.788              1.414              0.872
 Vibration    11          0.895              1.162              0.566
 Vibration    12          0.924              1.100              0.508
 Vibration    13          0.967              1.014              0.436

 1\1\GINC-AJ\Freq\UM062X\6-311++G(d,p)\C5H7O3(2)\AAYUSH\16-Aug-2025\0\\
 # freq 6-311++g(d,p) m062x\\Title Card Required\\0,2\C,-2.73819,-0.466
 612,-0.451808\H,-3.769023,-0.483218,-0.719064\C,-1.571121,-0.429215,-0
 .167232\C,-0.167632,-0.565439,0.220897\O,0.173838,-0.88271,1.325955\O,
 0.637199,-0.337346,-0.809641\C,2.051039,-0.420854,-0.538136\C,2.542281
 ,0.845825,0.132958\H,2.500712,-0.560262,-1.51953\H,2.237922,-1.301566,
 0.077516\H,3.624357,0.793816,0.268507\H,2.307601,1.715235,-0.482458\H,
 2.075743,0.966578,1.110838\O,-1.339627,1.810064,0.112621\H,-1.973965,1

 Normal termination of Gaussian 16 at Sat Aug 16 20:09:12 2025.
