 Gaussian 16, Revision A.03,
 Gaussian 16:  ES64L-G16RevA.03 25-Dec-2016

 --------------------------
 # ccsd(t)/6-311++g(d,p) sp
 --------------------------

 -------------------
 Title Card Required
 -------------------
 Symbolic Z-matrix:
 Charge =  0 Multiplicity = 2

                         Standard orientation:
 ---------------------------------------------------------------------
 Center     Atomic      Atomic             Coordinates (Angstroms)
 Number     Number       Type             X           Y           Z
 ---------------------------------------------------------------------
      1          6           0       -2.783515   -0.491358   -0.442267
      2          1           0       -3.809868   -0.565953   -0.717978
      3          6           0       -1.622096   -0.316486   -0.142074
      4          6           0       -0.221745   -0.564112    0.230318
      5          8           0        0.110227   -0.911464    1.327740
      6          8           0        0.580878   -0.363656   -0.805788
      7          6           0        1.995251   -0.449456   -0.534721
      8          6           0        2.484281    0.820265    0.133021
      9          1           0        2.444349   -0.590947   -1.515953
     10          1           0        2.182074   -1.328792    0.082653
     11          1           0        3.566184    0.769738    0.270251
     12          1           0        2.248733    1.687460   -0.485050
     13          1           0        2.016591    0.943930    1.110138
     14          8           0       -1.406851    1.686638    0.098245
     15          1           0       -2.035154    1.799297    0.828701
 ---------------------------------------------------------------------

 SCF Done:  E(UHF) =  -417.980471136     A.U. after   37 cycles
 E2 =    -0.1257077853D+01 EUMP2 =    -0.41923754898939D+03
 CCSD(T)= -0.41935357792D+03

 The electronic state is 2-A.
 Alpha  occ. eigenvalues --  -20.62429 -20.60948 -20.55485 -11.41324 -11.29419
 Alpha  occ. eigenvalues --  -11.26996 -11.26245 -11.22190  -1.48002  -1.38235
 Alpha  occ. eigenvalues --   -1.37637  -1.07891  -1.04179  -0.92535  -0.83605
 Alpha  occ. eigenvalues --   -0.76311  -0.73081  -0.69256  -0.68843  -0.66033
 Alpha  occ. eigenvalues --   -0.64469  -0.62728  -0.57732  -0.55834  -0.53818
 Alpha  occ. eigenvalues --   -0.53115  -0.50172  -0.47676  -0.45738  -0.43085
 Alpha  occ. eigenvalues --   -0.42236
 Alpha virt. eigenvalues --    0.03709   0.04612   0.05637   0.06822   0.07010
 Alpha virt. eigenvalues --    0.08745   0.09630   0.10432   0.11098   0.11655
 Alpha virt. eigenvalues --    0.13364   0.13906   0.14736   0.15645   0.16802

  Beta  occ. eigenvalues --  -20.60954 -20.58595 -20.55876 -11.40986 -11.29419
  Beta  occ. eigenvalues --  -11.28014 -11.24938 -11.22192  -1.48156  -1.38275
  Beta  occ. eigenvalues --   -1.24506  -1.07771  -1.03436  -0.91612  -0.83064
  Beta  occ. eigenvalues --   -0.76124  -0.72066  -0.69510  -0.67371  -0.63228
  Beta  occ. eigenvalues --   -0.62845  -0.58095  -0.55514  -0.53901  -0.50251
  Beta  occ. eigenvalues --   -0.50138  -0.48428  -0.46914  -0.44004  -0.42300
  Beta virt. eigenvalues --    0.03776   0.04487   0.04763   0.06645   0.07009
  Beta virt. eigenvalues --    0.08105   0.08894   0.09740   0.10755   0.11766
  Beta virt. eigenvalues --    0.12049   0.13556   0.14426   0.15420   0.15902

 Mulliken charges and spin densities:
               1          2
     1  C   -0.996279   1.011409
     2  H    0.210001  -0.075015
     3  C    1.147954  -0.922007
     4  C   -0.385860   0.191105
     5  O   -0.279505  -0.080275
     6  O   -0.030012   0.002332
     7  C   -0.159701   0.001534
     8  C   -0.387477   0.001498
     9  H    0.165804   0.000061
    10  H    0.172465   0.000269
    11  H    0.138790  -0.000201
    12  H    0.149890  -0.000595
    13  H    0.178390  -0.000273
    14  O   -0.167450   0.904312
    15  H    0.242989  -0.034153
 Sum of Mulliken charges =  -0.00000   1.00000

 Dipole moment (field-independent basis, Debye):
    X=             -0.7818    Y=              0.5242    Z=             -0.7097  Tot=              1.1789
 Quadrupole moment (field-independent basis, Debye-Ang):
   XX=            -30.4377   YY=            -48.1403   ZZ=            -51.6611
   XY=             -0.9990   XZ=             -2.0525   YZ=              5.4971

 0=-419.2800256\MP4SDQ=-419.294139\CCSD=-419.2995699\CCSD(T)=-419.35357
 Normal termination of Gaussian 16 at Thu Aug 28 11:27:17 2025.
