 Gaussian 16, Revision A.03,
 Gaussian 16:  ES64L-G16RevA.03 25-Dec-2016

 -------------------
 # freq 6-31+g m062x
 -------------------

 -------------------
 Title Card Required
 -------------------
 Symbolic Z-matrix:
 Charge =  0 Multiplicity = 2

                         Standard orientation:
 ---------------------------------------------------------------------
 Center     Atomic      Atomic             Coordinates (Angstroms)
 Number     Number       Type             X           Y           Z
 ---------------------------------------------------------------------
      1          6           0       -2.764064   -0.509675   -0.460899
      2          1           0       -3.794353   -0.545958   -0.740589
      3          6           0       -1.612324   -0.084625   -0.116494
      4          6           0       -0.223336   -0.563720    0.212332
      5          8           0        0.105248   -0.960829    1.293434
      6          8           0        0.582494   -0.338830   -0.816753
      7          6           0        1.997916   -0.428093   -0.546677
      8          6           0        2.480777    0.821462    0.163349
      9          1           0        2.449138   -0.535252   -1.531194
     10          1           0        2.187331   -1.326430    0.041589
     11          1           0        3.562546    0.769234    0.301052
     12          1           0        2.243453    1.707798   -0.426114
     13          1           0        2.011162    0.912249    1.143206
     14          8           0       -1.424960    1.536341    0.129163
     15          1           0       -2.035347    1.712811    0.855625
 ---------------------------------------------------------------------

 SCF Done:  E(UM062X) =  -419.972428846     A.U. after   19 cycles

 The electronic state is 2-A.
 Alpha  occ. eigenvalues --  -19.70513 -19.67331 -19.66430 -10.72587 -10.65004
 Alpha  occ. eigenvalues --  -10.61362 -10.61064 -10.54183  -1.28090  -1.18718
 Alpha  occ. eigenvalues --   -1.13849  -0.91812  -0.88190  -0.78554  -0.71536
 Alpha  occ. eigenvalues --   -0.64746  -0.62359  -0.59790  -0.58013  -0.54656
 Alpha  occ. eigenvalues --   -0.53517  -0.49755  -0.48097  -0.46514  -0.45180
 Alpha  occ. eigenvalues --   -0.41857  -0.40813  -0.39445  -0.38113  -0.36120
 Alpha  occ. eigenvalues --   -0.31187
 Alpha virt. eigenvalues --    0.00860   0.01782   0.02060   0.02696   0.03686
 Alpha virt. eigenvalues --    0.04311   0.05631   0.06220   0.07733   0.08260
 Alpha virt. eigenvalues --    0.08804   0.08977   0.09835   0.11423   0.12106

  Beta  occ. eigenvalues --  -19.70507 -19.66841 -19.66433 -10.72517 -10.65180
  Beta  occ. eigenvalues --  -10.61360 -10.60352 -10.54184  -1.28045  -1.18699
  Beta  occ. eigenvalues --   -1.12254  -0.90669  -0.87176  -0.77930  -0.70666
  Beta  occ. eigenvalues --   -0.64543  -0.61231  -0.59246  -0.57822  -0.53976
  Beta  occ. eigenvalues --   -0.53384  -0.48983  -0.47113  -0.45564  -0.44176
  Beta  occ. eigenvalues --   -0.41684  -0.39783  -0.38894  -0.38065  -0.34680
  Beta virt. eigenvalues --   -0.08608   0.01348   0.01596   0.02312   0.02907
  Beta virt. eigenvalues --    0.03807   0.04259   0.05579   0.06029   0.07589
  Beta virt. eigenvalues --    0.08096   0.08566   0.08859   0.10036   0.11183

 Mulliken charges and spin densities:
               1          2
     1  C    0.328203   1.063283
     2  H    0.280831  -0.036426
     3  C   -0.368505  -0.318259
     4  C    0.047735   0.059540
     5  O   -0.349335   0.000938
     6  O   -0.171737   0.002592
     7  C   -0.240809   0.001952
     8  C   -0.562398   0.000638
     9  H    0.221631  -0.000022
    10  H    0.235635  -0.000156
    11  H    0.204686  -0.000014
    12  H    0.230391   0.000042
    13  H    0.234455   0.000066
    14  O   -0.520773   0.230538
    15  H    0.429990  -0.004714
 Sum of Mulliken charges =  -0.00000   1.00000

 Dipole moment (field-independent basis, Debye):
    X=             -0.7996    Y=             -0.3277    Z=             -0.5161  Tot=              1.0065
 Quadrupole moment (field-independent basis, Debye-Ang):
   XX=            -29.9184   YY=            -50.6289   ZZ=            -52.0550
   XY=              0.0734   XZ=             -2.0351   YZ=              5.5129

  Exact polarizability:  83.606   6.041  62.737   3.022   1.291  56.812
 Approx polarizability:  83.301   8.897  70.713   5.380  -1.106  71.282

 ******    3 imaginary frequencies (negative Signs) ******

                      1                      2                      3
                      A                      A                      A
 Frequencies --   -472.7276              -343.1724               -63.9282
 Red. masses --      1.0726                 2.1781                 5.2783
 Frc consts  --      0.1412                 0.1511                 0.0127
 IR Inten    --    115.6811               131.3494                 2.9297

                      4                      5                      6
                      A                      A                      A
 Frequencies --     49.8235                63.7096               149.0725
 Red. masses --      2.9483                 3.3618                 1.6033
 Frc consts  --      0.0043                 0.0080                 0.0210
 IR Inten    --      2.6016                 7.3184                 4.4904

                      7                      8                      9
                      A                      A                      A
 Frequencies --    205.4199               216.0323               283.7622
 Red. masses --      2.1429                 2.4126                 4.2835
 Frc consts  --      0.0533                 0.0663                 0.2032
 IR Inten    --      3.0254                 1.1545                 1.2111

                     10                     11                     12
                      A                      A                      A
 Frequencies --    314.2179               379.2076               445.0579
 Red. masses --      3.1466                 7.1041                 3.7467
 Frc consts  --      0.1830                 0.6019                 0.4373
 IR Inten    --     16.4892                 3.8298                 8.7675

                     13                     14                     15
                      A                      A                      A
 Frequencies --    588.9863               644.9057               711.7466
 Red. masses --      3.8139                 5.0807                 1.3746
 Frc consts  --      0.7795                 1.2450                 0.4103
 IR Inten    --     16.4919                19.1209                54.8107

                     16                     17                     18
                      A                      A                      A
 Frequencies --    741.1027               816.3030               892.9420
 Red. masses --     10.1249                 1.3325                 3.1385
 Frc consts  --      3.2764                 0.5232                 1.4744
 IR Inten    --     13.1453                 6.9006                18.4043

                     19                     20                     21
                      A                      A                      A
 Frequencies --    931.8746              1051.0322              1107.8297
 Red. masses --      2.3682                 1.3287                 3.5488
 Frc consts  --      1.2117                 0.8648                 2.5661
 IR Inten    --      3.5676                31.4428                21.1495

                     22                     23                     24
                      A                      A                      A
 Frequencies --   1158.0313              1227.6104              1319.8352
 Red. masses --      2.0562                 1.7443                 2.2252
 Frc consts  --      1.6247                 1.5488                 2.2838
 IR Inten    --     19.1593                 5.9945               320.6387

                     25                     26                     27
                      A                      A                      A
 Frequencies --   1365.7444              1439.7242              1458.9354
 Red. masses --      1.6316                 1.3663                 1.2458
 Frc consts  --      1.7931                 1.6686                 1.5623
 IR Inten    --    218.4065                21.0543                19.7909

                     28                     29                     30
                      A                      A                      A
 Frequencies --   1526.9686              1536.8943              1545.2727
 Red. masses --      1.0411                 1.0528                 1.0902
 Frc consts  --      1.4303                 1.4651                 1.5338
 IR Inten    --     14.7840                 2.1522                24.3347

                     31                     32                     33
                      A                      A                      A
 Frequencies --   1843.3751              1923.2260              3108.8416
 Red. masses --      7.2904                11.8064                 1.0351
 Frc consts  --     14.5959                25.7294                 5.8940
 IR Inten    --     37.4578               276.4438                11.8979

                     34                     35                     36
                      A                      A                      A
 Frequencies --   3140.2297              3190.6881              3191.1900
 Red. masses --      1.0602                 1.1036                 1.0992
 Frc consts  --      6.1595                 6.6195                 6.5952
 IR Inten    --     21.1405                 0.2340                19.3168

                     37                     38                     39
                      A                      A                      A
 Frequencies --   3213.0524              3468.8554              3878.3925
 Red. masses --      1.1054                 1.1241                 1.0669
 Frc consts  --      6.7239                 7.9698                 9.4554
 IR Inten    --     16.8232                59.3552                39.9390

 - Thermochemistry -
 -------------------
 Temperature   298.150 Kelvin.  Pressure   1.00000 Atm.
 Atom     1 has atomic number  6 and mass  12.00000

 Molecular mass:   115.03952 amu.
 Principal axes and moments of inertia in atomic units:
                           1         2         3
     Eigenvalues --   469.124991372.163031485.70103
           X            0.99993   0.01148   0.00033
           Y           -0.01146   0.99499   0.09931
           Z            0.00082  -0.09930   0.99506
 This molecule is an asymmetric top.
 Rotational symmetry number  1.
 Warning -- assumption of classical behavior for rotation
           may cause significant error
 Rotational temperatures (Kelvin)      0.18463     0.06312     0.05830
 Rotational constants (GHZ):           3.84704     1.31525     1.21474
    3 imaginary frequencies ignored.
 Zero-point vibrational energy     293862.0 (Joules/Mol)
                                   70.23471 (Kcal/Mol)
 Warning -- explicit consideration of  10 degrees of freedom as
           vibrations may cause significant error
 Vibrational temperatures:     71.68    91.66   214.48   295.55   310.82
          (Kelvin)            408.27   452.09   545.60   640.34   847.42
                              927.88  1024.04  1066.28  1174.48  1284.74
                             1340.76  1512.20  1593.92  1666.15  1766.26
                             1898.95  1965.00  2071.44  2099.08  2196.97
                             2211.25  2223.30  2652.21  2767.09  4472.93
                             4518.09  4590.69  4591.41  4622.87  4990.91
                             5580.14

 Zero-point correction=                           0.111926 (Hartree/Particle)
 Thermal correction to Energy=                    0.120396
 Thermal correction to Enthalpy=                  0.121340
 Thermal correction to Gibbs Free Energy=         0.077302
 Sum of electronic and zero-point Energies=           -419.860503
 Sum of electronic and thermal Energies=              -419.852033
 Sum of electronic and thermal Enthalpies=            -419.851089
 Sum of electronic and thermal Free Energies=         -419.895126

                     E (Thermal)             CV                S
                      KCal/Mol        Cal/Mol-Kelvin    Cal/Mol-Kelvin
 Total                   75.549             28.536             92.684
 Electronic               0.000              0.000              1.377
 Translational            0.889              2.981             40.136
 Rotational               0.889              2.981             28.349
 Vibrational             73.772             22.575             22.822
 Vibration     1          0.595              1.978              4.824
 Vibration     2          0.597              1.972              4.339
 Vibration     3          0.618              1.904              2.684
 Vibration     4          0.640              1.832              2.084
 Vibration     5          0.645              1.817              1.992
 Vibration     6          0.682              1.704              1.511
 Vibration     7          0.702              1.647              1.340
 Vibration     8          0.749              1.514              1.042
 Vibration     9          0.804              1.372              0.811
 Vibration    10          0.946              1.055              0.469

 Normal termination of Gaussian 16 at Fri Jun 20 14:10:36 2025.
