 Gaussian 16, Revision A.03,
 Gaussian 16:  ES64L-G16RevA.03 25-Dec-2016

 -------------------
 # freq 6-31+g m062x
 -------------------

 -------------------
 Title Card Required
 -------------------
 Symbolic Z-matrix:
 Charge =  0 Multiplicity = 2

                         Standard orientation:
 ---------------------------------------------------------------------
 Center     Atomic      Atomic             Coordinates (Angstroms)
 Number     Number       Type             X           Y           Z
 ---------------------------------------------------------------------
      1          6           0       -2.790963   -0.491932   -0.436850
      2          1           0       -3.820143   -0.540075   -0.706734
      3          6           0       -1.625838   -0.397143   -0.147901
      4          6           0       -0.223646   -0.572646    0.234685
      5          8           0        0.114006   -0.892956    1.339526
      6          8           0        0.579964   -0.372226   -0.801982
      7          6           0        1.993857   -0.456056   -0.530925
      8          6           0        2.485893    0.819738    0.122469
      9          1           0        2.442409   -0.609155   -1.510740
     10          1           0        2.180009   -1.328654    0.096282
     11          1           0        3.567913    0.769441    0.258887
     12          1           0        2.251143    1.680545   -0.504876
     13          1           0        2.019487    0.954304    1.098699
     14          8           0       -1.399432    1.744688    0.087531
     15          1           0       -2.032930    1.825780    0.819015
 ---------------------------------------------------------------------

 SCF Done:  E(UM062X) =  -419.957314087     A.U. after   24 cycles

 The electronic state is 2-A.
 Alpha  occ. eigenvalues --  -19.70317 -19.69694 -19.66043 -10.72876 -10.61257
 Alpha  occ. eigenvalues --  -10.59884 -10.59383 -10.54123  -1.27838  -1.18489
 Alpha  occ. eigenvalues --   -1.14186  -0.91428  -0.87905  -0.78429  -0.71094
 Alpha  occ. eigenvalues --   -0.64444  -0.62137  -0.58529  -0.57131  -0.54262
 Alpha  occ. eigenvalues --   -0.53666  -0.50505  -0.48624  -0.46349  -0.44990
 Alpha  occ. eigenvalues --   -0.42025  -0.41659  -0.39495  -0.37980  -0.36743
 Alpha  occ. eigenvalues --   -0.35605
 Alpha virt. eigenvalues --   -0.00973   0.01976   0.02495   0.03663   0.03735
 Alpha virt. eigenvalues --    0.04449   0.05480   0.05875   0.07701   0.08205
 Alpha virt. eigenvalues --    0.08839   0.08934   0.10040   0.11852   0.12297

  Beta  occ. eigenvalues --  -19.70322 -19.68098 -19.66060 -10.72856 -10.61257
  Beta  occ. eigenvalues --  -10.59897 -10.59239 -10.54124  -1.27845  -1.18518
  Beta  occ. eigenvalues --   -1.07397  -0.91088  -0.87653  -0.78311  -0.70964
  Beta  occ. eigenvalues --   -0.64389  -0.61794  -0.58393  -0.56798  -0.53651
  Beta  occ. eigenvalues --   -0.51472  -0.49201  -0.46609  -0.45049  -0.41664
  Beta  occ. eigenvalues --   -0.39397  -0.39083  -0.38356  -0.38009  -0.36315
  Beta virt. eigenvalues --   -0.09321  -0.00244   0.02025   0.02512   0.03724
  Beta virt. eigenvalues --    0.03778   0.04654   0.05546   0.05938   0.07750
  Beta virt. eigenvalues --    0.08155   0.08931   0.08994   0.10132   0.11920

 Mulliken charges and spin densities:
               1          2
     1  C   -0.049288   0.166937
     2  H    0.332244  -0.008271
     3  C   -0.265090  -0.074060
     4  C    0.188826   0.066024
     5  O   -0.338663  -0.008034
     6  O   -0.163467  -0.000461
     7  C   -0.250782  -0.000916
     8  C   -0.557299   0.000230
     9  H    0.219777  -0.000013
    10  H    0.232725  -0.000083
    11  H    0.204627  -0.000027
    12  H    0.227774  -0.000052
    13  H    0.236226  -0.000056
    14  O   -0.424166   0.891281
    15  H    0.406556  -0.032498
 Sum of Mulliken charges =  -0.00000   1.00000

 Dipole moment (field-independent basis, Debye):
    X=             -0.7912    Y=              0.1184    Z=             -0.3977  Tot=              0.8935
 Quadrupole moment (field-independent basis, Debye-Ang):
   XX=            -29.7332   YY=            -48.9242   ZZ=            -52.4141
   XY=             -0.6511   XZ=             -2.2690   YZ=              5.6927

  Exact polarizability:  87.180   5.480  62.763   3.888   0.813  56.942
 Approx polarizability:  92.824   5.551  61.805   7.578  -2.870  71.413

 ******    4 imaginary frequencies (negative Signs) ******

                      1                      2                      3
                      A                      A                      A
 Frequencies --   -456.5069              -153.3378               -78.4083
 Red. masses --      1.0901                 5.0348                 4.3477
 Frc consts  --      0.1339                 0.0697                 0.0157
 IR Inten    --    119.2627                 5.3026                16.1734

                      4                      5                      6
                      A                      A                      A
 Frequencies --    -19.6025                41.6131                84.0683
 Red. masses --      2.4219                 7.3814                 3.2494
 Frc consts  --      0.0005                 0.0075                 0.0135
 IR Inten    --      0.2887                 0.3492                 6.6092

                      7                      8                      9
                      A                      A                      A
 Frequencies --    137.5441               173.5509               191.2281
 Red. masses --      6.3449                 1.2721                 5.2066
 Frc consts  --      0.0707                 0.0226                 0.1122
 IR Inten    --      0.1452                 1.4354                 2.9213

                     10                     11                     12
                      A                      A                      A
 Frequencies --    305.7088               369.7563               426.6615
 Red. masses --      2.7519                 1.3200                 3.0436
 Frc consts  --      0.1515                 0.1063                 0.3264
 IR Inten    --     14.5754               110.1060                 8.1173

                     13                     14                     15
                      A                      A                      A
 Frequencies --    573.0930               621.0478               737.9091
 Red. masses --      4.2151                 5.4796                 4.2596
 Frc consts  --      0.8157                 1.2452                 1.3665
 IR Inten    --      3.4780                12.8575                21.7101

                     16                     17                     18
                      A                      A                      A
 Frequencies --    747.9675               784.9149               818.1169
 Red. masses --      1.5966                 1.3542                 1.2738
 Frc consts  --      0.5263                 0.4915                 0.5023
 IR Inten    --     84.8550                48.2730                 5.8482

                     19                     20                     21
                      A                      A                      A
 Frequencies --    899.2424               946.2902              1111.3573
 Red. masses --      3.4001                 2.5153                 4.1683
 Frc consts  --      1.6199                 1.3271                 3.0333
 IR Inten    --     20.8642                 5.6929                 9.3171

                     22                     23                     24
                      A                      A                      A
 Frequencies --   1159.4234              1228.9070              1328.6153
 Red. masses --      2.0895                 1.7543                 1.8345
 Frc consts  --      1.6549                 1.5610                 1.9079
 IR Inten    --     18.6085                 4.7986               285.0225

                     25                     26                     27
                      A                      A                      A
 Frequencies --   1371.9950              1442.9019              1457.6287
 Red. masses --      1.8583                 1.3928                 1.2634
 Frc consts  --      2.0610                 1.7084                 1.5816
 IR Inten    --    301.9672                40.4354                18.2483

                     28                     29                     30
                      A                      A                      A
 Frequencies --   1526.1662              1536.7856              1544.5965
 Red. masses --      1.0414                 1.0579                 1.0873
 Frc consts  --      1.4292                 1.4721                 1.5284
 IR Inten    --     14.8638                 2.2439                27.6530

                     31                     32                     33
                      A                      A                      A
 Frequencies --   1909.7298              2284.3445              3107.8769
 Red. masses --     12.2561                 5.7358                 1.0350
 Frc consts  --     26.3358                17.6346                 5.8902
 IR Inten    --    315.0552                69.5063                12.6519

                     34                     35                     36
                      A                      A                      A
 Frequencies --   3137.4258              3188.4864              3190.3346
 Red. masses --      1.0601                 1.1025                 1.1005
 Frc consts  --      6.1482                 6.6039                 6.5995
 IR Inten    --     21.6260                 4.7489                15.9500

                     37                     38                     39
                      A                      A                      A
 Frequencies --   3211.2428              3527.8430              3815.1833
 Red. masses --      1.1052                 1.1710                 1.0672
 Frc consts  --      6.7151                 8.5870                 9.1525
 IR Inten    --     17.5324                60.9649                13.6202

 - Thermochemistry -
 -------------------
 Temperature   298.150 Kelvin.  Pressure   1.00000 Atm.
 Atom     1 has atomic number  6 and mass  12.00000

 Molecular mass:   115.03952 amu.
 Principal axes and moments of inertia in atomic units:
                           1         2         3
     Eigenvalues --   514.012771380.722071532.64710
           X            0.99994   0.01060  -0.00098
           Y           -0.01050   0.99740   0.07131
           Z            0.00174  -0.07129   0.99745
 This molecule is an asymmetric top.
 Rotational symmetry number  1.
 Warning -- assumption of classical behavior for rotation
           may cause significant error
 Rotational temperatures (Kelvin)      0.16851     0.06273     0.05651
 Rotational constants (GHZ):           3.51108     1.30710     1.17753
    4 imaginary frequencies ignored.
 Zero-point vibrational energy     292723.6 (Joules/Mol)
                                   69.96261 (Kcal/Mol)
 Warning -- explicit consideration of   9 degrees of freedom as
           vibrations may cause significant error
 Vibrational temperatures:     59.87   120.96   197.90   249.70   275.13
          (Kelvin)            439.85   532.00   613.87   824.55   893.55
                             1061.69  1076.16  1129.32  1177.09  1293.81
                             1361.50  1599.00  1668.15  1768.12  1911.58
                             1973.99  2076.01  2097.20  2195.81  2211.09
                             2222.33  2747.68  3286.66  4471.54  4514.06
                             4587.52  4590.18  4620.26  5075.78  5489.20

 Zero-point correction=                           0.111493 (Hartree/Particle)
 Thermal correction to Energy=                    0.119699
 Thermal correction to Enthalpy=                  0.120643
 Thermal correction to Gibbs Free Energy=         0.076882
 Sum of electronic and zero-point Energies=           -419.845822
 Sum of electronic and thermal Energies=              -419.837615
 Sum of electronic and thermal Enthalpies=            -419.836671
 Sum of electronic and thermal Free Energies=         -419.880432

                     E (Thermal)             CV                S
                      KCal/Mol        Cal/Mol-Kelvin    Cal/Mol-Kelvin
 Total                   75.112             27.307             92.103
 Electronic               0.000              0.000              1.377
 Translational            0.889              2.981             40.136
 Rotational               0.889              2.981             28.477
 Vibrational             73.335             21.345             22.113
 Vibration     1          0.594              1.981              5.181
 Vibration     2          0.601              1.960              3.794
 Vibration     3          0.614              1.916              2.838
 Vibration     4          0.627              1.875              2.397
 Vibration     5          0.634              1.852              2.216
 Vibration     6          0.696              1.663              1.385
 Vibration     7          0.742              1.534              1.081
 Vibration     8          0.788              1.412              0.870
 Vibration     9          0.929              1.089              0.498

 Normal termination of Gaussian 16 at Fri Jun 20 13:56:54 2025.
