 Gaussian 16, Revision A.03,
 Gaussian 16:  ES64L-G16RevA.03 25-Dec-2016

 -------------------
 # freq 6-31+g m062x
 -------------------

 -------------------
 Title Card Required
 -------------------
 Symbolic Z-matrix:
 Charge =  0 Multiplicity = 2

                         Standard orientation:
 ---------------------------------------------------------------------
 Center     Atomic      Atomic             Coordinates (Angstroms)
 Number     Number       Type             X           Y           Z
 ---------------------------------------------------------------------
      1          6           0       -2.767314   -0.507033   -0.458967
      2          1           0       -3.796194   -0.555684   -0.739486
      3          6           0       -1.612949   -0.105030   -0.119160
      4          6           0       -0.222484   -0.563601    0.214331
      5          8           0        0.105625   -0.955849    1.297124
      6          8           0        0.582188   -0.341462   -0.815677
      7          6           0        1.997632   -0.430479   -0.545592
      8          6           0        2.481241    0.821139    0.160076
      9          1           0        2.448419   -0.541260   -1.529902
     10          1           0        2.186585   -1.326987    0.045638
     11          1           0        3.563024    0.768845    0.297655
     12          1           0        2.244098    1.705557   -0.432303
     13          1           0        2.011824    0.915462    1.139675
     14          8           0       -1.422800    1.550357    0.126174
     15          1           0       -2.034621    1.719725    0.853629
 ---------------------------------------------------------------------

 SCF Done:  E(UM062X) =  -419.968933109     A.U. after   19 cycles

 The electronic state is 2-A.
 Alpha  occ. eigenvalues --  -19.70551 -19.67201 -19.66459 -10.72700 -10.64900
 Alpha  occ. eigenvalues --  -10.61381 -10.61158 -10.54179  -1.28143  -1.18777
 Alpha  occ. eigenvalues --   -1.13319  -0.91973  -0.88259  -0.78613  -0.71561
 Alpha  occ. eigenvalues --   -0.64782  -0.62548  -0.59566  -0.57944  -0.54408
 Alpha  occ. eigenvalues --   -0.53562  -0.49697  -0.48068  -0.46472  -0.45172
 Alpha  occ. eigenvalues --   -0.41831  -0.40686  -0.39547  -0.38142  -0.36288
 Alpha  occ. eigenvalues --   -0.31223
 Alpha virt. eigenvalues --    0.00656   0.01776   0.02066   0.02691   0.03700
 Alpha virt. eigenvalues --    0.04295   0.05622   0.06195   0.07714   0.08155
 Alpha virt. eigenvalues --    0.08825   0.08961   0.09847   0.11441   0.12094

  Beta  occ. eigenvalues --  -19.70546 -19.66636 -19.66465 -10.72631 -10.65079
  Beta  occ. eigenvalues --  -10.61380 -10.60480 -10.54180  -1.28102  -1.18765
  Beta  occ. eigenvalues --   -1.11469  -0.90809  -0.87311  -0.78015  -0.70740
  Beta  occ. eigenvalues --   -0.64572  -0.61470  -0.59113  -0.57714  -0.53644
  Beta  occ. eigenvalues --   -0.53345  -0.49000  -0.47020  -0.45462  -0.43729
  Beta  occ. eigenvalues --   -0.41693  -0.39478  -0.39006  -0.38119  -0.34874
  Beta virt. eigenvalues --   -0.08881   0.01375   0.01528   0.02273   0.02878
  Beta virt. eigenvalues --    0.03817   0.04251   0.05572   0.05999   0.07590
  Beta virt. eigenvalues --    0.07994   0.08596   0.08873   0.10048   0.11231

 Mulliken charges and spin densities:
               1          2
     1  C    0.352280   1.033701
     2  H    0.285523  -0.036340
     3  C   -0.382761  -0.329736
     4  C    0.033710   0.062811
     5  O   -0.348523  -0.000627
     6  O   -0.170814   0.002248
     7  C   -0.243809   0.001770
     8  C   -0.561130   0.000739
     9  H    0.221664  -0.000021
    10  H    0.235478  -0.000159
    11  H    0.204635  -0.000025
    12  H    0.230602   0.000037
    13  H    0.234706   0.000068
    14  O   -0.517464   0.271540
    15  H    0.425904  -0.006005
 Sum of Mulliken charges =  -0.00000   1.00000

 Dipole moment (field-independent basis, Debye):
    X=             -0.8156    Y=             -0.4384    Z=             -0.5409  Tot=              1.0724
 Quadrupole moment (field-independent basis, Debye-Ang):
   XX=            -29.7176   YY=            -50.6508   ZZ=            -52.0637
   XY=              0.3030   XZ=             -1.9690   YZ=              5.5178

  Exact polarizability:  83.828   6.182  63.650   3.100   1.436  56.836
 Approx polarizability:  83.951   9.229  71.820   5.580  -0.941  71.342

 ******    3 imaginary frequencies (negative Signs) ******

                      1                      2                      3
                      A                      A                      A
 Frequencies --   -470.7920              -424.8530               -65.1284
 Red. masses --      1.0790                 3.4868                 5.4362
 Frc consts  --      0.1409                 0.3708                 0.0136
 IR Inten    --    114.6665               106.6315                 3.1120

                      4                      5                      6
                      A                      A                      A
 Frequencies --     45.2664                60.8289               146.9715
 Red. masses --      2.8306                 3.3660                 1.6508
 Frc consts  --      0.0034                 0.0073                 0.0210
 IR Inten    --      2.6713                 8.3968                 4.8875

                      7                      8                      9
                      A                      A                      A
 Frequencies --    192.4485               202.8294               258.9681
 Red. masses --      1.5585                 2.0645                 5.4747
 Frc consts  --      0.0340                 0.0500                 0.2163
 IR Inten    --      9.2426                 1.7330                 0.7977

                     10                     11                     12
                      A                      A                      A
 Frequencies --    313.1544               358.3434               441.3713
 Red. masses --      3.1234                 8.3503                 3.6539
 Frc consts  --      0.1805                 0.6318                 0.4194
 IR Inten    --     16.3400                 1.0368                 9.9709

                     13                     14                     15
                      A                      A                      A
 Frequencies --    583.6766               638.3441               712.3213
 Red. masses --      3.7756                 5.3728                 1.3522
 Frc consts  --      0.7578                 1.2899                 0.4043
 IR Inten    --     14.7672                17.8928                56.0841

                     16                     17                     18
                      A                      A                      A
 Frequencies --    735.4346               816.0775               892.9147
 Red. masses --     10.3061                 1.3300                 3.1390
 Frc consts  --      3.2842                 0.5219                 1.4746
 IR Inten    --     16.1107                 7.2998                18.9651

                     19                     20                     21
                      A                      A                      A
 Frequencies --    931.1826              1022.9844              1105.6331
 Red. masses --      2.3101                 1.2913                 3.9679
 Frc consts  --      1.1802                 0.7962                 2.8578
 IR Inten    --      4.1793                37.1880                17.2611

                     22                     23                     24
                      A                      A                      A
 Frequencies --   1157.9435              1227.7108              1320.2591
 Red. masses --      2.0542                 1.7438                 2.1987
 Frc consts  --      1.6228                 1.5486                 2.2581
 IR Inten    --     18.7822                 6.1341               319.1043

                     25                     26                     27
                      A                      A                      A
 Frequencies --   1366.1609              1439.9695              1459.0289
 Red. masses --      1.6437                 1.3682                 1.2462
 Frc consts  --      1.8075                 1.6715                 1.5630
 IR Inten    --    222.3656                21.9425                19.8205

                     28                     29                     30
                      A                      A                      A
 Frequencies --   1526.8590              1536.8670              1545.3081
 Red. masses --      1.0411                 1.0527                 1.0904
 Frc consts  --      1.4300                 1.4650                 1.5342
 IR Inten    --     14.8579                 2.2161                24.6498

                     31                     32                     33
                      A                      A                      A
 Frequencies --   1864.6039              1927.9445              3108.9073
 Red. masses --      7.4856                11.1879                 1.0351
 Frc consts  --     15.3338                24.5012                 5.8944
 IR Inten    --     64.3018               252.3988                11.8330

                     34                     35                     36
                      A                      A                      A
 Frequencies --   3140.1523              3190.7670              3191.2900
 Red. masses --      1.0602                 1.1036                 1.0992
 Frc consts  --      6.1593                 6.6198                 6.5958
 IR Inten    --     21.1235                 0.4151                19.0562

                     37                     38                     39
                      A                      A                      A
 Frequencies --   3213.1339              3477.2451              3875.3974
 Red. masses --      1.1054                 1.1260                 1.0670
 Frc consts  --      6.7242                 8.0216                 9.4417
 IR Inten    --     16.6980                63.3760                37.7107

 - Thermochemistry -
 -------------------
 Temperature   298.150 Kelvin.  Pressure   1.00000 Atm.
 Atom     1 has atomic number  6 and mass  12.00000

 Molecular mass:   115.03952 amu.
 Principal axes and moments of inertia in atomic units:
                           1         2         3
     Eigenvalues --   471.652091372.999981488.53600
           X            0.99993   0.01156   0.00025
           Y           -0.01153   0.99516   0.09757
           Z            0.00088  -0.09757   0.99523
 This molecule is an asymmetric top.
 Rotational symmetry number  1.
 Warning -- assumption of classical behavior for rotation
           may cause significant error
 Rotational temperatures (Kelvin)      0.18364     0.06308     0.05819
 Rotational constants (GHZ):           3.82642     1.31445     1.21243
    3 imaginary frequencies ignored.
 Zero-point vibrational energy     293254.4 (Joules/Mol)
                                   70.08947 (Kcal/Mol)
 Warning -- explicit consideration of  10 degrees of freedom as
           vibrations may cause significant error
 Vibrational temperatures:     65.13    87.52   211.46   276.89   291.83
          (Kelvin)            372.60   450.56   515.58   635.03   839.78
                              918.43  1024.87  1058.13  1174.15  1284.71
                             1339.76  1471.85  1590.76  1666.02  1766.40
                             1899.56  1965.60  2071.79  2099.22  2196.81
                             2211.21  2223.35  2682.75  2773.88  4473.02
                             4517.98  4590.80  4591.55  4622.98  5002.98
                             5575.83

 Zero-point correction=                           0.111695 (Hartree/Particle)
 Thermal correction to Energy=                    0.120295
 Thermal correction to Enthalpy=                  0.121240
 Thermal correction to Gibbs Free Energy=         0.076800
 Sum of electronic and zero-point Energies=           -419.857238
 Sum of electronic and thermal Energies=              -419.848638
 Sum of electronic and thermal Enthalpies=            -419.847694
 Sum of electronic and thermal Free Energies=         -419.892133

                     E (Thermal)             CV                S
                      KCal/Mol        Cal/Mol-Kelvin    Cal/Mol-Kelvin
 Total                   75.486             28.740             93.532
 Electronic               0.000              0.000              1.377
 Translational            0.889              2.981             40.136
 Rotational               0.889              2.981             28.357
 Vibrational             73.709             22.778             23.661
 Vibration     1          0.595              1.979              5.014
 Vibration     2          0.597              1.973              4.430
 Vibration     3          0.617              1.906              2.711
 Vibration     4          0.634              1.850              2.204
 Vibration     5          0.639              1.836              2.107
 Vibration     6          0.668              1.748              1.669
 Vibration     7          0.701              1.649              1.346
 Vibration     8          0.733              1.558              1.129
 Vibration     9          0.801              1.380              0.822
 Vibration    10          0.941              1.067              0.479

 Normal termination of Gaussian 16 at Fri Jun 20 13:56:05 2025.
