 Gaussian 16, Revision A.03,
 Gaussian 16:  ES64L-G16RevA.03 25-Dec-2016

 --------------------------
 # freq 6-311++g(d,p) m062x
 --------------------------

 -------------------
 Title Card Required
 -------------------
 Symbolic Z-matrix:
 Charge =  0 Multiplicity = 2

                         Standard orientation:
 ---------------------------------------------------------------------
 Center     Atomic      Atomic             Coordinates (Angstroms)
 Number     Number       Type             X           Y           Z
 ---------------------------------------------------------------------
      1          6           0       -2.788932   -0.491430   -0.438172
      2          1           0       -3.817325   -0.547621   -0.709633
      3          6           0       -1.624831   -0.377491   -0.146622
      4          6           0       -0.223159   -0.569765    0.233677
      5          8           0        0.112942   -0.897766    1.336526
      6          8           0        0.580327   -0.369954   -0.802940
      7          6           0        1.994260   -0.454440   -0.531842
      8          6           0        2.485441    0.819897    0.125169
      9          1           0        2.443027   -0.604622   -1.511992
     10          1           0        2.180572   -1.328723    0.092926
     11          1           0        3.567420    0.769681    0.261916
     12          1           0        2.250485    1.682281   -0.499911
     13          1           0        2.018621    0.951693    1.101602
     14          8           0       -1.401448    1.729829    0.090240
     15          1           0       -2.034047    1.819809    0.821218
 ---------------------------------------------------------------------

 SCF Done:  E(UM062X) =  -420.204202232     A.U. after   24 cycles

 The electronic state is 2-A.
 Alpha  occ. eigenvalues --  -19.68025 -19.66826 -19.62927 -10.70543 -10.60315
 Alpha  occ. eigenvalues --  -10.58338 -10.57882 -10.53363  -1.25551  -1.16251
 Alpha  occ. eigenvalues --   -1.12769  -0.90762  -0.87269  -0.78004  -0.70546
 Alpha  occ. eigenvalues --   -0.64357  -0.61822  -0.58445  -0.57122  -0.54330
 Alpha  occ. eigenvalues --   -0.53235  -0.50417  -0.48548  -0.46133  -0.45045
 Alpha  occ. eigenvalues --   -0.41843  -0.41708  -0.39521  -0.38265  -0.36493
 Alpha  occ. eigenvalues --   -0.35174
 Alpha virt. eigenvalues --   -0.00842  -0.00205   0.00511   0.01472   0.02528
 Alpha virt. eigenvalues --    0.02791   0.03620   0.04382   0.05642   0.06191
 Alpha virt. eigenvalues --    0.07144   0.07649   0.08464   0.09820   0.10722

  Beta  occ. eigenvalues --  -19.68029 -19.65315 -19.62944 -10.70524 -10.60315
  Beta  occ. eigenvalues --  -10.58351 -10.57727 -10.53363  -1.25557  -1.16287
  Beta  occ. eigenvalues --   -1.05977  -0.90353  -0.86926  -0.77838  -0.70376
  Beta  occ. eigenvalues --   -0.64287  -0.61459  -0.58394  -0.56637  -0.53210
  Beta  occ. eigenvalues --   -0.51811  -0.49012  -0.46532  -0.45093  -0.41702
  Beta  occ. eigenvalues --   -0.39441  -0.39036  -0.38387  -0.38069  -0.36003
  Beta virt. eigenvalues --   -0.09288  -0.00257   0.00184   0.00574   0.01764
  Beta virt. eigenvalues --    0.02640   0.02824   0.03638   0.04465   0.05713
  Beta virt. eigenvalues --    0.06191   0.07240   0.07628   0.08498   0.09907

 Mulliken charges and spin densities:
               1          2
     1  C   -1.203882   0.238117
     2  H    0.186623  -0.011726
     3  C    1.273137  -0.110201
     4  C   -0.350866   0.049231
     5  O   -0.199307  -0.008105
     6  O    0.059819   0.000437
     7  C   -0.272719  -0.000527
     8  C   -0.415952   0.001961
     9  H    0.194845   0.000117
    10  H    0.188828  -0.000003
    11  H    0.170077   0.000075
    12  H    0.171411  -0.000267
    13  H    0.189054  -0.001008
    14  O   -0.225635   0.861554
    15  H    0.234565  -0.019658
 Sum of Mulliken charges =  -0.00000   1.00000

 Dipole moment (field-independent basis, Debye):
    X=             -0.6483    Y=              0.0836    Z=             -0.6584  Tot=              0.9278
 Quadrupole moment (field-independent basis, Debye-Ang):
   XX=            -30.1806   YY=            -48.7246   ZZ=            -51.2262
   XY=             -0.2403   XZ=             -1.8185   YZ=              5.1070

  Exact polarizability:  91.451   6.176  68.703   4.490   1.955  59.443
 Approx polarizability:  98.914   5.983  72.856   7.493  -1.206  76.745

 ******    2 imaginary frequencies (negative Signs) ******

                      1                      2                      3
                      A                      A                      A
 Frequencies --   -186.6733               -24.5972                45.9794
 Red. masses --     11.6253                 4.8927                 4.0033
 Frc consts  --      0.2387                 0.0017                 0.0050
 IR Inten    --     22.5486                 7.6450                 1.0530

                      4                      5                      6
                      A                      A                      A
 Frequencies --    115.3859               134.4370               160.2878
 Red. masses --      3.8538                 4.8837                 2.5627
 Frc consts  --      0.0302                 0.0520                 0.0388
 IR Inten    --      1.7061                11.5314                10.2310

                      7                      8                      9
                      A                      A                      A
 Frequencies --    209.4518               226.3267               255.9008
 Red. masses --      1.5958                 1.4131                 1.9111
 Frc consts  --      0.0412                 0.0426                 0.0737
 IR Inten    --     36.1992                 2.2234                32.8233

                     10                     11                     12
                      A                      A                      A
 Frequencies --    336.1962               427.7054               558.8419
 Red. masses --      2.9076                 3.7602                 3.5428
 Frc consts  --      0.1936                 0.4053                 0.6519
 IR Inten    --      9.7735                 3.5679                 9.5749

                     13                     14                     15
                      A                      A                      A
 Frequencies --    607.5355               640.7325               719.7979
 Red. masses --      6.1096                 1.1529                 1.3303
 Frc consts  --      1.3286                 0.2789                 0.4061
 IR Inten    --     14.2968                76.9877                34.3859

                     16                     17                     18
                      A                      A                      A
 Frequencies --    743.5972               774.3215               803.0780
 Red. masses --      1.3250                 7.7239                 1.2065
 Frc consts  --      0.4317                 2.7285                 0.4584
 IR Inten    --     21.4038                58.4785                 5.2391

                     19                     20                     21
                      A                      A                      A
 Frequencies --    897.5795               929.2798              1075.9956
 Red. masses --      3.2319                 2.7539                 4.1337
 Frc consts  --      1.5341                 1.4012                 2.8198
 IR Inten    --     15.7914                 5.8871                23.1059

                     22                     23                     24
                      A                      A                      A
 Frequencies --   1129.7640              1204.5196              1291.5928
 Red. masses --      2.0924                 1.7712                 3.6197
 Frc consts  --      1.5735                 1.5141                 3.5577
 IR Inten    --     22.6406                 5.6014               536.3938

                     25                     26                     27
                      A                      A                      A
 Frequencies --   1346.4980              1402.0760              1431.3818
 Red. masses --      1.2578                 1.2855                 1.3842
 Frc consts  --      1.3436                 1.4889                 1.6710
 IR Inten    --    102.9658                28.2234                12.8662

                     28                     29                     30
                      A                      A                      A
 Frequencies --   1491.1531              1502.4773              1515.0871
 Red. masses --      1.0401                 1.0550                 1.0932
 Frc consts  --      1.3625                 1.4032                 1.4785
 IR Inten    --     10.8678                 1.1043                21.3586

                     31                     32                     33
                      A                      A                      A
 Frequencies --   1844.1688              2208.3612              3075.8089
 Red. masses --     11.9972                 5.9844                 1.0353
 Frc consts  --     24.0398                17.1954                 5.7706
 IR Inten    --    340.7487                73.9523                 9.5434

                     34                     35                     36
                      A                      A                      A
 Frequencies --   3107.3688              3152.4953              3154.2676
 Red. masses --      1.0607                 1.1020                 1.1044
 Frc consts  --      6.0345                 6.4528                 6.4740
 IR Inten    --     19.8633                13.0379                 4.1555

                     37                     38                     39
                      A                      A                      A
 Frequencies --   3175.0733              3484.4841              3806.1366
 Red. masses --      1.1073                 1.1617                 1.0673
 Frc consts  --      6.5771                 8.3101                 9.1101
 IR Inten    --     14.8615                68.6970                41.5042

 - Thermochemistry -
 -------------------
 Temperature   298.150 Kelvin.  Pressure   1.00000 Atm.
 Atom     1 has atomic number  6 and mass  12.00000

 Molecular mass:   115.03952 amu.
 Principal axes and moments of inertia in atomic units:
                           1         2         3
     Eigenvalues --   510.318881380.083461528.78227
           X            0.99994   0.01074  -0.00089
           Y           -0.01064   0.99726   0.07321
           Z            0.00167  -0.07319   0.99732
 This molecule is an asymmetric top.
 Rotational symmetry number  1.
 Warning -- assumption of classical behavior for rotation
           may cause significant error
 Rotational temperatures (Kelvin)      0.16973     0.06276     0.05666
 Rotational constants (GHZ):           3.53650     1.30770     1.18051
    2 imaginary frequencies ignored.
 Zero-point vibrational energy     292996.2 (Joules/Mol)
                                   70.02778 (Kcal/Mol)
 Warning -- explicit consideration of  11 degrees of freedom as
           vibrations may cause significant error
 Vibrational temperatures:     66.15   166.01   193.42   230.62   301.35
          (Kelvin)            325.63   368.18   483.71   615.37   804.05
                              874.11   921.87  1035.63  1069.87  1114.08
                             1155.45  1291.42  1337.03  1548.12  1625.48
                             1733.04  1858.31  1937.31  2017.27  2059.44
                             2145.44  2161.73  2179.87  2653.35  3177.34
                             4425.40  4470.81  4535.74  4538.29  4568.22
                             5013.40  5476.18

 Zero-point correction=                           0.111596 (Hartree/Particle)
 Thermal correction to Energy=                    0.120543
 Thermal correction to Enthalpy=                  0.121487
 Thermal correction to Gibbs Free Energy=         0.076736
 Sum of electronic and zero-point Energies=           -420.092606
 Sum of electronic and thermal Energies=              -420.083660
 Sum of electronic and thermal Enthalpies=            -420.082715
 Sum of electronic and thermal Free Energies=         -420.127466

                     E (Thermal)             CV                S
                      KCal/Mol        Cal/Mol-Kelvin    Cal/Mol-Kelvin
 Total                   75.642             30.495             94.186
 Electronic               0.000              0.000              1.377
 Translational            0.889              2.981             40.136
 Rotational               0.889              2.981             28.467
 Vibrational             73.864             24.534             24.206
 Vibration     1          0.595              1.979              4.983
 Vibration     2          0.608              1.937              3.176
 Vibration     3          0.613              1.919              2.882
 Vibration     4          0.622              1.891              2.546
 Vibration     5          0.642              1.826              2.048
 Vibration     6          0.650              1.801              1.908
 Vibration     7          0.666              1.753              1.690
 Vibration     8          0.717              1.603              1.230
 Vibration     9          0.789              1.410              0.866
 Vibration    10          0.914              1.120              0.526
 Vibration    11          0.966              1.016              0.437

 1\1\GINC-AJ\Freq\UM062X\6-311++G(d,p)\C5H7O3(2)\AAYUSH\23-Jun-2025\0\\
 # freq 6-311++g(d,p) m062x\\Title Card Required\\0,2\C,-2.788932,-0.49
 143,-0.438172\H,-3.817325,-0.547621,-0.709633\C,-1.624831,-0.377491,-0
 .146622\C,-0.223159,-0.569765,0.233677\O,0.112942,-0.897766,1.336526\O
 ,0.580327,-0.369954,-0.80294\C,1.99426,-0.45444,-0.531842\C,2.485441,0
 .819897,0.125169\H,2.443027,-0.604622,-1.511992\H,2.180572,-1.328723,0
 .092926\H,3.56742,0.769681,0.261916\H,2.250485,1.682281,-0.499911\H,2.
 018621,0.951693,1.101602\O,-1.401448,1.729829,0.09024\H,-2.034047,1.81

 Normal termination of Gaussian 16 at Mon Jun 23 05:50:44 2025.
