 Gaussian 16, Revision A.03,
 Gaussian 16:  ES64L-G16RevA.03 25-Dec-2016

 -------------------
 # freq 6-31+g m062x
 -------------------

 -------------------
 Title Card Required
 -------------------
 Symbolic Z-matrix:
 Charge =  0 Multiplicity = 2

                         Standard orientation:
 ---------------------------------------------------------------------
 Center     Atomic      Atomic             Coordinates (Angstroms)
 Number     Number       Type             X           Y           Z
 ---------------------------------------------------------------------
      1          6           0       -2.783515   -0.491358   -0.442267
      2          1           0       -3.809868   -0.565953   -0.717978
      3          6           0       -1.622096   -0.316486   -0.142074
      4          6           0       -0.221745   -0.564112    0.230318
      5          8           0        0.110227   -0.911464    1.327740
      6          8           0        0.580878   -0.363656   -0.805788
      7          6           0        1.995251   -0.449456   -0.534721
      8          6           0        2.484281    0.820265    0.133021
      9          1           0        2.444349   -0.590947   -1.515953
     10          1           0        2.182074   -1.328792    0.082653
     11          1           0        3.566184    0.769738    0.270251
     12          1           0        2.248733    1.687460   -0.485050
     13          1           0        2.016591    0.943930    1.110138
     14          8           0       -1.406851    1.686638    0.098245
     15          1           0       -2.035154    1.799297    0.828701
 ---------------------------------------------------------------------

 SCF Done:  E(UM062X) =  -419.953890531     A.U. after   22 cycles

 The electronic state is 2-A.
 Alpha  occ. eigenvalues --  -19.70415 -19.68633 -19.66183 -10.72995 -10.61322
 Alpha  occ. eigenvalues --  -10.60968 -10.60059 -10.54154  -1.27993  -1.18645
 Alpha  occ. eigenvalues --   -1.13314  -0.91791  -0.88121  -0.78558  -0.71247
 Alpha  occ. eigenvalues --   -0.64587  -0.62521  -0.58749  -0.57280  -0.53720
 Alpha  occ. eigenvalues --   -0.53597  -0.50324  -0.48467  -0.46307  -0.45050
 Alpha  occ. eigenvalues --   -0.41741  -0.41176  -0.39677  -0.38053  -0.36908
 Alpha  occ. eigenvalues --   -0.34418
 Alpha virt. eigenvalues --   -0.00809   0.01880   0.02464   0.03497   0.03716
 Alpha virt. eigenvalues --    0.04368   0.05529   0.05846   0.07688   0.07975
 Alpha virt. eigenvalues --    0.08841   0.08929   0.09997   0.11794   0.12235

  Beta  occ. eigenvalues --  -19.70419 -19.67159 -19.66205 -10.72964 -10.61322
  Beta  occ. eigenvalues --  -10.61031 -10.59812 -10.54154  -1.27997  -1.18678
  Beta  occ. eigenvalues --   -1.07560  -0.91240  -0.87757  -0.78367  -0.71024
  Beta  occ. eigenvalues --   -0.64486  -0.61996  -0.58586  -0.56985  -0.53670
  Beta  occ. eigenvalues --   -0.51190  -0.49169  -0.46672  -0.45142  -0.41701
  Beta  occ. eigenvalues --   -0.39623  -0.39446  -0.38209  -0.37960  -0.36075
  Beta virt. eigenvalues --   -0.09857   0.00289   0.01926   0.02485   0.03475
  Beta virt. eigenvalues --    0.03782   0.04562   0.05577   0.05880   0.07718
  Beta virt. eigenvalues --    0.07952   0.08904   0.08954   0.10121   0.11806

 Mulliken charges and spin densities:
               1          2
     1  C    0.232312   0.362931
     2  H    0.318998  -0.014240
     3  C   -0.363940  -0.157562
     4  C    0.051415   0.056180
     5  O   -0.342679  -0.010175
     6  O   -0.164149  -0.000535
     7  C   -0.261384  -0.000921
     8  C   -0.553246   0.000865
     9  H    0.220612  -0.000011
    10  H    0.233926  -0.000125
    11  H    0.204665  -0.000050
    12  H    0.228808  -0.000044
    13  H    0.235633  -0.000018
    14  O   -0.447503   0.792271
    15  H    0.406532  -0.028566
 Sum of Mulliken charges =  -0.00000   1.00000

 Dipole moment (field-independent basis, Debye):
    X=             -0.8111    Y=             -0.1836    Z=             -0.4806  Tot=              0.9605
 Quadrupole moment (field-independent basis, Debye-Ang):
   XX=            -29.3939   YY=            -49.4241   ZZ=            -52.2862
   XY=              0.0478   XZ=             -2.0463   YZ=              5.6624

  Exact polarizability:  86.971   7.399  68.963   4.166   2.270  57.182
 Approx polarizability:  92.017   8.829  68.159   7.727  -1.534  71.570

 ******    5 imaginary frequencies (negative Signs) ******

                      1                      2                      3
                      A                      A                      A
 Frequencies --   -459.3344              -440.3613              -103.5359
 Red. masses --      1.4338                 3.1836                 6.5684
 Frc consts  --      0.1782                 0.3637                 0.0415
 IR Inten    --     89.6246                64.2640                10.6887

                      4                      5                      6
                      A                      A                      A
 Frequencies --    -51.7940               -14.7365                92.9094
 Red. masses --      4.3019                 2.5244                 3.2720
 Frc consts  --      0.0068                 0.0003                 0.0166
 IR Inten    --      4.6187                 0.3683                 6.8019

                      7                      8                      9
                      A                      A                      A
 Frequencies --    148.9353               175.8450               210.9230
 Red. masses --      5.3180                 1.3248                 4.8456
 Frc consts  --      0.0695                 0.0241                 0.1270
 IR Inten    --      0.3650                 1.1828                 0.5975

                     10                     11                     12
                      A                      A                      A
 Frequencies --    306.1211               416.2672               517.9887
 Red. masses --      2.8649                 3.4549                 1.4280
 Frc consts  --      0.1582                 0.3527                 0.2257
 IR Inten    --     13.3678                11.1053                77.8217

                     13                     14                     15
                      A                      A                      A
 Frequencies --    590.6081               620.8748               682.3498
 Red. masses --      2.7873                 4.0045                 1.5415
 Frc consts  --      0.5728                 0.9095                 0.4229
 IR Inten    --     28.7385                11.8017                13.2107

                     16                     17                     18
                      A                      A                      A
 Frequencies --    723.8328               759.7260               817.6753
 Red. masses --      4.5128                 1.3633                 1.2809
 Frc consts  --      1.3931                 0.4636                 0.5046
 IR Inten    --     86.7233                50.9411                 7.4124

                     19                     20                     21
                      A                      A                      A
 Frequencies --    897.7715               944.3612              1108.8198
 Red. masses --      3.3493                 2.5110                 4.1913
 Frc consts  --      1.5905                 1.3194                 3.0361
 IR Inten    --     21.6360                 6.0232                11.4068

                     22                     23                     24
                      A                      A                      A
 Frequencies --   1158.7947              1228.6789              1325.8424
 Red. masses --      2.0766                 1.7512                 1.9402
 Frc consts  --      1.6429                 1.5577                 2.0094
 IR Inten    --     18.0569                 5.6567               302.1027

                     25                     26                     27
                      A                      A                      A
 Frequencies --   1369.7335              1442.0097              1458.0427
 Red. masses --      1.7816                 1.3874                 1.2565
 Frc consts  --      1.9694                 1.6997                 1.5738
 IR Inten    --    275.4664                35.0577                19.5742

                     28                     29                     30
                      A                      A                      A
 Frequencies --   1526.3169              1536.8633              1544.9169
 Red. masses --      1.0413                 1.0554                 1.0893
 Frc consts  --      1.4293                 1.4688                 1.5318
 IR Inten    --     15.1370                 2.5638                27.8247

                     31                     32                     33
                      A                      A                      A
 Frequencies --   1912.4426              2215.5660              3108.2167
 Red. masses --     12.2253                 6.0112                 1.0350
 Frc consts  --     26.3443                17.3853                 5.8915
 IR Inten    --    322.3383                90.2952                11.9388

                     34                     35                     36
                      A                      A                      A
 Frequencies --   3138.6325              3189.4368              3190.6328
 Red. masses --      1.0601                 1.1030                 1.0999
 Frc consts  --      6.1531                 6.6108                 6.5973
 IR Inten    --     21.3707                 2.4738                17.6536

                     37                     38                     39
                      A                      A                      A
 Frequencies --   3211.9086              3520.6731              3827.8381
 Red. masses --      1.1054                 1.1606                 1.0673
 Frc consts  --      6.7187                 8.4760                 9.2137
 IR Inten    --     17.0908                61.8236                17.3234

 - Thermochemistry -
 -------------------
 Temperature   298.150 Kelvin.  Pressure   1.00000 Atm.
 Atom     1 has atomic number  6 and mass  12.00000

 Molecular mass:   115.03952 amu.
 Principal axes and moments of inertia in atomic units:
                           1         2         3
     Eigenvalues --   499.954371378.291291517.93973
           X            0.99994   0.01112  -0.00061
           Y           -0.01104   0.99682   0.07898
           Z            0.00148  -0.07896   0.99688
 This molecule is an asymmetric top.
 Rotational symmetry number  1.
 Warning -- assumption of classical behavior for rotation
           may cause significant error
 Rotational temperatures (Kelvin)      0.17324     0.06284     0.05706
 Rotational constants (GHZ):           3.60981     1.30940     1.18894
    5 imaginary frequencies ignored.
 Zero-point vibrational energy     292615.9 (Joules/Mol)
                                   69.93687 (Kcal/Mol)
 Warning -- explicit consideration of   8 degrees of freedom as
           vibrations may cause significant error
 Vibrational temperatures:    133.68   214.28   253.00   303.47   440.44
          (Kelvin)            598.92   745.27   849.75   893.30   981.75
                             1041.43  1093.08  1176.45  1291.69  1358.73
                             1595.34  1667.25  1767.79  1907.59  1970.74
                             2074.73  2097.80  2196.03  2211.20  2222.79
                             2751.58  3187.71  4472.03  4515.79  4588.89
                             4590.61  4621.22  5065.46  5507.41

 Zero-point correction=                           0.111452 (Hartree/Particle)
 Thermal correction to Energy=                    0.118643
 Thermal correction to Enthalpy=                  0.119588
 Thermal correction to Gibbs Free Energy=         0.078736
 Sum of electronic and zero-point Energies=           -419.842439
 Sum of electronic and thermal Energies=              -419.835247
 Sum of electronic and thermal Enthalpies=            -419.834303
 Sum of electronic and thermal Free Energies=         -419.875155

                     E (Thermal)             CV                S
                      KCal/Mol        Cal/Mol-Kelvin    Cal/Mol-Kelvin
 Total                   74.450             25.142             85.980
 Electronic               0.000              0.000              1.377
 Translational            0.889              2.981             40.136
 Rotational               0.889              2.981             28.438
 Vibrational             72.672             19.180             16.029
 Vibration     1          0.602              1.954              3.598
 Vibration     2          0.618              1.904              2.686
 Vibration     3          0.628              1.872              2.372
 Vibration     4          0.643              1.824              2.036
 Vibration     5          0.697              1.662              1.383
 Vibration     6          0.779              1.435              0.905
 Vibration     7          0.873              1.210              0.615
 Vibration     8          0.948              1.052              0.466

 Normal termination of Gaussian 16 at Fri Jun 20 14:09:50 2025.
