 Gaussian 16, Revision A.03,
 Gaussian 16:  ES64L-G16RevA.03 25-Dec-2016

 -------------------
 # freq 6-31+g m062x
 -------------------

 -------------------
 Title Card Required
 -------------------
 Symbolic Z-matrix:
 Charge =  0 Multiplicity = 2

                         Standard orientation:
 ---------------------------------------------------------------------
 Center     Atomic      Atomic             Coordinates (Angstroms)
 Number     Number       Type             X           Y           Z
 ---------------------------------------------------------------------
      1          6           0       -2.786970   -0.491163   -0.439503
      2          1           0       -3.814628   -0.554469   -0.712476
      3          6           0       -1.623881   -0.357493   -0.145235
      4          6           0       -0.222685   -0.567383    0.232623
      5          8           0        0.111952   -0.902441    1.333567
      6          8           0        0.580591   -0.367802   -0.803891
      7          6           0        1.994624   -0.452800   -0.532772
      8          6           0        2.485014    0.820050    0.127821
      9          1           0        2.443555   -0.600081   -1.513267
     10          1           0        2.181117   -1.328756    0.089557
     11          1           0        3.566960    0.769818    0.264814
     12          1           0        2.249864    1.684022   -0.494966
     13          1           0        2.017848    0.949120    1.104472
     14          8           0       -1.403368    1.715183    0.092907
     15          1           0       -2.034720    1.813549    0.823594
 ---------------------------------------------------------------------

 SCF Done:  E(UM062X) =  -419.955468312     A.U. after   24 cycles

 The electronic state is 2-A.
 Alpha  occ. eigenvalues --  -19.70353 -19.69228 -19.66094 -10.72922 -10.61283
 Alpha  occ. eigenvalues --  -10.60309 -10.59657 -10.54140  -1.27900  -1.18552
 Alpha  occ. eigenvalues --   -1.13815  -0.91581  -0.88000  -0.78485  -0.71154
 Alpha  occ. eigenvalues --   -0.64499  -0.62299  -0.58630  -0.57197  -0.53966
 Alpha  occ. eigenvalues --   -0.53671  -0.50449  -0.48555  -0.46328  -0.45018
 Alpha  occ. eigenvalues --   -0.41758  -0.41583  -0.39574  -0.38006  -0.36813
 Alpha  occ. eigenvalues --   -0.35079
 Alpha virt. eigenvalues --   -0.00883   0.01940   0.02488   0.03622   0.03715
 Alpha virt. eigenvalues --    0.04410   0.05500   0.05856   0.07696   0.08092
 Alpha virt. eigenvalues --    0.08835   0.08936   0.10024   0.11835   0.12278

  Beta  occ. eigenvalues --  -19.70357 -19.67678 -19.66114 -10.72897 -10.61283
  Beta  occ. eigenvalues --  -10.60343 -10.59469 -10.54140  -1.27906  -1.18583
  Beta  occ. eigenvalues --   -1.07451  -0.91154  -0.87699  -0.78337  -0.70986
  Beta  occ. eigenvalues --   -0.64426  -0.61875  -0.58479  -0.56878  -0.53656
  Beta  occ. eigenvalues --   -0.51328  -0.49187  -0.46637  -0.45092  -0.41678
  Beta  occ. eigenvalues --   -0.39427  -0.39273  -0.38256  -0.38008  -0.36229
  Beta virt. eigenvalues --   -0.09536   0.00023   0.01990   0.02507   0.03632
  Beta virt. eigenvalues --    0.03778   0.04617   0.05561   0.05906   0.07737
  Beta virt. eigenvalues --    0.08054   0.08924   0.08974   0.10129   0.11875

 Mulliken charges and spin densities:
               1          2
     1  C    0.093309   0.245671
     2  H    0.325619  -0.010710
     3  C   -0.315199  -0.106979
     4  C    0.117351   0.062294
     5  O   -0.340908  -0.009149
     6  O   -0.163617  -0.000508
     7  C   -0.257430  -0.000952
     8  C   -0.554657   0.000519
     9  H    0.220182  -0.000012
    10  H    0.233389  -0.000103
    11  H    0.204661  -0.000035
    12  H    0.228182  -0.000048
    13  H    0.235863  -0.000039
    14  O   -0.433558   0.850962
    15  H    0.406812  -0.030911
 Sum of Mulliken charges =  -0.00000   1.00000

 Dipole moment (field-independent basis, Debye):
    X=             -0.7975    Y=             -0.0029    Z=             -0.4343  Tot=              0.9081
 Quadrupole moment (field-independent basis, Debye-Ang):
   XX=            -29.5864   YY=            -49.1220   ZZ=            -52.3527
   XY=             -0.3368   XZ=             -2.1670   YZ=              5.6860

  Exact polarizability:  87.096   6.449  65.850   4.038   1.543  57.061
 Approx polarizability:  92.514   7.158  64.696   7.674  -2.246  71.478

 ******    5 imaginary frequencies (negative Signs) ******

                      1                      2                      3
                      A                      A                      A
 Frequencies --   -454.5618              -284.3404              -105.3881
 Red. masses --      1.0924                 8.3038                 6.0093
 Frc consts  --      0.1330                 0.3956                 0.0393
 IR Inten    --    116.3438                11.6291                15.3048

                      4                      5                      6
                      A                      A                      A
 Frequencies --    -57.7686               -13.3892                84.9279
 Red. masses --      4.4639                 2.6063                 3.3054
 Frc consts  --      0.0088                 0.0003                 0.0140
 IR Inten    --      3.5547                 0.3319                 6.6694

                      7                      8                      9
                      A                      A                      A
 Frequencies --    134.7812               174.4266               197.3769
 Red. masses --      5.4068                 1.2817                 5.3125
 Frc consts  --      0.0579                 0.0230                 0.1219
 IR Inten    --      0.1695                 1.2888                 0.9514

                     10                     11                     12
                      A                      A                      A
 Frequencies --    305.8687               409.5195               455.5561
 Red. masses --      2.8263                 2.5067                 1.3597
 Frc consts  --      0.1558                 0.2477                 0.1663
 IR Inten    --     13.3057                36.8564                80.5739

                     13                     14                     15
                      A                      A                      A
 Frequencies --    576.3810               619.2192               712.0657
 Red. masses --      3.9467                 5.4098                 1.9945
 Frc consts  --      0.7725                 1.2221                 0.5958
 IR Inten    --      6.2463                12.3903                 9.1770

                     16                     17                     18
                      A                      A                      A
 Frequencies --    735.3768               771.5105               817.9735
 Red. masses --      2.7164                 1.3504                 1.2750
 Frc consts  --      0.8655                 0.4736                 0.5026
 IR Inten    --     93.6154                50.9167                 6.7158

                     19                     20                     21
                      A                      A                      A
 Frequencies --    898.7284               945.7360              1110.2406
 Red. masses --      3.3791                 2.5139                 4.1791
 Frc consts  --      1.6081                 1.3248                 3.0350
 IR Inten    --     21.0959                 5.8854                10.2558

                     22                     23                     24
                      A                      A                      A
 Frequencies --   1159.1652              1228.8524              1327.4976
 Red. masses --      2.0849                 1.7534                 1.8721
 Frc consts  --      1.6506                 1.5600                 1.9438
 IR Inten    --     18.3827                 5.1306               291.0260

                     25                     26                     27
                      A                      A                      A
 Frequencies --   1370.9396              1442.4687              1457.7834
 Red. masses --      1.8300                 1.3916                 1.2600
 Frc consts  --      2.0264                 1.7060                 1.5777
 IR Inten    --    291.6649                38.2836                18.9181

                     28                     29                     30
                      A                      A                      A
 Frequencies --   1526.2672              1536.8502              1544.7535
 Red. masses --      1.0414                 1.0567                 1.0884
 Frc consts  --      1.4293                 1.4705                 1.5302
 IR Inten    --     14.9981                 2.3963                27.8475

                     31                     32                     33
                      A                      A                      A
 Frequencies --   1911.0283              2258.7965              3108.0006
 Red. masses --     12.2479                 5.8364                 1.0350
 Frc consts  --     26.3540                17.5449                 5.8906
 IR Inten    --    318.7528                78.8364                12.2933

                     34                     35                     36
                      A                      A                      A
 Frequencies --   3138.0524              3188.9049              3190.4380
 Red. masses --      1.0601                 1.1027                 1.1002
 Frc consts  --      6.1507                 6.6069                 6.5984
 IR Inten    --     21.5147                 3.6978                16.7505

                     37                     38                     39
                      A                      A                      A
 Frequencies --   3211.5038              3525.2211              3820.4998
 Red. masses --      1.1053                 1.1671                 1.0673
 Frc consts  --      6.7167                 8.5450                 9.1782
 IR Inten    --     17.3535                61.1838                15.3561

 - Thermochemistry -
 -------------------
 Temperature   298.150 Kelvin.  Pressure   1.00000 Atm.
 Atom     1 has atomic number  6 and mass  12.00000

 Molecular mass:   115.03952 amu.
 Principal axes and moments of inertia in atomic units:
                           1         2         3
     Eigenvalues --   506.743551379.453001525.02989
           X            0.99994   0.01087  -0.00079
           Y           -0.01078   0.99712   0.07513
           Z            0.00161  -0.07511   0.99717
 This molecule is an asymmetric top.
 Rotational symmetry number  1.
 Warning -- assumption of classical behavior for rotation
           may cause significant error
 Rotational temperatures (Kelvin)      0.17092     0.06279     0.05679
 Rotational constants (GHZ):           3.56145     1.30830     1.18341
    5 imaginary frequencies ignored.
 Zero-point vibrational energy     292467.3 (Joules/Mol)
                                   69.90136 (Kcal/Mol)
 Warning -- explicit consideration of   9 degrees of freedom as
           vibrations may cause significant error
 Vibrational temperatures:    122.19   193.92   250.96   283.98   440.08
          (Kelvin)            589.21   655.44   829.28   890.92  1024.50
                             1058.04  1110.03  1176.88  1293.07  1360.70
                             1597.39  1667.78  1768.04  1909.97  1972.48
                             2075.39  2097.43  2195.96  2211.18  2222.56
                             2749.54  3249.90  4471.72  4514.96  4588.12
                             4590.33  4620.64  5072.01  5496.85

 Zero-point correction=                           0.111395 (Hartree/Particle)
 Thermal correction to Energy=                    0.118694
 Thermal correction to Enthalpy=                  0.119638
 Thermal correction to Gibbs Free Energy=         0.078463
 Sum of electronic and zero-point Energies=           -419.844073
 Sum of electronic and thermal Energies=              -419.836775
 Sum of electronic and thermal Enthalpies=            -419.835831
 Sum of electronic and thermal Free Energies=         -419.877005

                     E (Thermal)             CV                S
                      KCal/Mol        Cal/Mol-Kelvin    Cal/Mol-Kelvin
 Total                   74.481             25.265             86.660
 Electronic               0.000              0.000              1.377
 Translational            0.889              2.981             40.136
 Rotational               0.889              2.981             28.457
 Vibrational             72.704             19.303             16.689
 Vibration     1          0.601              1.960              3.774
 Vibration     2          0.613              1.919              2.877
 Vibration     3          0.627              1.874              2.387
 Vibration     4          0.637              1.844              2.157
 Vibration     5          0.696              1.663              1.385
 Vibration     6          0.774              1.450              0.928
 Vibration     7          0.814              1.349              0.779
 Vibration     8          0.933              1.082              0.492
 Vibration     9          0.979              0.991              0.418

 Normal termination of Gaussian 16 at Fri Jun 20 13:57:44 2025.
