 Gaussian 16, Revision A.03,
 Gaussian 16:  ES64L-G16RevA.03 25-Dec-2016

 --------------------------
 # freq 6-311++g(d,p) m062x
 --------------------------

 -------------------
 Title Card Required
 -------------------
 Symbolic Z-matrix:
 Charge =  0 Multiplicity = 2

                         Standard orientation:
 ---------------------------------------------------------------------
 Center     Atomic      Atomic             Coordinates (Angstroms)
 Number     Number       Type             X           Y           Z
 ---------------------------------------------------------------------
      1          6           0       -2.779584   -0.493491   -0.446737
      2          1           0       -3.804735   -0.576610   -0.725768
      3          6           0       -1.619419   -0.253197   -0.136303
      4          6           0       -0.220649   -0.562222    0.226307
      5          8           0        0.108333   -0.924430    1.319123
      6          8           0        0.581048   -0.357506   -0.808659
      7          6           0        1.996007   -0.444325   -0.537848
      8          6           0        2.483420    0.820387    0.140621
      9          1           0        2.445276   -0.577224   -1.520143
     10          1           0        2.183208   -1.328697    0.072096
     11          1           0        3.565274    0.769092    0.277999
     12          1           0        2.247374    1.692504   -0.470179
     13          1           0        2.015103    0.935995    1.118429
     14          8           0       -1.411298    1.645309    0.106375
     15          1           0       -2.034809    1.775042    0.836615
 ---------------------------------------------------------------------

 SCF Done:  E(UM062X) =  -420.203103096     A.U. after   23 cycles

 The electronic state is 2-A.
 Alpha  occ. eigenvalues --  -19.68195 -19.64911 -19.63166 -10.70695 -10.60826
 Alpha  occ. eigenvalues --  -10.60407 -10.59230 -10.53370  -1.25776  -1.16487
 Alpha  occ. eigenvalues --   -1.11109  -0.91409  -0.87654  -0.78232  -0.70859
 Alpha  occ. eigenvalues --   -0.64635  -0.62442  -0.58701  -0.57407  -0.53315
 Alpha  occ. eigenvalues --   -0.53196  -0.49924  -0.48304  -0.45994  -0.45102
 Alpha  occ. eigenvalues --   -0.41765  -0.40473  -0.39772  -0.38395  -0.36780
 Alpha  occ. eigenvalues --   -0.33108
 Alpha virt. eigenvalues --   -0.00386  -0.00227   0.00477   0.01486   0.02524
 Alpha virt. eigenvalues --    0.02734   0.03166   0.04273   0.05710   0.06142
 Alpha virt. eigenvalues --    0.07055   0.07600   0.08375   0.09872   0.10564

  Beta  occ. eigenvalues --  -19.68197 -19.63721 -19.63187 -10.70657 -10.60934
  Beta  occ. eigenvalues --  -10.60407 -10.58873 -10.53371  -1.25771  -1.16524
  Beta  occ. eigenvalues --   -1.06629  -0.90497  -0.87025  -0.77853  -0.70427
  Beta  occ. eigenvalues --   -0.64462  -0.61812  -0.58625  -0.57013  -0.53197
  Beta  occ. eigenvalues --   -0.51322  -0.48940  -0.46692  -0.45187  -0.41736
  Beta  occ. eigenvalues --   -0.40228  -0.39547  -0.38489  -0.37898  -0.35550
  Beta virt. eigenvalues --   -0.10126  -0.00177   0.00470   0.01015   0.01812
  Beta virt. eigenvalues --    0.02567   0.02788   0.03263   0.04318   0.05747
  Beta virt. eigenvalues --    0.06097   0.07162   0.07478   0.08445   0.09922

 Mulliken charges and spin densities:
               1          2
     1  C   -0.276554   0.630375
     2  H    0.209009  -0.022452
     3  C    0.543536  -0.265504
     4  C   -0.516038   0.043939
     5  O   -0.202667  -0.010269
     6  O    0.052860   0.000997
     7  C   -0.279885   0.000032
     8  C   -0.416138   0.003510
     9  H    0.195428   0.000264
    10  H    0.188011  -0.000034
    11  H    0.167795  -0.000034
    12  H    0.173600  -0.000561
    13  H    0.189184  -0.001266
    14  O   -0.263546   0.634072
    15  H    0.235405  -0.013069
 Sum of Mulliken charges =  -0.00000   1.00000

 Dipole moment (field-independent basis, Debye):
    X=             -0.7286    Y=             -0.5064    Z=             -0.8060  Tot=              1.1987
 Quadrupole moment (field-independent basis, Debye-Ang):
   XX=            -29.6258   YY=            -49.6524   ZZ=            -51.0281
   XY=              0.9327   XZ=             -1.4679   YZ=              5.0222

  Exact polarizability:  90.440   7.877  74.025   4.526   3.340  59.602
 Approx polarizability:  96.170   9.778  82.218   7.197   0.738  76.980

 ******    1 imaginary frequencies (negative Signs) ******

                      1                      2                      3
                      A                      A                      A
 Frequencies --   -680.3583                70.0669                71.5940
 Red. masses --     12.2710                 3.2242                 4.9808
 Frc consts  --      3.3466                 0.0093                 0.0150
 IR Inten    --     43.0255                 0.5186                 7.5631

                      4                      5                      6
                      A                      A                      A
 Frequencies --    117.7359               168.2322               195.2028
 Red. masses --      3.3791                 2.3594                 4.1632
 Frc consts  --      0.0276                 0.0393                 0.0935
 IR Inten    --      1.1706                19.7614                18.6469

                      7                      8                      9
                      A                      A                      A
 Frequencies --    215.3931               232.9430               273.1118
 Red. masses --      1.5428                 1.4853                 2.4529
 Frc consts  --      0.0422                 0.0475                 0.1078
 IR Inten    --     32.7139                 7.9837                13.9907

                     10                     11                     12
                      A                      A                      A
 Frequencies --    336.9308               433.1561               564.6519
 Red. masses --      3.0060                 3.6495                 3.7137
 Frc consts  --      0.2011                 0.4034                 0.6976
 IR Inten    --     10.1775                 4.0394                 1.4292

                     13                     14                     15
                      A                      A                      A
 Frequencies --    597.5095               615.4066               715.2764
 Red. masses --      1.7064                 3.2158                 1.3228
 Frc consts  --      0.3589                 0.7176                 0.3987
 IR Inten    --     38.4695                 9.6498                39.8240

                     16                     17                     18
                      A                      A                      A
 Frequencies --    765.9675               802.5468               858.9178
 Red. masses --      9.3795                 1.2090                 1.1483
 Frc consts  --      3.2423                 0.4588                 0.4991
 IR Inten    --     34.0265                 5.0208                69.1063

                     19                     20                     21
                      A                      A                      A
 Frequencies --    896.6357               924.5432              1071.5199
 Red. masses --      3.2596                 2.6544                 4.0712
 Frc consts  --      1.5440                 1.3368                 2.7540
 IR Inten    --     18.6600                 8.5286                27.0970

                     22                     23                     24
                      A                      A                      A
 Frequencies --   1129.3276              1203.7153              1284.5848
 Red. masses --      2.0822                 1.7715                 3.8545
 Frc consts  --      1.5646                 1.5123                 3.7476
 IR Inten    --     21.5939                 7.6730               528.8479

                     25                     26                     27
                      A                      A                      A
 Frequencies --   1345.0147              1402.1640              1430.8712
 Red. masses --      1.2405                 1.2815                 1.3721
 Frc consts  --      1.3222                 1.4845                 1.6551
 IR Inten    --     88.0432                22.7209                13.5991

                     28                     29                     30
                      A                      A                      A
 Frequencies --   1491.3696              1502.0951              1514.8642
 Red. masses --      1.0400                 1.0538                 1.0936
 Frc consts  --      1.3628                 1.4009                 1.4786
 IR Inten    --     10.9465                 1.1712                20.7501

                     31                     32                     33
                      A                      A                      A
 Frequencies --   1848.0583              2047.6821              3076.5187
 Red. masses --     11.8661                 6.6703                 1.0353
 Frc consts  --     23.8775                16.4786                 5.7734
 IR Inten    --    345.0117                77.8785                 8.8672

                     34                     35                     36
                      A                      A                      A
 Frequencies --   3108.9414              3153.8579              3155.0155
 Red. masses --      1.0608                 1.1012                 1.1051
 Frc consts  --      6.0410                 6.4535                 6.4812
 IR Inten    --     19.6378                15.9690                 0.5723

                     37                     38                     39
                      A                      A                      A
 Frequencies --   3176.4600              3466.8025              3826.7096
 Red. masses --      1.1074                 1.1408                 1.0676
 Frc consts  --      6.5835                 8.0781                 9.2114
 IR Inten    --     14.3576                74.2677                56.8250

 - Thermochemistry -
 -------------------
 Temperature   298.150 Kelvin.  Pressure   1.00000 Atm.
 Atom     1 has atomic number  6 and mass  12.00000

 Molecular mass:   115.03952 amu.
 Principal axes and moments of inertia in atomic units:
                           1         2         3
     Eigenvalues --   490.606971376.837351508.33981
           X            0.99993   0.01144  -0.00034
           Y           -0.01137   0.99634   0.08472
           Z            0.00130  -0.08471   0.99640
 This molecule is an asymmetric top.
 Rotational symmetry number  1.
 Warning -- assumption of classical behavior for rotation
           may cause significant error
 Rotational temperatures (Kelvin)      0.17654     0.06291     0.05742
 Rotational constants (GHZ):           3.67859     1.31079     1.19651
    1 imaginary frequencies ignored.
 Zero-point vibrational energy     293631.7 (Joules/Mol)
                                   70.17967 (Kcal/Mol)
 Warning -- explicit consideration of  13 degrees of freedom as
           vibrations may cause significant error
 Vibrational temperatures:    100.81   103.01   169.40   242.05   280.85
          (Kelvin)            309.90   335.15   392.95   484.77   623.22
                              812.41   859.68   885.43  1029.12  1102.06
                             1154.69  1235.79  1290.06  1330.21  1541.68
                             1624.85  1731.88  1848.23  1935.18  2017.40
                             2058.70  2145.75  2161.18  2179.55  2658.94
                             2946.16  4426.42  4473.07  4537.70  4539.36
                             4570.22  4987.96  5505.78

 Zero-point correction=                           0.111838 (Hartree/Particle)
 Thermal correction to Energy=                    0.121345
 Thermal correction to Enthalpy=                  0.122290
 Thermal correction to Gibbs Free Energy=         0.076531
 Sum of electronic and zero-point Energies=           -420.091265
 Sum of electronic and thermal Energies=              -420.081758
 Sum of electronic and thermal Enthalpies=            -420.080814
 Sum of electronic and thermal Free Energies=         -420.126572

                     E (Thermal)             CV                S
                      KCal/Mol        Cal/Mol-Kelvin    Cal/Mol-Kelvin
 Total                   76.145             32.222             96.307
 Electronic               0.000              0.000              1.377
 Translational            0.889              2.981             40.136
 Rotational               0.889              2.981             28.412
 Vibrational             74.368             26.261             26.381
 Vibration     1          0.598              1.968              4.151
 Vibration     2          0.598              1.968              4.109
 Vibration     3          0.608              1.935              3.137
 Vibration     4          0.625              1.882              2.455
 Vibration     5          0.636              1.847              2.178
 Vibration     6          0.645              1.818              1.997
 Vibration     7          0.654              1.791              1.856
 Vibration     8          0.676              1.723              1.576
 Vibration     9          0.718              1.602              1.227
 Vibration    10          0.794              1.398              0.848
 Vibration    11          0.920              1.108              0.515
 Vibration    12          0.955              1.037              0.454
 Vibration    13          0.975              0.999              0.424

 1\1\GINC-AJ\Freq\UM062X\6-311++G(d,p)\C5H7O3(2)\AAYUSH\23-Jun-2025\0\\
 # freq 6-311++g(d,p) m062x\\Title Card Required\\0,2\C,-2.779584,-0.49
 3491,-0.446737\H,-3.804735,-0.57661,-0.725768\C,-1.619419,-0.253197,-0
 .136303\C,-0.220649,-0.562222,0.226307\O,0.108333,-0.92443,1.319123\O,
 0.581048,-0.357506,-0.808659\C,1.996007,-0.444325,-0.537848\C,2.48342,
 0.820387,0.140621\H,2.445276,-0.577224,-1.520143\H,2.183208,-1.328697,
 0.072096\H,3.565274,0.769092,0.277999\H,2.247374,1.692504,-0.470179\H,
 2.015103,0.935995,1.118429\O,-1.411298,1.645309,0.106375\H,-2.034809,1

 Normal termination of Gaussian 16 at Mon Jun 23 05:45:47 2025.
