 Gaussian 16, Revision A.03,
 Gaussian 16:  ES64L-G16RevA.03 25-Dec-2016

 --------------------------
 # ccsd(t)/6-311++g(d,p) sp
 --------------------------

 -------------------
 Title Card Required
 -------------------
 Symbolic Z-matrix:
 Charge =  0 Multiplicity = 2

                         Standard orientation:
 ---------------------------------------------------------------------
 Center     Atomic      Atomic             Coordinates (Angstroms)
 Number     Number       Type             X           Y           Z
 ---------------------------------------------------------------------
      1          6           0       -2.774373   -0.500074   -0.453465
      2          1           0       -3.800226   -0.574018   -0.734635
      3          6           0       -1.615388   -0.167757   -0.126896
      4          6           0       -0.220810   -0.562871    0.219891
      5          8           0        0.106682   -0.941801    1.307206
      6          8           0        0.581488   -0.348771   -0.812578
      7          6           0        1.996883   -0.436928   -0.542273
      8          6           0        2.482349    0.820552    0.151140
      9          1           0        2.446707   -0.557777   -1.525835
     10          1           0        2.184797   -1.328132    0.057335
     11          1           0        3.564165    0.768403    0.288525
     12          1           0        2.245687    1.699491   -0.449487
     13          1           0        2.013429    0.924645    1.129952
     14          8           0       -1.417243    1.591545    0.117498
     15          1           0       -2.033940    1.742079    0.846757
 ---------------------------------------------------------------------

 SCF Done:  E(UHF) =  -417.978592164     A.U. after   30 cycles
 E2 =    -0.1261501265D+01 EUMP2 =    -0.41924009342927D+03
 CCSD(T)= -0.41936148923D+03

 The electronic state is 2-A.
 Alpha  occ. eigenvalues --  -20.61038 -20.60606 -20.55665 -11.41193 -11.29456
 Alpha  occ. eigenvalues --  -11.29207 -11.28133 -11.22159  -1.48125  -1.37822
 Alpha  occ. eigenvalues --   -1.36303  -1.08545  -1.04358  -0.92655  -0.83850
 Alpha  occ. eigenvalues --   -0.76560  -0.73272  -0.69279  -0.68883  -0.64890
 Alpha  occ. eigenvalues --   -0.62719  -0.62144  -0.57559  -0.55079  -0.53796
 Alpha  occ. eigenvalues --   -0.52101  -0.50164  -0.47995  -0.45873  -0.43776
 Alpha  occ. eigenvalues --   -0.42066
 Alpha virt. eigenvalues --    0.03688   0.04630   0.05725   0.06838   0.07017
 Alpha virt. eigenvalues --    0.08738   0.09744   0.10669   0.11233   0.12093
 Alpha virt. eigenvalues --    0.13292   0.13929   0.14629   0.15773   0.16734

  Beta  occ. eigenvalues --  -20.61040 -20.57770 -20.55994 -11.40827 -11.31453
  Beta  occ. eigenvalues --  -11.29458 -11.25246 -11.22160  -1.48240  -1.38339
  Beta  occ. eigenvalues --   -1.27278  -1.07444  -1.03213  -0.91226  -0.82637
  Beta  occ. eigenvalues --   -0.76212  -0.71819  -0.69566  -0.68003  -0.63349
  Beta  occ. eigenvalues --   -0.62708  -0.57829  -0.55821  -0.53918  -0.50218
  Beta  occ. eigenvalues --   -0.49797  -0.48798  -0.47225  -0.46398  -0.42266
  Beta virt. eigenvalues --    0.03792   0.04202   0.04642   0.06499   0.07011
  Beta virt. eigenvalues --    0.07554   0.08840   0.09730   0.10587   0.11888
  Beta virt. eigenvalues --    0.12639   0.13549   0.14470   0.15829   0.16072

 Mulliken charges and spin densities:
               1          2
     1  C   -0.169945   1.519498
     2  H    0.233158  -0.104690
     3  C    0.362551  -1.150169
     4  C   -0.377795   0.175343
     5  O   -0.285342  -0.065726
     6  O   -0.039462   0.003620
     7  C   -0.170428   0.001066
     8  C   -0.385508   0.000678
     9  H    0.164788   0.000085
    10  H    0.172805   0.000299
    11  H    0.136802  -0.000353
    12  H    0.152116  -0.000592
    13  H    0.177232  -0.000142
    14  O   -0.225486   0.644278
    15  H    0.254515  -0.023194
 Sum of Mulliken charges =  -0.00000   1.00000

 Dipole moment (field-independent basis, Debye):
    X=             -0.8918    Y=             -0.0469    Z=             -0.8445  Tot=              1.2291
 Quadrupole moment (field-independent basis, Debye-Ang):
   XX=            -30.1861   YY=            -49.2668   ZZ=            -51.4022
   XY=              0.0167   XZ=             -1.8129   YZ=              5.4159

 \PMP3-0=-419.2885442\MP4SDQ=-419.2982086\CCSD=-419.3062728\CCSD(T)=-41
 Normal termination of Gaussian 16 at Mon Aug  4 17:17:07 2025.
