 Gaussian 16, Revision A.03,
 Gaussian 16:  ES64L-G16RevA.03 25-Dec-2016

 --------------------------
 # ccsd(t)/6-311++g(d,p) sp
 --------------------------

 -------------------
 Title Card Required
 -------------------
 Symbolic Z-matrix:
 Charge =  0 Multiplicity = 2

                         Standard orientation:
 ---------------------------------------------------------------------
 Center     Atomic      Atomic             Coordinates (Angstroms)
 Number     Number       Type             X           Y           Z
 ---------------------------------------------------------------------
      1          6           0       -2.772416   -0.502225   -0.455254
      2          1           0       -3.799046   -0.569630   -0.736471
      3          6           0       -1.614493   -0.146644   -0.124367
      4          6           0       -0.221220   -0.563145    0.218111
      5          8           0        0.106329   -0.946352    1.303989
      6          8           0        0.581685   -0.346425   -0.813590
      7          6           0        1.997119   -0.434886   -0.543385
      8          6           0        2.482020    0.820690    0.153989
      9          1           0        2.447209   -0.552501   -1.527216
     10          1           0        2.185323   -1.327831    0.053509
     11          1           0        3.563826    0.768439    0.291413
     12          1           0        2.245204    1.701413   -0.443966
     13          1           0        2.012945    0.921656    1.133063
     14          8           0       -1.418958    1.577944    0.120347
     15          1           0       -2.033969    1.734379    0.849147
 ---------------------------------------------------------------------

 SCF Done:  E(UHF) =  -417.980629823     A.U. after   28 cycles
 E2 =    -0.1263920933D+01 EUMP2 =    -0.41924455075608D+03
 CCSD(T)= -0.41936443815D+03

 The electronic state is 2-A.
 Alpha  occ. eigenvalues --  -20.61060 -20.60244 -20.55723 -11.41165 -11.29854
 Alpha  occ. eigenvalues --  -11.29463 -11.28335 -11.22153  -1.48144  -1.37858
 Alpha  occ. eigenvalues --   -1.35927  -1.08680  -1.04375  -0.92679  -0.83919
 Alpha  occ. eigenvalues --   -0.76601  -0.73283  -0.69293  -0.68919  -0.64801
 Alpha  occ. eigenvalues --   -0.62668  -0.61702  -0.57540  -0.55009  -0.53795
 Alpha  occ. eigenvalues --   -0.51862  -0.50163  -0.48056  -0.45939  -0.43864
 Alpha  occ. eigenvalues --   -0.41950
 Alpha virt. eigenvalues --    0.03686   0.04632   0.05739   0.06839   0.07017
 Alpha virt. eigenvalues --    0.08739   0.09760   0.10677   0.11218   0.12187
 Alpha virt. eigenvalues --    0.13274   0.13940   0.14623   0.15786   0.16704

  Beta  occ. eigenvalues --  -20.61061 -20.57677 -20.56022 -11.40809 -11.32086
  Beta  occ. eigenvalues --  -11.29466 -11.25338 -11.22155  -1.48246  -1.38330
  Beta  occ. eigenvalues --   -1.27968  -1.07351  -1.03162  -0.91181  -0.82593
  Beta  occ. eigenvalues --   -0.76230  -0.71766  -0.69573  -0.68111  -0.63444
  Beta  occ. eigenvalues --   -0.62690  -0.57777  -0.55894  -0.53916  -0.50225
  Beta  occ. eigenvalues --   -0.49842  -0.49025  -0.47521  -0.46546  -0.42214
  Beta virt. eigenvalues --    0.03795   0.04148   0.04640   0.06472   0.07009
  Beta virt. eigenvalues --    0.07487   0.08829   0.09731   0.10560   0.11870
  Beta virt. eigenvalues --    0.12753   0.13542   0.14464   0.15869   0.16091

 Mulliken charges and spin densities:
               1          2
     1  C   -0.117234   1.571132
     2  H    0.236718  -0.105973
     3  C    0.290541  -1.138236
     4  C   -0.345727   0.170934
     5  O   -0.285625  -0.059053
     6  O   -0.040183   0.003612
     7  C   -0.171205   0.001039
     8  C   -0.385207   0.000379
     9  H    0.164705   0.000084
    10  H    0.172959   0.000268
    11  H    0.136689  -0.000339
    12  H    0.152362  -0.000554
    13  H    0.177205  -0.000095
    14  O   -0.242485   0.577331
    15  H    0.256487  -0.020530
 Sum of Mulliken charges =  -0.00000   1.00000

 Dipole moment (field-independent basis, Debye):
    X=             -0.9093    Y=             -0.1335    Z=             -0.8625  Tot=              1.2604
 Quadrupole moment (field-independent basis, Debye-Ang):
   XX=            -30.1564   YY=            -49.4871   ZZ=            -51.3644
   XY=              0.1396   XZ=             -1.7851   YZ=              5.3894

 -0=-419.2913224\MP4SDQ=-419.3019228\CCSD=-419.3092857\CCSD(T)=-419.364
 Normal termination of Gaussian 16 at Wed Aug 27 16:20:57 2025.
