 Gaussian 16, Revision A.03,
 Gaussian 16:  ES64L-G16RevA.03 25-Dec-2016

 -------------------
 # freq 6-31+g m062x
 -------------------

 -------------------
 Title Card Required
 -------------------
 Symbolic Z-matrix:
 Charge =  0 Multiplicity = 2

                         Standard orientation:
 ---------------------------------------------------------------------
 Center     Atomic      Atomic             Coordinates (Angstroms)
 Number     Number       Type             X           Y           Z
 ---------------------------------------------------------------------
      1          6           0       -2.779584   -0.493491   -0.446737
      2          1           0       -3.804735   -0.576610   -0.725768
      3          6           0       -1.619419   -0.253197   -0.136303
      4          6           0       -0.220649   -0.562222    0.226307
      5          8           0        0.108333   -0.924430    1.319123
      6          8           0        0.581048   -0.357506   -0.808659
      7          6           0        1.996007   -0.444325   -0.537848
      8          6           0        2.483420    0.820387    0.140621
      9          1           0        2.445276   -0.577224   -1.520143
     10          1           0        2.183208   -1.328697    0.072096
     11          1           0        3.565274    0.769092    0.277999
     12          1           0        2.247374    1.692504   -0.470179
     13          1           0        2.015103    0.935995    1.118429
     14          8           0       -1.411298    1.645309    0.106375
     15          1           0       -2.034809    1.775042    0.836615
 ---------------------------------------------------------------------

 SCF Done:  E(UM062X) =  -419.953426616     A.U. after   22 cycles

 The electronic state is 2-A.
 Alpha  occ. eigenvalues --  -19.70537 -19.67663 -19.66358 -10.73098 -10.62392
 Alpha  occ. eigenvalues --  -10.61388 -10.60786 -10.54163  -1.28155  -1.18807
 Alpha  occ. eigenvalues --   -1.12491  -0.92163  -0.88312  -0.78684  -0.71441
 Alpha  occ. eigenvalues --   -0.64755  -0.62875  -0.58950  -0.57449  -0.53735
 Alpha  occ. eigenvalues --   -0.53250  -0.50024  -0.48292  -0.46289  -0.45098
 Alpha  occ. eigenvalues --   -0.41789  -0.40593  -0.39746  -0.38140  -0.36995
 Alpha  occ. eigenvalues --   -0.33163
 Alpha virt. eigenvalues --   -0.00643   0.01771   0.02390   0.03160   0.03729
 Alpha virt. eigenvalues --    0.04319   0.05574   0.05887   0.07691   0.07827
 Alpha virt. eigenvalues --    0.08865   0.08915   0.09938   0.11684   0.12140

  Beta  occ. eigenvalues --  -19.70538 -19.66399 -19.66381 -10.73052 -10.62512
  Beta  occ. eigenvalues --  -10.61387 -10.60416 -10.54164  -1.28151  -1.18836
  Beta  occ. eigenvalues --   -1.07972  -0.91351  -0.87814  -0.78388  -0.71077
  Beta  occ. eigenvalues --   -0.64592  -0.62182  -0.58764  -0.57182  -0.53690
  Beta  occ. eigenvalues --   -0.51198  -0.49133  -0.46734  -0.45223  -0.41736
  Beta  occ. eigenvalues --   -0.40412  -0.39518  -0.38270  -0.37975  -0.35700
  Beta virt. eigenvalues --   -0.10205   0.00662   0.01781   0.02402   0.03137
  Beta virt. eigenvalues --    0.03796   0.04446   0.05583   0.05862   0.07695
  Beta virt. eigenvalues --    0.07802   0.08844   0.08933   0.10097   0.11654

 Mulliken charges and spin densities:
               1          2
     1  C    0.389930   0.600759
     2  H    0.310123  -0.021953
     3  C   -0.418269  -0.260404
     4  C   -0.014105   0.057930
     5  O   -0.344223  -0.010732
     6  O   -0.165548  -0.000301
     7  C   -0.261659  -0.000275
     8  C   -0.553462   0.001061
     9  H    0.221213  -0.000012
    10  H    0.234483  -0.000156
    11  H    0.204596  -0.000077
    12  H    0.229984  -0.000026
    13  H    0.235540   0.000020
    14  O   -0.475663   0.656574
    15  H    0.407060  -0.022408
 Sum of Mulliken charges =  -0.00000   1.00000

 Dipole moment (field-independent basis, Debye):
    X=             -0.8441    Y=             -0.5031    Z=             -0.5561  Tot=              1.1291
 Quadrupole moment (field-independent basis, Debye-Ang):
   XX=            -29.1117   YY=            -50.0130   ZZ=            -52.1888
   XY=              0.6207   XZ=             -1.8700   YZ=              5.6019

  Exact polarizability:  86.375   7.912  70.394   4.076   2.626  57.196
 Approx polarizability:  90.359  10.636  73.089   7.472  -0.631  71.669

 ******    4 imaginary frequencies (negative Signs) ******

                      1                      2                      3
                      A                      A                      A
 Frequencies --   -666.8745              -457.0106               -86.8622
 Red. masses --     12.6871                 1.0796                 7.2340
 Frc consts  --      3.3243                 0.1328                 0.0322
 IR Inten    --     36.9627               113.1393                 7.5247

                      4                      5                      6
                      A                      A                      A
 Frequencies --    -26.5899                14.8942               110.7574
 Red. masses --      3.4592                 2.7429                 2.9049
 Frc consts  --      0.0014                 0.0004                 0.0210
 IR Inten    --      4.0260                 2.1569                 6.5720

                      7                      8                      9
                      A                      A                      A
 Frequencies --    175.8702               185.3506               242.3387
 Red. masses --      1.7420                 3.3391                 4.0652
 Frc consts  --      0.0317                 0.0676                 0.1407
 IR Inten    --      2.2772                 0.0636                 1.9108

                     10                     11                     12
                      A                      A                      A
 Frequencies --    307.0645               421.4037               554.7710
 Red. masses --      2.9292                 3.5954                 3.0060
 Frc consts  --      0.1627                 0.3762                 0.5451
 IR Inten    --     14.0413                 6.8891                11.3628

                     13                     14                     15
                      A                      A                      A
 Frequencies --    591.6558               615.7087               706.8981
 Red. masses --      1.4665                 3.9973                 1.5460
 Frc consts  --      0.3025                 0.8928                 0.4552
 IR Inten    --     56.0336                 8.2975                16.3307

                     16                     17                     18
                      A                      A                      A
 Frequencies --    714.8343               752.6069               816.8996
 Red. masses --      3.1045                 1.4741                 1.2981
 Frc consts  --      0.9347                 0.4919                 0.5104
 IR Inten    --    106.0078                53.1636                 8.2339

                     19                     20                     21
                      A                      A                      A
 Frequencies --    895.6537               941.4262              1106.4287
 Red. masses --      3.2773                 2.5014                 4.2013
 Frc consts  --      1.5490                 1.3062                 3.0303
 IR Inten    --     22.4235                 5.6438                12.8272

                     22                     23                     24
                      A                      A                      A
 Frequencies --   1158.2503              1228.3041              1323.1566
 Red. masses --      2.0622                 1.7467                 2.0595
 Frc consts  --      1.6300                 1.5526                 2.1244
 IR Inten    --     17.7066                 6.4226               317.3631

                     25                     26                     27
                      A                      A                      A
 Frequencies --   1368.1219              1441.3126              1458.6172
 Red. masses --      1.7097                 1.3791                 1.2516
 Frc consts  --      1.8854                 1.6879                 1.5690
 IR Inten    --    250.2089                29.6610                20.1274

                     28                     29                     30
                      A                      A                      A
 Frequencies --   1526.3827              1536.8260              1545.1401
 Red. masses --      1.0412                 1.0539                 1.0902
 Frc consts  --      1.4292                 1.4665                 1.5336
 IR Inten    --     15.2346                 2.6549                27.2025

                     31                     32                     33
                      A                      A                      A
 Frequencies --   1913.4203              2111.3728              3108.6012
 Red. masses --     12.0898                 6.4588                 1.0351
 Frc consts  --     26.0790                16.9641                 5.8932
 IR Inten    --    322.1688                82.1655                11.6106

                     34                     35                     36
                      A                      A                      A
 Frequencies --   3139.3114              3190.2421              3191.0112
 Red. masses --      1.0602                 1.1035                 1.0994
 Frc consts  --      6.1560                 6.6172                 6.5955
 IR Inten    --     21.1599                 0.4876                19.1668

                     37                     38                     39
                      A                      A                      A
 Frequencies --   3212.5954              3510.0950              3840.8207
 Red. masses --      1.1054                 1.1468                 1.0673
 Frc consts  --      6.7217                 8.3248                 9.2768
 IR Inten    --     16.6686                64.3869                23.5510

 - Thermochemistry -
 -------------------
 Temperature   298.150 Kelvin.  Pressure   1.00000 Atm.
 Atom     1 has atomic number  6 and mass  12.00000

 Molecular mass:   115.03952 amu.
 Principal axes and moments of inertia in atomic units:
                           1         2         3
     Eigenvalues --   490.606811376.837311508.33961
           X            0.99993   0.01144  -0.00034
           Y           -0.01137   0.99634   0.08472
           Z            0.00130  -0.08471   0.99640
 This molecule is an asymmetric top.
 Rotational symmetry number  1.
 Warning -- assumption of classical behavior for rotation
           may cause significant error
 Rotational temperatures (Kelvin)      0.17654     0.06291     0.05742
 Rotational constants (GHZ):           3.67859     1.31079     1.19651
    4 imaginary frequencies ignored.
 Zero-point vibrational energy     292834.7 (Joules/Mol)
                                   69.98918 (Kcal/Mol)
 Warning -- explicit consideration of  10 degrees of freedom as
           vibrations may cause significant error
 Vibrational temperatures:     21.43   159.36   253.04   266.68   348.67
          (Kelvin)            441.80   606.31   798.19   851.26   885.87
                             1017.07  1028.49  1082.83  1175.34  1288.65
                             1354.50  1591.90  1666.46  1767.26  1903.73
                             1968.42  2073.73  2098.62  2196.12  2211.15
                             2223.11  2752.99  3037.79  4472.58  4516.77
                             4590.05  4591.15  4622.21  5050.24  5526.08

 Zero-point correction=                           0.111535 (Hartree/Particle)
 Thermal correction to Energy=                    0.119465
 Thermal correction to Enthalpy=                  0.120409
 Thermal correction to Gibbs Free Energy=         0.076666
 Sum of electronic and zero-point Energies=           -419.841892
 Sum of electronic and thermal Energies=              -419.833962
 Sum of electronic and thermal Enthalpies=            -419.833018
 Sum of electronic and thermal Free Energies=         -419.876760

                     E (Thermal)             CV                S
                      KCal/Mol        Cal/Mol-Kelvin    Cal/Mol-Kelvin
 Total                   74.965             26.933             92.064
 Electronic               0.000              0.000              1.377
 Translational            0.889              2.981             40.136
 Rotational               0.889              2.981             28.412
 Vibrational             73.188             20.972             22.139
 Vibration     1          0.593              1.986              7.220
 Vibration     2          0.607              1.941              3.256
 Vibration     3          0.628              1.872              2.372
 Vibration     4          0.631              1.860              2.274
 Vibration     5          0.659              1.775              1.786
 Vibration     6          0.697              1.660              1.378
 Vibration     7          0.784              1.424              0.887
 Vibration     8          0.910              1.129              0.534
 Vibration     9          0.949              1.050              0.464
 Vibration    10          0.975              0.999              0.423

 Normal termination of Gaussian 16 at Fri Jun 20 14:04:57 2025.
