 Gaussian 16, Revision A.03,
 Gaussian 16:  ES64L-G16RevA.03 25-Dec-2016

 --------------------------
 # freq 6-311++g(d,p) m062x
 --------------------------

 -------------------
 Title Card Required
 -------------------
 Symbolic Z-matrix:
 Charge =  0 Multiplicity = 2

                         Standard orientation:
 ---------------------------------------------------------------------
 Center     Atomic      Atomic             Coordinates (Angstroms)
 Number     Number       Type             X           Y           Z
 ---------------------------------------------------------------------
      1          6           0       -2.799953   -0.498404   -0.430207
      2          1           0       -3.832301   -0.499762   -0.692511
      3          6           0       -1.631517   -0.488839   -0.152522
      4          6           0       -0.226718   -0.593508    0.239868
      5          8           0        0.119296   -0.866298    1.355598
      6          8           0        0.576446   -0.388305   -0.796955
      7          6           0        1.990971   -0.464192   -0.525933
      8          6           0        2.487607    0.819429    0.107862
      9          1           0        2.438146   -0.632270   -1.503998
     10          1           0        2.178070   -1.327351    0.114103
     11          1           0        3.569993    0.767359    0.241180
     12          1           0        2.254043    1.672098   -0.530954
     13          1           0        2.024747    0.969070    1.083424
     14          8           0       -1.388039    1.823177    0.071645
     15          1           0       -2.016675    1.855353    0.812045
 ---------------------------------------------------------------------

 SCF Done:  E(UM062X) =  -420.208198429     A.U. after   23 cycles

 The electronic state is 2-A.
 Alpha  occ. eigenvalues --  -19.68003 -19.67805 -19.62911 -10.70530 -10.60297
 Alpha  occ. eigenvalues --  -10.57668 -10.57384 -10.53335  -1.25492  -1.16183
 Alpha  occ. eigenvalues --   -1.13464  -0.90502  -0.87074  -0.77887  -0.70448
 Alpha  occ. eigenvalues --   -0.64280  -0.61540  -0.58308  -0.56898  -0.55027
 Alpha  occ. eigenvalues --   -0.53268  -0.50452  -0.48693  -0.46228  -0.44998
 Alpha  occ. eigenvalues --   -0.42604  -0.41699  -0.39406  -0.38262  -0.36417
 Alpha  occ. eigenvalues --   -0.36187
 Alpha virt. eigenvalues --   -0.01234  -0.00201   0.00519   0.01492   0.02516
 Alpha virt. eigenvalues --    0.02796   0.03716   0.04451   0.05613   0.06407
 Alpha virt. eigenvalues --    0.07141   0.07827   0.08493   0.10025   0.10895

  Beta  occ. eigenvalues --  -19.68008 -19.66223 -19.62922 -10.70520 -10.60297
  Beta  occ. eigenvalues --  -10.57635 -10.57324 -10.53335  -1.25499  -1.16208
  Beta  occ. eigenvalues --   -1.05802  -0.90282  -0.86868  -0.77798  -0.70363
  Beta  occ. eigenvalues --   -0.64247  -0.61338  -0.58282  -0.56416  -0.53255
  Beta  occ. eigenvalues --   -0.52239  -0.49058  -0.46451  -0.45024  -0.41701
  Beta  occ. eigenvalues --   -0.39414  -0.39182  -0.38325  -0.37967  -0.36125
  Beta virt. eigenvalues --   -0.08962  -0.00767  -0.00064   0.00556   0.01789
  Beta virt. eigenvalues --    0.02620   0.02824   0.03757   0.04561   0.05684
  Beta virt. eigenvalues --    0.06424   0.07229   0.07918   0.08530   0.10174

 Mulliken charges and spin densities:
               1          2
     1  C   -0.486467   0.132674
     2  H    0.199330  -0.006904
     3  C    0.935035  -0.039079
     4  C   -0.765341   0.002827
     5  O   -0.195761  -0.005048
     6  O    0.057356   0.000209
     7  C   -0.252963  -0.000555
     8  C   -0.415098   0.000336
     9  H    0.195461   0.000076
    10  H    0.190018  -0.000106
    11  H    0.167164   0.000093
    12  H    0.170235  -0.000118
    13  H    0.189305  -0.000341
    14  O   -0.222585   0.937254
    15  H    0.234311  -0.021320
 Sum of Mulliken charges =  -0.00000   1.00000

 Dipole moment (field-independent basis, Debye):
    X=             -0.6186    Y=              0.2764    Z=             -0.5744  Tot=              0.8883
 Quadrupole moment (field-independent basis, Debye-Ang):
   XX=            -30.5030   YY=            -48.4599   ZZ=            -51.3931
   XY=             -0.9353   XZ=             -2.0467   YZ=              5.0776

  Exact polarizability:  91.602   3.913  61.711   4.114   0.244  59.184
 Approx polarizability:  99.404   2.199  66.557   7.260  -2.599  76.587

 ******    1 imaginary frequencies (negative Signs) ******

                      1                      2                      3
                      A                      A                      A
 Frequencies --     -6.9638                39.0115               108.7570
 Red. masses --      4.9917                 4.2222                 4.9998
 Frc consts  --      0.0001                 0.0038                 0.0348
 IR Inten    --      7.8532                 1.0652                 1.5759

                      4                      5                      6
                      A                      A                      A
 Frequencies --    119.4770               158.4749               197.1513
 Red. masses --      3.5707                 2.5441                 3.2633
 Frc consts  --      0.0300                 0.0376                 0.0747
 IR Inten    --      8.7706                11.0876                13.0010

                      7                      8                      9
                      A                      A                      A
 Frequencies --    217.3071               229.8894               291.7331
 Red. masses --      1.5089                 1.3729                 3.7609
 Frc consts  --      0.0420                 0.0427                 0.1886
 IR Inten    --     26.5140                29.3179                 9.3157

                     10                     11                     12
                      A                      A                      A
 Frequencies --    339.1649               424.8506               510.3342
 Red. masses --      3.0349                 3.7959                 1.0857
 Frc consts  --      0.2057                 0.4037                 0.1666
 IR Inten    --     10.6118                 5.5732               107.7027

                     13                     14                     15
                      A                      A                      A
 Frequencies --    563.9481               608.1659               730.2993
 Red. masses --      3.9995                 7.1978                 1.3176
 Frc consts  --      0.7494                 1.5685                 0.4140
 IR Inten    --      5.2990                 7.0527                38.1305

                     16                     17                     18
                      A                      A                      A
 Frequencies --    758.5005               781.7969               802.5092
 Red. masses --      1.3235                 7.3300                 1.2227
 Frc consts  --      0.4486                 2.6396                 0.4639
 IR Inten    --     25.7161                46.8496                 5.6144

                     19                     20                     21
                      A                      A                      A
 Frequencies --    897.4067               928.6627              1077.7738
 Red. masses --      3.2018                 2.7972                 4.1163
 Frc consts  --      1.5192                 1.4213                 2.8171
 IR Inten    --     15.6659                 5.7500                21.7343

                     22                     23                     24
                      A                      A                      A
 Frequencies --   1129.7642              1204.4135              1293.6547
 Red. masses --      2.0894                 1.7702                 3.6045
 Frc consts  --      1.5712                 1.5130                 3.5541
 IR Inten    --     21.8716                 5.2196               547.5378

                     25                     26                     27
                      A                      A                      A
 Frequencies --   1348.9885              1402.4212              1432.4363
 Red. masses --      1.2561                 1.2836                 1.3874
 Frc consts  --      1.3467                 1.4874                 1.6773
 IR Inten    --    105.8509                30.3916                10.9842

                     28                     29                     30
                      A                      A                      A
 Frequencies --   1490.5896              1502.4117              1515.0487
 Red. masses --      1.0401                 1.0569                 1.0917
 Frc consts  --      1.3616                 1.4056                 1.4765
 IR Inten    --     10.8192                 0.9113                20.6164

                     31                     32                     33
                      A                      A                      A
 Frequencies --   1840.4788              2246.6905              3075.5909
 Red. masses --     11.9893                 5.8217                 1.0354
 Frc consts  --     23.9279                17.3134                 5.7703
 IR Inten    --    332.6870                59.3490                10.2784

                     34                     35                     36
                      A                      A                      A
 Frequencies --   3105.4676              3151.5584              3154.1985
 Red. masses --      1.0608                 1.1021                 1.1045
 Frc consts  --      6.0272                 6.4492                 6.4744
 IR Inten    --     19.8749                13.1621                 4.2539

                     37                     38                     39
                      A                      A                      A
 Frequencies --   3174.3703              3486.0882              3794.9877
 Red. masses --      1.1070                 1.1677                 1.0672
 Frc consts  --      6.5723                 8.3609                 9.0555
 IR Inten    --     15.0680                67.5423                33.5387

 - Thermochemistry -
 -------------------
 Temperature   298.150 Kelvin.  Pressure   1.00000 Atm.
 Atom     1 has atomic number  6 and mass  12.00000

 Molecular mass:   115.03952 amu.
 Principal axes and moments of inertia in atomic units:
                           1         2         3
     Eigenvalues --   534.639811383.083101553.02750
           X            0.99995   0.00997  -0.00148
           Y           -0.00986   0.99801   0.06223
           Z            0.00210  -0.06221   0.99806
 This molecule is an asymmetric top.
 Rotational symmetry number  1.
 Warning -- assumption of classical behavior for rotation
           may cause significant error
 Rotational temperatures (Kelvin)      0.16200     0.06262     0.05577
 Rotational constants (GHZ):           3.37562     1.30487     1.16208
    1 imaginary frequencies ignored.
 Zero-point vibrational energy     293888.8 (Joules/Mol)
                                   70.24111 (Kcal/Mol)
 Warning -- explicit consideration of  13 degrees of freedom as
           vibrations may cause significant error
 Vibrational temperatures:     56.13   156.48   171.90   228.01   283.66
          (Kelvin)            312.66   330.76   419.74   487.98   611.27
                              734.26   811.40   875.02  1050.74  1091.31
                             1124.83  1154.63  1291.17  1336.14  1550.68
                             1625.48  1732.88  1861.28  1940.89  2017.77
                             2060.96  2144.63  2161.64  2179.82  2648.04
                             3232.49  4425.09  4468.08  4534.39  4538.19
                             4567.21  5015.70  5460.14

 Zero-point correction=                           0.111936 (Hartree/Particle)
 Thermal correction to Energy=                    0.121502
 Thermal correction to Enthalpy=                  0.122447
 Thermal correction to Gibbs Free Energy=         0.076370
 Sum of electronic and zero-point Energies=           -420.096262
 Sum of electronic and thermal Energies=              -420.086696
 Sum of electronic and thermal Enthalpies=            -420.085752
 Sum of electronic and thermal Free Energies=         -420.131829

                     E (Thermal)             CV                S
                      KCal/Mol        Cal/Mol-Kelvin    Cal/Mol-Kelvin
 Total                   76.244             32.489             96.977
 Electronic               0.000              0.000              1.377
 Translational            0.889              2.981             40.136
 Rotational               0.889              2.981             28.531
 Vibrational             74.467             26.528             26.933
 Vibration     1          0.594              1.981              5.309
 Vibration     2          0.606              1.942              3.291
 Vibration     3          0.609              1.933              3.109
 Vibration     4          0.621              1.893              2.568
 Vibration     5          0.637              1.844              2.160
 Vibration     6          0.646              1.815              1.981
 Vibration     7          0.652              1.795              1.880
 Vibration     8          0.687              1.689              1.464
 Vibration     9          0.719              1.597              1.216
 Vibration    10          0.787              1.416              0.876
 Vibration    11          0.865              1.227              0.633
 Vibration    12          0.920              1.109              0.516
 Vibration    13          0.967              1.015              0.436

 1\1\GINC-AJ\Freq\UM062X\6-311++G(d,p)\C5H7O3(2)\AAYUSH\23-Jun-2025\0\\
 # freq 6-311++g(d,p) m062x\\Title Card Required\\0,2\C,-2.799953,-0.49
 8404,-0.430207\H,-3.832301,-0.499762,-0.692511\C,-1.631517,-0.488839,-
 0.152522\C,-0.226718,-0.593508,0.239868\O,0.119296,-0.866298,1.355598\
 O,0.576446,-0.388305,-0.796955\C,1.990971,-0.464192,-0.525933\C,2.4876
 07,0.819429,0.107862\H,2.438146,-0.63227,-1.503998\H,2.17807,-1.327351
 ,0.114103\H,3.569993,0.767359,0.24118\H,2.254043,1.672098,-0.530954\H,
 2.024747,0.96907,1.083424\O,-1.388039,1.823177,0.071645\H,-2.016675,1.

 Normal termination of Gaussian 16 at Mon Jun 23 05:48:13 2025.
