 Gaussian 16, Revision A.03,
 Gaussian 16:  ES64L-G16RevA.03 25-Dec-2016

 -------------------
 # freq 6-31+g m062x
 -------------------

 -------------------
 Title Card Required
 -------------------
 Symbolic Z-matrix:
 Charge =  0 Multiplicity = 2

                         Standard orientation:
 ---------------------------------------------------------------------
 Center     Atomic      Atomic             Coordinates (Angstroms)
 Number     Number       Type             X           Y           Z
 ---------------------------------------------------------------------
      1          6           0       -2.780784   -0.492539   -0.445206
      2          1           0       -3.806266   -0.573830   -0.723139
      3          6           0       -1.620326   -0.274459   -0.138381
      4          6           0       -0.220972   -0.562548    0.227713
      5          8           0        0.108879   -0.920120    1.322008
      6          8           0        0.581007   -0.359580   -0.807690
      7          6           0        1.995771   -0.446062   -0.536773
      8          6           0        2.483687    0.820364    0.138089
      9          1           0        2.444972   -0.581836   -1.518727
     10          1           0        2.182854   -1.328756    0.075655
     11          1           0        3.565559    0.769346    0.275418
     12          1           0        2.247794    1.690819   -0.475174
     13          1           0        2.015575    0.938677    1.115670
     14          8           0       -1.409865    1.658905    0.103637
     15          1           0       -2.034915    1.783413    0.834000
 ---------------------------------------------------------------------

 SCF Done:  E(UM062X) =  -419.953199356     A.U. after   22 cycles

 The electronic state is 2-A.
 Alpha  occ. eigenvalues --  -19.70496 -19.67968 -19.66300 -10.73073 -10.61878
 Alpha  occ. eigenvalues --  -10.61367 -10.60551 -10.54161  -1.28102  -1.18755
 Alpha  occ. eigenvalues --   -1.12742  -0.92043  -0.88253  -0.78644  -0.71374
 Alpha  occ. eigenvalues --   -0.64699  -0.62769  -0.58881  -0.57387  -0.53726
 Alpha  occ. eigenvalues --   -0.53324  -0.50132  -0.48354  -0.46290  -0.45082
 Alpha  occ. eigenvalues --   -0.41772  -0.40738  -0.39752  -0.38112  -0.36987
 Alpha  occ. eigenvalues --   -0.33607
 Alpha virt. eigenvalues --   -0.00721   0.01805   0.02421   0.03285   0.03724
 Alpha virt. eigenvalues --    0.04333   0.05561   0.05861   0.07685   0.07870
 Alpha virt. eigenvalues --    0.08857   0.08918   0.09958   0.11725   0.12172

  Beta  occ. eigenvalues --  -19.70498 -19.66618 -19.66323 -10.73033 -10.61978
  Beta  occ. eigenvalues --  -10.61366 -10.60227 -10.54162  -1.28102  -1.18786
  Beta  occ. eigenvalues --   -1.07782  -0.91326  -0.87806  -0.78389  -0.71066
  Beta  occ. eigenvalues --   -0.64558  -0.62132  -0.58705  -0.57114  -0.53686
  Beta  occ. eigenvalues --   -0.51142  -0.49145  -0.46711  -0.45196  -0.41726
  Beta  occ. eigenvalues --   -0.40100  -0.39502  -0.38244  -0.37938  -0.35832
  Beta virt. eigenvalues --   -0.10144   0.00540   0.01834   0.02436   0.03254
  Beta virt. eigenvalues --    0.03790   0.04488   0.05584   0.05864   0.07699
  Beta virt. eigenvalues --    0.07851   0.08870   0.08938   0.10106   0.11711

 Mulliken charges and spin densities:
               1          2
     1  C    0.348062   0.516558
     2  H    0.312944  -0.019105
     3  C   -0.404200  -0.225227
     4  C    0.001708   0.055245
     5  O   -0.343819  -0.010815
     6  O   -0.165022  -0.000443
     7  C   -0.262313  -0.000581
     8  C   -0.553095   0.001055
     9  H    0.221027  -0.000011
    10  H    0.234321  -0.000147
    11  H    0.204624  -0.000069
    12  H    0.229592  -0.000034
    13  H    0.235553   0.000007
    14  O   -0.465912   0.708424
    15  H    0.406530  -0.024856
 Sum of Mulliken charges =  -0.00000   1.00000

 Dipole moment (field-independent basis, Debye):
    X=             -0.8335    Y=             -0.4014    Z=             -0.5325  Tot=              1.0674
 Quadrupole moment (field-independent basis, Debye-Ang):
   XX=            -29.1870   YY=            -49.8117   ZZ=            -52.2200
   XY=              0.4499   XZ=             -1.9218   YZ=              5.6231

  Exact polarizability:  86.657   7.921  70.536   4.159   2.643  57.223
 Approx polarizability:  91.080  10.208  71.653   7.624  -0.874  71.654

 ******    5 imaginary frequencies (negative Signs) ******

                      1                      2                      3
                      A                      A                      A
 Frequencies --   -609.6452              -456.1388               -93.2765
 Red. masses --     12.3581                 1.0818                 7.0770
 Frc consts  --      2.7062                 0.1326                 0.0363
 IR Inten    --     49.2051               113.9531                 8.2956

                      4                      5                      6
                      A                      A                      A
 Frequencies --    -37.0460                -7.5577               104.5997
 Red. masses --      3.9703                 2.5332                 3.0698
 Frc consts  --      0.0032                 0.0001                 0.0198
 IR Inten    --      4.9391                 0.8191                 6.7535

                      7                      8                      9
                      A                      A                      A
 Frequencies --    168.3810               179.4287               230.6076
 Red. masses --      3.4610                 1.6336                 4.3170
 Frc consts  --      0.0578                 0.0310                 0.1353
 IR Inten    --      1.4257                 0.5770                 1.1571

                     10                     11                     12
                      A                      A                      A
 Frequencies --    306.6594               419.5438               549.7525
 Red. masses --      2.9045                 3.5910                 2.5984
 Frc consts  --      0.1609                 0.3724                 0.4627
 IR Inten    --     13.7726                 7.5613                25.1979

                     13                     14                     15
                      A                      A                      A
 Frequencies --    605.6540               636.8114               668.4780
 Red. masses --      3.3767                 1.5354                 1.3654
 Frc consts  --      0.7298                 0.3669                 0.3595
 IR Inten    --     38.7650                19.4776                49.1955

                     16                     17                     18
                      A                      A                      A
 Frequencies --    715.5116               750.8073               817.1919
 Red. masses --      6.8196                 1.4111                 1.2916
 Frc consts  --      2.0570                 0.4687                 0.5082
 IR Inten    --     75.7275                50.3328                 8.0019

                     19                     20                     21
                      A                      A                      A
 Frequencies --    896.4051               942.3966              1107.2214
 Red. masses --      3.3052                 2.5051                 4.1996
 Frc consts  --      1.5648                 1.3108                 3.0334
 IR Inten    --     22.2366                 5.8425                12.4426

                     22                     23                     24
                      A                      A                      A
 Frequencies --   1158.4146              1228.4319              1323.9710
 Red. masses --      2.0668                 1.7482                 2.0238
 Frc consts  --      1.6341                 1.5543                 2.0901
 IR Inten    --     17.7705                 6.2164               313.7368

                     25                     26                     27
                      A                      A                      A
 Frequencies --   1368.5740              1441.5346              1458.4136
 Red. masses --      1.7296                 1.3816                 1.2531
 Frc consts  --      1.9087                 1.6915                 1.5704
 IR Inten    --    257.6391                31.3550                20.0253

                     28                     29                     30
                      A                      A                      A
 Frequencies --   1526.3572              1536.8379              1545.0701
 Red. masses --      1.0412                 1.0543                 1.0900
 Frc consts  --      1.4292                 1.4672                 1.5331
 IR Inten    --     15.2249                 2.6589                27.4870

                     31                     32                     33
                      A                      A                      A
 Frequencies --   1913.2848              2150.3197              3108.4746
 Red. masses --     12.1603                 6.2868                 1.0351
 Frc consts  --     26.2272                17.1272                 5.8926
 IR Inten    --    323.5191                90.7604                11.6805

                     34                     35                     36
                      A                      A                      A
 Frequencies --   3139.1119              3189.9889              3190.8798
 Red. masses --      1.0602                 1.1033                 1.0996
 Frc consts  --      6.1551                 6.6151                 6.5961
 IR Inten    --     21.2248                 1.1170                18.6813

                     37                     38                     39
                      A                      A                      A
 Frequencies --   3212.3699              3513.8784              3836.3200
 Red. masses --      1.1054                 1.1517                 1.0673
 Frc consts  --      6.7207                 8.3781                 9.2549
 IR Inten    --     16.7977                63.3122                20.9527

 - Thermochemistry -
 -------------------
 Temperature   298.150 Kelvin.  Pressure   1.00000 Atm.
 Atom     1 has atomic number  6 and mass  12.00000

 Molecular mass:   115.03952 amu.
 Principal axes and moments of inertia in atomic units:
                           1         2         3
     Eigenvalues --   493.613051377.293701511.40846
           X            0.99994   0.01134  -0.00043
           Y           -0.01127   0.99650   0.08281
           Z            0.00136  -0.08280   0.99657
 This molecule is an asymmetric top.
 Rotational symmetry number  1.
 Warning -- assumption of classical behavior for rotation
           may cause significant error
 Rotational temperatures (Kelvin)      0.17547     0.06289     0.05731
 Rotational constants (GHZ):           3.65619     1.31035     1.19408
    5 imaginary frequencies ignored.
 Zero-point vibrational energy     292736.3 (Joules/Mol)
                                   69.96565 (Kcal/Mol)
 Warning -- explicit consideration of   8 degrees of freedom as
           vibrations may cause significant error
 Vibrational temperatures:    150.50   242.26   258.16   331.79   441.21
          (Kelvin)            603.63   790.97   871.40   916.23   961.79
                             1029.46  1080.24  1175.76  1289.73  1355.90
                             1593.04  1666.70  1767.44  1904.90  1969.07
                             2074.05  2098.33  2196.09  2211.17  2223.01
                             2752.79  3093.83  4472.40  4516.48  4589.68
                             4590.96  4621.88  5055.69  5519.61

 Zero-point correction=                           0.111497 (Hartree/Particle)
 Thermal correction to Energy=                    0.118570
 Thermal correction to Enthalpy=                  0.119514
 Thermal correction to Gibbs Free Energy=         0.079031
 Sum of electronic and zero-point Energies=           -419.841702
 Sum of electronic and thermal Energies=              -419.834629
 Sum of electronic and thermal Enthalpies=            -419.833685
 Sum of electronic and thermal Free Energies=         -419.874168

                     E (Thermal)             CV                S
                      KCal/Mol        Cal/Mol-Kelvin    Cal/Mol-Kelvin
 Total                   74.404             25.001             85.204
 Electronic               0.000              0.000              1.377
 Translational            0.889              2.981             40.136
 Rotational               0.889              2.981             28.421
 Vibrational             72.626             19.040             15.270
 Vibration     1          0.605              1.946              3.367
 Vibration     2          0.625              1.881              2.453
 Vibration     3          0.629              1.868              2.334
 Vibration     4          0.652              1.794              1.874
 Vibration     5          0.697              1.661              1.380
 Vibration     6          0.782              1.428              0.894
 Vibration     7          0.905              1.140              0.545
 Vibration     8          0.964              1.020              0.440

 Normal termination of Gaussian 16 at Fri Jun 20 13:58:32 2025.
