 Gaussian 16, Revision A.03,
 Gaussian 16:  ES64L-G16RevA.03 25-Dec-2016

 --------------------------
 # freq 6-311++g(d,p) m062x
 --------------------------

 -------------------
 Title Card Required
 -------------------
 Symbolic Z-matrix:
 Charge =  0 Multiplicity = 2

                         Standard orientation:
 ---------------------------------------------------------------------
 Center     Atomic      Atomic             Coordinates (Angstroms)
 Number     Number       Type             X           Y           Z
 ---------------------------------------------------------------------
      1          6           0       -2.786970   -0.491163   -0.439503
      2          1           0       -3.814628   -0.554469   -0.712476
      3          6           0       -1.623881   -0.357493   -0.145235
      4          6           0       -0.222685   -0.567383    0.232623
      5          8           0        0.111952   -0.902441    1.333567
      6          8           0        0.580591   -0.367802   -0.803891
      7          6           0        1.994624   -0.452800   -0.532772
      8          6           0        2.485014    0.820050    0.127821
      9          1           0        2.443555   -0.600081   -1.513267
     10          1           0        2.181117   -1.328756    0.089557
     11          1           0        3.566960    0.769818    0.264814
     12          1           0        2.249864    1.684022   -0.494966
     13          1           0        2.017848    0.949120    1.104472
     14          8           0       -1.403368    1.715183    0.092907
     15          1           0       -2.034720    1.813549    0.823594
 ---------------------------------------------------------------------

 SCF Done:  E(UM062X) =  -420.203473701     A.U. after   24 cycles

 The electronic state is 2-A.
 Alpha  occ. eigenvalues --  -19.68042 -19.66569 -19.62951 -10.70563 -10.60326
 Alpha  occ. eigenvalues --  -10.58591 -10.58047 -10.53367  -1.25578  -1.16278
 Alpha  occ. eigenvalues --   -1.12557  -0.90843  -0.87324  -0.78035  -0.70580
 Alpha  occ. eigenvalues --   -0.64387  -0.61908  -0.58480  -0.57160  -0.54160
 Alpha  occ. eigenvalues --   -0.53233  -0.50370  -0.48516  -0.46110  -0.45054
 Alpha  occ. eigenvalues --   -0.41715  -0.41637  -0.39567  -0.38277  -0.36541
 Alpha  occ. eigenvalues --   -0.34918
 Alpha virt. eigenvalues --   -0.00775  -0.00209   0.00508   0.01472   0.02530
 Alpha virt. eigenvalues --    0.02788   0.03574   0.04365   0.05650   0.06192
 Alpha virt. eigenvalues --    0.07137   0.07635   0.08456   0.09825   0.10705

  Beta  occ. eigenvalues --  -19.68046 -19.65084 -19.62969 -10.70542 -10.60326
  Beta  occ. eigenvalues --  -10.58616 -10.57868 -10.53367  -1.25583  -1.16316
  Beta  occ. eigenvalues --   -1.06033  -0.90378  -0.86947  -0.77847  -0.70384
  Beta  occ. eigenvalues --   -0.64306  -0.61506  -0.58425  -0.56689  -0.53206
  Beta  occ. eigenvalues --   -0.51706  -0.49003  -0.46553  -0.45108  -0.41706
  Beta  occ. eigenvalues --   -0.39462  -0.39095  -0.38397  -0.38038  -0.35972
  Beta virt. eigenvalues --   -0.09447  -0.00224   0.00281   0.00592   0.01765
  Beta virt. eigenvalues --    0.02644   0.02823   0.03590   0.04443   0.05721
  Beta virt. eigenvalues --    0.06182   0.07234   0.07596   0.08495   0.09909

 Mulliken charges and spin densities:
               1          2
     1  C   -1.010673   0.285237
     2  H    0.189978  -0.013111
     3  C    1.130427  -0.127625
     4  C   -0.397747   0.043514
     5  O   -0.199857  -0.008645
     6  O    0.058861   0.000523
     7  C   -0.274791  -0.000726
     8  C   -0.415747   0.002553
     9  H    0.194878   0.000122
    10  H    0.188560  -0.000010
    11  H    0.169800   0.000077
    12  H    0.171745  -0.000334
    13  H    0.189031  -0.001120
    14  O   -0.228729   0.838882
    15  H    0.234263  -0.019338
 Sum of Mulliken charges =  -0.00000   1.00000

 Dipole moment (field-independent basis, Debye):
    X=             -0.6572    Y=              0.0113    Z=             -0.6784  Tot=              0.9446
 Quadrupole moment (field-independent basis, Debye-Ang):
   XX=            -30.0991   YY=            -48.8285   ZZ=            -51.1933
   XY=             -0.0656   XZ=             -1.7654   YZ=              5.1033

  Exact polarizability:  91.398   6.701  70.446   4.572   2.381  59.514
 Approx polarizability:  98.713   6.767  74.407   7.530  -0.855  76.792

 ******    2 imaginary frequencies (negative Signs) ******

                      1                      2                      3
                      A                      A                      A
 Frequencies --   -299.6234               -14.9261                47.2872
 Red. masses --     11.8952                 4.8348                 3.9370
 Frc consts  --      0.6292                 0.0006                 0.0052
 IR Inten    --     35.3406                 7.0089                 1.4806

                      4                      5                      6
                      A                      A                      A
 Frequencies --    115.7259               140.0472               161.0905
 Red. masses --      3.6963                 5.2085                 2.5703
 Frc consts  --      0.0292                 0.0602                 0.0393
 IR Inten    --      1.6163                12.6686                 9.4247

                      7                      8                      9
                      A                      A                      A
 Frequencies --    210.9105               226.9821               257.5749
 Red. masses --      1.5947                 1.4328                 1.8845
 Frc consts  --      0.0418                 0.0435                 0.0737
 IR Inten    --     34.7794                 2.8173                32.6277

                     10                     11                     12
                      A                      A                      A
 Frequencies --    336.0194               428.1107               559.5861
 Red. masses --      2.9083                 3.7502                 3.7136
 Frc consts  --      0.1935                 0.4050                 0.6851
 IR Inten    --      9.7549                 3.5771                 7.5960

                     13                     14                     15
                      A                      A                      A
 Frequencies --    607.5366               668.3253               714.7720
 Red. masses --      6.4886                 1.1246                 1.3301
 Frc consts  --      1.4111                 0.2960                 0.4004
 IR Inten    --     12.6400                77.5248                31.0871

                     16                     17                     18
                      A                      A                      A
 Frequencies --    739.3245               772.6713               803.0685
 Red. masses --      1.3239                 7.8987                 1.2055
 Frc consts  --      0.4264                 2.7784                 0.4581
 IR Inten    --     23.0394                60.4282                 5.1514

                     19                     20                     21
                      A                      A                      A
 Frequencies --    897.4665               928.9097              1075.4442
 Red. masses --      3.2365                 2.7502                 4.1316
 Frc consts  --      1.5359                 1.3982                 2.8154
 IR Inten    --     15.9187                 6.1001                23.6829

                     22                     23                     24
                      A                      A                      A
 Frequencies --   1129.6869              1204.4433              1290.6410
 Red. masses --      2.0914                 1.7714                 3.6520
 Frc consts  --      1.5726                 1.5140                 3.5842
 IR Inten    --     22.5773                 5.8347               535.3848

                     25                     26                     27
                      A                      A                      A
 Frequencies --   1346.1870              1402.0688              1431.2509
 Red. masses --      1.2552                 1.2851                 1.3826
 Frc consts  --      1.3402                 1.4885                 1.6687
 IR Inten    --    100.6175                27.4005                13.1928

                     28                     29                     30
                      A                      A                      A
 Frequencies --   1491.2118              1502.4413              1515.0769
 Red. masses --      1.0400                 1.0548                 1.0934
 Frc consts  --      1.3626                 1.4028                 1.4787
 IR Inten    --     10.8983                 1.1499                21.3975

                     31                     32                     33
                      A                      A                      A
 Frequencies --   1844.9165              2193.2030              3075.8813
 Red. masses --     11.9945                 6.0460                 1.0353
 Frc consts  --     24.0539                17.1347                 5.7709
 IR Inten    --    342.7051                80.1745                 9.3883

                     34                     35                     36
                      A                      A                      A
 Frequencies --   3107.6791              3152.7024              3154.3181
 Red. masses --      1.0607                 1.1019                 1.1045
 Frc consts  --      6.0357                 6.4530                 6.4746
 IR Inten    --     19.8271                13.3810                 3.7300

                     37                     38                     39
                      A                      A                      A
 Frequencies --   3175.2714              3482.7968              3808.4578
 Red. masses --      1.1074                 1.1595                 1.0674
 Frc consts  --      6.5782                 8.2864                 9.1215
 IR Inten    --     14.7908                68.9177                43.2717

 - Thermochemistry -
 -------------------
 Temperature   298.150 Kelvin.  Pressure   1.00000 Atm.
 Atom     1 has atomic number  6 and mass  12.00000

 Molecular mass:   115.03952 amu.
 Principal axes and moments of inertia in atomic units:
                           1         2         3
     Eigenvalues --   506.743551379.452961525.02996
           X            0.99994   0.01087  -0.00079
           Y           -0.01078   0.99712   0.07513
           Z            0.00161  -0.07511   0.99717
 This molecule is an asymmetric top.
 Rotational symmetry number  1.
 Warning -- assumption of classical behavior for rotation
           may cause significant error
 Rotational temperatures (Kelvin)      0.17092     0.06279     0.05679
 Rotational constants (GHZ):           3.56145     1.30830     1.18341
    2 imaginary frequencies ignored.
 Zero-point vibrational energy     293079.6 (Joules/Mol)
                                   70.04771 (Kcal/Mol)
 Warning -- explicit consideration of  11 degrees of freedom as
           vibrations may cause significant error
 Vibrational temperatures:     68.04   166.50   201.50   231.77   303.45
          (Kelvin)            326.58   370.59   483.46   615.96   805.12
                              874.11   961.57  1028.40  1063.72  1111.70
                             1155.44  1291.25  1336.49  1547.32  1625.37
                             1732.93  1856.94  1936.86  2017.26  2059.25
                             2145.52  2161.68  2179.86  2654.42  3155.53
                             4425.51  4471.26  4536.04  4538.36  4568.51
                             5010.97  5479.52

 Zero-point correction=                           0.111628 (Hartree/Particle)
 Thermal correction to Energy=                    0.120545
 Thermal correction to Enthalpy=                  0.121489
 Thermal correction to Gibbs Free Energy=         0.076841
 Sum of electronic and zero-point Energies=           -420.091846
 Sum of electronic and thermal Energies=              -420.082929
 Sum of electronic and thermal Enthalpies=            -420.081985
 Sum of electronic and thermal Free Energies=         -420.126632

                     E (Thermal)             CV                S
                      KCal/Mol        Cal/Mol-Kelvin    Cal/Mol-Kelvin
 Total                   75.643             30.446             93.969
 Electronic               0.000              0.000              1.377
 Translational            0.889              2.981             40.136
 Rotational               0.889              2.981             28.457
 Vibrational             73.866             24.485             23.999
 Vibration     1          0.595              1.979              4.928
 Vibration     2          0.608              1.936              3.171
 Vibration     3          0.615              1.913              2.803
 Vibration     4          0.622              1.890              2.537
 Vibration     5          0.643              1.824              2.036
 Vibration     6          0.651              1.800              1.903
 Vibration     7          0.667              1.750              1.678
 Vibration     8          0.717              1.604              1.231
 Vibration     9          0.790              1.409              0.865
 Vibration    10          0.915              1.119              0.525
 Vibration    11          0.966              1.016              0.437

 1\1\GINC-AJ\Freq\UM062X\6-311++G(d,p)\C5H7O3(2)\AAYUSH\23-Jun-2025\0\\
 # freq 6-311++g(d,p) m062x\\Title Card Required\\0,2\C,-2.78697,-0.491
 163,-0.439503\H,-3.814628,-0.554469,-0.712476\C,-1.623881,-0.357493,-0
 .145235\C,-0.222685,-0.567383,0.232623\O,0.111952,-0.902441,1.333567\O
 ,0.580591,-0.367802,-0.803891\C,1.994624,-0.4528,-0.532772\C,2.485014,
 0.82005,0.127821\H,2.443555,-0.600081,-1.513267\H,2.181117,-1.328756,0
 .089557\H,3.56696,0.769818,0.264814\H,2.249864,1.684022,-0.494966\H,2.
 017848,0.94912,1.104472\O,-1.403368,1.715183,0.092907\H,-2.03472,1.813

 Normal termination of Gaussian 16 at Mon Jun 23 05:23:44 2025.
