 Gaussian 16, Revision A.03,
 Gaussian 16:  ES64L-G16RevA.03 25-Dec-2016

 --------------------------
 # ccsd(t)/6-311++g(d,p) sp
 --------------------------

 -------------------
 Title Card Required
 -------------------
 Symbolic Z-matrix:
 Charge =  0 Multiplicity = 2

                         Standard orientation:
 ---------------------------------------------------------------------
 Center     Atomic      Atomic             Coordinates (Angstroms)
 Number     Number       Type             X           Y           Z
 ---------------------------------------------------------------------
      1          6           0       -2.778498   -0.494791   -0.448350
      2          1           0       -3.803508   -0.577996   -0.728170
      3          6           0       -1.618417   -0.231785   -0.134092
      4          6           0       -0.220473   -0.562235    0.224807
      5          8           0        0.107861   -0.928697    1.316238
      6          8           0        0.581111   -0.355395   -0.809624
      7          6           0        1.996226   -0.442560   -0.538943
      8          6           0        2.483173    0.820392    0.143165
      9          1           0        2.445562   -0.572544   -1.521586
     10          1           0        2.183549   -1.328634    0.068466
     11          1           0        3.565019    0.768826    0.280529
     12          1           0        2.246968    1.694179   -0.465150
     13          1           0        2.014696    0.933235    1.121215
     14          8           0       -1.412699    1.631881    0.109130
     15          1           0       -2.034540    1.766497    0.839224
 ---------------------------------------------------------------------

 SCF Done:  E(UHF) =  -417.976774196     A.U. after   30 cycles
 E2 =    -0.1257029272D+01 EUMP2 =    -0.41923380346736D+03
 CCSD(T)= -0.41935548060D+03

 The electronic state is 2-A.
 Alpha  occ. eigenvalues --  -20.61572 -20.60977 -20.55531 -11.41253 -11.29435
 Alpha  occ. eigenvalues --  -11.27692 -11.27376 -11.22177  -1.48059  -1.37743
 Alpha  occ. eigenvalues --   -1.37323  -1.08178  -1.04287  -0.92584  -0.83683
 Alpha  occ. eigenvalues --   -0.76433  -0.73184  -0.69258  -0.68860  -0.65282
 Alpha  occ. eigenvalues --   -0.63617  -0.62614  -0.57618  -0.55402  -0.53802
 Alpha  occ. eigenvalues --   -0.52688  -0.50162  -0.47802  -0.45739  -0.43444
 Alpha  occ. eigenvalues --   -0.42227
 Alpha virt. eigenvalues --    0.03702   0.04623   0.05677   0.06830   0.07016
 Alpha virt. eigenvalues --    0.08737   0.09689   0.10622   0.11230   0.11857
 Alpha virt. eigenvalues --    0.13340   0.13923   0.14675   0.15725   0.16794

  Beta  occ. eigenvalues --  -20.60980 -20.58150 -20.55916 -11.40878 -11.29666
  Beta  occ. eigenvalues --  -11.29436 -11.24993 -11.22179  -1.48202  -1.38327
  Beta  occ. eigenvalues --   -1.25740  -1.07642  -1.03329  -0.91375  -0.82793
  Beta  occ. eigenvalues --   -0.76157  -0.71911  -0.69534  -0.67722  -0.63234
  Beta  occ. eigenvalues --   -0.62762  -0.57961  -0.55671  -0.53917  -0.50227
  Beta  occ. eigenvalues --   -0.49906  -0.48552  -0.46969  -0.45260  -0.42314
  Beta virt. eigenvalues --    0.03788   0.04372   0.04665   0.06575   0.07014
  Beta virt. eigenvalues --    0.07783   0.08870   0.09730   0.10682   0.11961
  Beta virt. eigenvalues --    0.12289   0.13565   0.14474   0.15678   0.16008

 Mulliken charges and spin densities:
               1          2
     1  C   -0.413019   1.324586
     2  H    0.222361  -0.095184
     3  C    0.639164  -1.104738
     4  C   -0.441109   0.184162
     5  O   -0.283504  -0.078464
     6  O   -0.036275   0.003228
     7  C   -0.166978   0.001175
     8  C   -0.386596   0.001395
     9  H    0.165149   0.000076
    10  H    0.172491   0.000328
    11  H    0.137397  -0.000320
    12  H    0.151214  -0.000649
    13  H    0.177531  -0.000264
    14  O   -0.186923   0.794112
    15  H    0.249098  -0.029443
 Sum of Mulliken charges =  -0.00000   1.00000

 Dipole moment (field-independent basis, Debye):
    X=             -0.8334    Y=              0.2396    Z=             -0.7815  Tot=              1.1673
 Quadrupole moment (field-independent basis, Debye-Ang):
   XX=            -30.3278   YY=            -48.6483   ZZ=            -51.5177
   XY=             -0.4419   XZ=             -1.9215   YZ=              5.4730

 P3-0=-419.2824492\MP4SDQ=-419.2923888\CCSD=-419.3005155\CCSD(T)=-419.3
 Normal termination of Gaussian 16 at Tue Aug  5 06:29:57 2025.
