 Gaussian 16, Revision A.03,
 Gaussian 16:  ES64L-G16RevA.03 25-Dec-2016

 --------------------------
 # ccsd(t)/6-311++g(d,p) sp
 --------------------------

 -------------------
 Title Card Required
 -------------------
 Symbolic Z-matrix:
 Charge =  0 Multiplicity = 2

                         Standard orientation:
 ---------------------------------------------------------------------
 Center     Atomic      Atomic             Coordinates (Angstroms)
 Number     Number       Type             X           Y           Z
 ---------------------------------------------------------------------
      1          6           0       -2.782149   -0.491969   -0.443720
      2          1           0       -3.808067   -0.569925   -0.720530
      3          6           0       -1.621206   -0.295473   -0.140277
      4          6           0       -0.221357   -0.563325    0.229028
      5          8           0        0.109554   -0.915759    1.324907
      6          8           0        0.580944   -0.361641   -0.806731
      7          6           0        1.995512   -0.447771   -0.535737
      8          6           0        2.483982    0.820327    0.135532
      9          1           0        2.444662   -0.586430   -1.517330
     10          1           0        2.182467   -1.328772    0.079191
     11          1           0        3.565870    0.769561    0.272813
     12          1           0        2.248260    1.689138   -0.480162
     13          1           0        2.016081    0.941343    1.112881
     14          8           0       -1.408364    1.672773    0.100932
     15          1           0       -2.035040    1.791374    0.831319
 ---------------------------------------------------------------------

 SCF Done:  E(UHF) =  -417.979187428     A.U. after   36 cycles
 E2 =    -0.1256646118D+01 EUMP2 =    -0.41923583354556D+03
 CCSD(T)= -0.41935356936D+03

 The electronic state is 2-A.
 Alpha  occ. eigenvalues --  -20.62257 -20.60948 -20.55484 -11.41307 -11.29421
 Alpha  occ. eigenvalues --  -11.27118 -11.26458 -11.22188  -1.48011  -1.38081
 Alpha  occ. eigenvalues --   -1.37635  -1.07944  -1.04205  -0.92544  -0.83612
 Alpha  occ. eigenvalues --   -0.76334  -0.73101  -0.69256  -0.68853  -0.65840
 Alpha  occ. eigenvalues --   -0.64339  -0.62700  -0.57699  -0.55740  -0.53812
 Alpha  occ. eigenvalues --   -0.53033  -0.50168  -0.47690  -0.45721  -0.43160
 Alpha  occ. eigenvalues --   -0.42245
 Alpha virt. eigenvalues --    0.03709   0.04615   0.05644   0.06823   0.07012
 Alpha virt. eigenvalues --    0.08742   0.09643   0.10494   0.11139   0.11695
 Alpha virt. eigenvalues --    0.13362   0.13911   0.14722   0.15666   0.16802

  Beta  occ. eigenvalues --  -20.60954 -20.58499 -20.55880 -11.40955 -11.29422
  Beta  occ. eigenvalues --  -11.28347 -11.24920 -11.22190  -1.48165  -1.38289
  Beta  occ. eigenvalues --   -1.24755  -1.07752  -1.03413  -0.91551  -0.82994
  Beta  occ. eigenvalues --   -0.76127  -0.72019  -0.69513  -0.67458  -0.63225
  Beta  occ. eigenvalues --   -0.62823  -0.58065  -0.55552  -0.53905  -0.50245
  Beta  occ. eigenvalues --   -0.50086  -0.48452  -0.46928  -0.44263  -0.42306
  Beta virt. eigenvalues --    0.03781   0.04472   0.04731   0.06631   0.07011
  Beta virt. eigenvalues --    0.08025   0.08890   0.09736   0.10746   0.11897
  Beta virt. eigenvalues --    0.12035   0.13562   0.14445   0.15487   0.15928

 Mulliken charges and spin densities:
               1          2
     1  C   -0.818212   1.092902
     2  H    0.212933  -0.080420
     3  C    1.004297  -0.975654
     4  C   -0.416977   0.189520
     5  O   -0.280574  -0.081250
     6  O   -0.031740   0.002555
     7  C   -0.161753   0.001391
     8  C   -0.387397   0.001588
     9  H    0.165629   0.000061
    10  H    0.172407   0.000293
    11  H    0.138381  -0.000233
    12  H    0.150223  -0.000620
    13  H    0.178129  -0.000295
    14  O   -0.169719   0.883429
    15  H    0.244371  -0.033266
 Sum of Mulliken charges =  -0.00000   1.00000

 Dipole moment (field-independent basis, Debye):
    X=             -0.7915    Y=              0.4677    Z=             -0.7253  Tot=              1.1710
 Quadrupole moment (field-independent basis, Debye-Ang):
   XX=            -30.4229   YY=            -48.2310   ZZ=            -51.6271
   XY=             -0.8749   XZ=             -2.0235   YZ=              5.4949

 Normal termination of Gaussian 16 at Thu Aug 28 10:27:33 2025.
