 Gaussian 16, Revision A.03,
 Gaussian 16:  ES64L-G16RevA.03 25-Dec-2016

 --------------------------
 # ccsd(t)/6-311++g(d,p) sp
 --------------------------

 -------------------
 Title Card Required
 -------------------
 Symbolic Z-matrix:
 Charge =  0 Multiplicity = 2

                         Standard orientation:
 ---------------------------------------------------------------------
 Center     Atomic      Atomic             Coordinates (Angstroms)
 Number     Number       Type             X           Y           Z
 ---------------------------------------------------------------------
      1          6           0       -2.785103   -0.491095   -0.440850
      2          1           0       -3.812034   -0.560834   -0.715310
      3          6           0       -1.622996   -0.337178   -0.143729
      4          6           0       -0.222210   -0.565419    0.231522
      5          8           0        0.111022   -0.907014    1.330630
      6          8           0        0.580768   -0.365723   -0.804841
      7          6           0        1.994954   -0.451150   -0.533722
      8          6           0        2.484621    0.820172    0.130438
      9          1           0        2.444009   -0.595549   -1.514566
     10          1           0        2.181622   -1.328773    0.086166
     11          1           0        3.566538    0.769839    0.267621
     12          1           0        2.249283    1.685747   -0.490019
     13          1           0        2.017149    0.946549    1.107309
     14          8           0       -1.405172    1.700769    0.095559
     15          1           0       -2.035110    1.806779    0.826058
 ---------------------------------------------------------------------

 SCF Done:  E(UHF) =  -417.981872252     A.U. after   39 cycles
 E2 =    -0.1257616981D+01 EUMP2 =    -0.41923948923299D+03
 CCSD(T)= -0.41935380766D+03

 The electronic state is 2-A.
 Alpha  occ. eigenvalues --  -20.62578 -20.60951 -20.55493 -11.41342 -11.29418
 Alpha  occ. eigenvalues --  -11.26901 -11.26084 -11.22190  -1.47997  -1.38363
 Alpha  occ. eigenvalues --   -1.37640  -1.07847  -1.04152  -0.92526  -0.83604
 Alpha  occ. eigenvalues --   -0.76293  -0.73063  -0.69256  -0.68827  -0.66212
 Alpha  occ. eigenvalues --   -0.64565  -0.62757  -0.57765  -0.55914  -0.53822
 Alpha  occ. eigenvalues --   -0.53187  -0.50177  -0.47672  -0.45763  -0.43019
 Alpha  occ. eigenvalues --   -0.42228
 Alpha virt. eigenvalues --    0.03707   0.04610   0.05632   0.06821   0.07008
 Alpha virt. eigenvalues --    0.08749   0.09619   0.10362   0.11055   0.11618
 Alpha virt. eigenvalues --    0.13364   0.13900   0.14746   0.15624   0.16803

  Beta  occ. eigenvalues --  -20.60957 -20.58682 -20.55876 -11.41019 -11.29418
  Beta  occ. eigenvalues --  -11.27735 -11.24977 -11.22192  -1.48149  -1.38261
  Beta  occ. eigenvalues --   -1.24289  -1.07783  -1.03457  -0.91669  -0.83130
  Beta  occ. eigenvalues --   -0.76125  -0.72116  -0.69508  -0.67286  -0.63233
  Beta  occ. eigenvalues --   -0.62865  -0.58120  -0.55477  -0.53896  -0.50258
  Beta  occ. eigenvalues --   -0.50183  -0.48407  -0.46898  -0.43782  -0.42295
  Beta virt. eigenvalues --    0.03771   0.04497   0.04795   0.06658   0.07007
  Beta virt. eigenvalues --    0.08183   0.08899   0.09744   0.10754   0.11635
  Beta virt. eigenvalues --    0.12061   0.13549   0.14402   0.15353   0.15877

 Mulliken charges and spin densities:
               1          2
     1  C   -1.193240   0.930612
     2  H    0.207159  -0.069645
     3  C    1.302449  -0.866863
     4  C   -0.345954   0.192921
     5  O   -0.278462  -0.078617
     6  O   -0.028242   0.002129
     7  C   -0.157612   0.001730
     8  C   -0.387404   0.001331
     9  H    0.165974   0.000064
    10  H    0.172567   0.000238
    11  H    0.139208  -0.000170
    12  H    0.149558  -0.000565
    13  H    0.178659  -0.000230
    14  O   -0.166365   0.921962
    15  H    0.241705  -0.034897
 Sum of Mulliken charges =  -0.00000   1.00000

 Dipole moment (field-independent basis, Debye):
    X=             -0.7751    Y=              0.5704    Z=             -0.6959  Tot=              1.1876
 Quadrupole moment (field-independent basis, Debye-Ang):
   XX=            -30.4436   YY=            -48.0730   ZZ=            -51.6952
   XY=             -1.1142   XZ=             -2.0787   YZ=              5.4957

 P3-0=-419.2802268\MP4SDQ=-419.295408\CCSD=-419.300046\CCSD(T)=-419.353
 Normal termination of Gaussian 16 at Mon Aug  4 13:21:53 2025.
