 Gaussian 16, Revision A.03,
 Gaussian 16:  ES64L-G16RevA.03 25-Dec-2016

 -------------------
 # freq 6-31+g m062x
 -------------------

 -------------------
 Title Card Required
 -------------------
 Symbolic Z-matrix:
 Charge =  0 Multiplicity = 2

                         Standard orientation:
 ---------------------------------------------------------------------
 Center     Atomic      Atomic             Coordinates (Angstroms)
 Number     Number       Type             X           Y           Z
 ---------------------------------------------------------------------
      1          6           0       -2.772416   -0.502225   -0.455254
      2          1           0       -3.799046   -0.569630   -0.736471
      3          6           0       -1.614493   -0.146644   -0.124367
      4          6           0       -0.221220   -0.563145    0.218111
      5          8           0        0.106329   -0.946352    1.303989
      6          8           0        0.581685   -0.346425   -0.813590
      7          6           0        1.997119   -0.434886   -0.543385
      8          6           0        2.482020    0.820690    0.153989
      9          1           0        2.447209   -0.552501   -1.527216
     10          1           0        2.185323   -1.327831    0.053509
     11          1           0        3.563826    0.768439    0.291413
     12          1           0        2.245204    1.701413   -0.443966
     13          1           0        2.012945    0.921656    1.133063
     14          8           0       -1.418958    1.577944    0.120347
     15          1           0       -2.033969    1.734379    0.849147
 ---------------------------------------------------------------------

 SCF Done:  E(UM062X) =  -419.962447142     A.U. after   20 cycles

 The electronic state is 2-A.
 Alpha  occ. eigenvalues --  -19.70600 -19.67053 -19.66490 -10.72898 -10.64513
 Alpha  occ. eigenvalues --  -10.61410 -10.61272 -10.54172  -1.28217  -1.18861
 Alpha  occ. eigenvalues --   -1.12558  -0.92225  -0.88359  -0.78704  -0.71597
 Alpha  occ. eigenvalues --   -0.64839  -0.62839  -0.59299  -0.57792  -0.53917
 Alpha  occ. eigenvalues --   -0.53620  -0.49676  -0.48053  -0.46395  -0.45157
 Alpha  occ. eigenvalues --   -0.41819  -0.40517  -0.39652  -0.38179  -0.36579
 Alpha  occ. eigenvalues --   -0.31463
 Alpha virt. eigenvalues --    0.00217   0.01746   0.02138   0.02720   0.03723
 Alpha virt. eigenvalues --    0.04281   0.05606   0.06123   0.07695   0.07964
 Alpha virt. eigenvalues --    0.08856   0.08936   0.09866   0.11492   0.12075

  Beta  occ. eigenvalues --  -19.70597 -19.66502 -19.66311 -10.72833 -10.64693
  Beta  occ. eigenvalues --  -10.61409 -10.60669 -10.54172  -1.28186  -1.18861
  Beta  occ. eigenvalues --   -1.10096  -0.91069  -0.87545  -0.78173  -0.70892
  Beta  occ. eigenvalues --   -0.64619  -0.61868  -0.58979  -0.57527  -0.53600
  Beta  occ. eigenvalues --   -0.52602  -0.49050  -0.46899  -0.45356  -0.42689
  Beta  occ. eigenvalues --   -0.41718  -0.39303  -0.38827  -0.38196  -0.35177
  Beta virt. eigenvalues --   -0.09426   0.01247   0.01544   0.02240   0.02852
  Beta virt. eigenvalues --    0.03826   0.04267   0.05567   0.05940   0.07613
  Beta virt. eigenvalues --    0.07834   0.08666   0.08898   0.10062   0.11342

 Mulliken charges and spin densities:
               1          2
     1  C    0.396835   0.952794
     2  H    0.293902  -0.034469
     3  C   -0.406983  -0.342782
     4  C    0.005574   0.067237
     5  O   -0.347017  -0.004224
     6  O   -0.169109   0.001471
     7  C   -0.249962   0.001316
     8  C   -0.558556   0.000886
     9  H    0.221673  -0.000019
    10  H    0.235176  -0.000164
    11  H    0.204560  -0.000051
    12  H    0.230842   0.000023
    13  H    0.235118   0.000067
    14  O   -0.510499   0.367362
    15  H    0.418448  -0.009446
 Sum of Mulliken charges =  -0.00000   1.00000

 Dipole moment (field-independent basis, Debye):
    X=             -0.8421    Y=             -0.6004    Z=             -0.5769  Tot=              1.1842
 Quadrupole moment (field-independent basis, Debye-Ang):
   XX=            -29.3735   YY=            -50.6277   ZZ=            -52.0859
   XY=              0.6540   XZ=             -1.8670   YZ=              5.5304

  Exact polarizability:  84.404   6.589  65.648   3.317   1.760  56.909
 Approx polarizability:  85.527   9.971  73.775   6.074  -0.628  71.464

 ******    3 imaginary frequencies (negative Signs) ******

                      1                      2                      3
                      A                      A                      A
 Frequencies --   -568.6423              -466.3050               -67.3073
 Red. masses --      8.2025                 1.0730                 6.0091
 Frc consts  --      1.5627                 0.1375                 0.0160
 IR Inten    --     36.7455               113.9901                 4.2461

                      4                      5                      6
                      A                      A                      A
 Frequencies --     35.4632                55.7224               141.4965
 Red. masses --      2.6980                 3.6126                 1.8184
 Frc consts  --      0.0020                 0.0066                 0.0215
 IR Inten    --      1.8852                 7.5886                 5.2807

                      7                      8                      9
                      A                      A                      A
 Frequencies --    195.3387               225.5477               247.6622
 Red. masses --      1.8695                 2.4299                 1.9143
 Frc consts  --      0.0420                 0.0728                 0.0692
 IR Inten    --      2.7040                13.4193                17.0411

                     10                     11                     12
                      A                      A                      A
 Frequencies --    311.0311               344.9794               435.4279
 Red. masses --      3.0493                 5.5354                 3.6438
 Frc consts  --      0.1738                 0.3881                 0.4070
 IR Inten    --     15.8168                 5.8056                10.3399

                     13                     14                     15
                      A                      A                      A
 Frequencies --    574.6375               627.1522               716.1202
 Red. masses --      3.6848                 5.8149                 1.3298
 Frc consts  --      0.7169                 1.3475                 0.4018
 IR Inten    --     12.8121                16.8892                59.2581

                     16                     17                     18
                      A                      A                      A
 Frequencies --    725.3013               816.0300               893.1996
 Red. masses --     10.0219                 1.3231                 3.1511
 Frc consts  --      3.1062                 0.5191                 1.4812
 IR Inten    --     21.4332                 7.8917                20.0516

                     19                     20                     21
                      A                      A                      A
 Frequencies --    923.9223               963.3791              1104.5868
 Red. masses --      1.7938                 1.5138                 4.1678
 Frc consts  --      0.9022                 0.8278                 2.9961
 IR Inten    --     16.4306                35.3525                14.6387

                     22                     23                     24
                      A                      A                      A
 Frequencies --   1157.9432              1227.9100              1321.0854
 Red. masses --      2.0526                 1.7434                 2.1531
 Frc consts  --      1.6216                 1.5488                 2.2140
 IR Inten    --     18.3181                 6.3203               317.2511

                     25                     26                     27
                      A                      A                      A
 Frequencies --   1366.8352              1440.4164              1459.1210
 Red. masses --      1.6645                 1.3717                 1.2472
 Frc consts  --      1.8321                 1.6768                 1.5645
 IR Inten    --    229.8330                23.8531                19.9278

                     28                     29                     30
                      A                      A                      A
 Frequencies --   1526.6721              1536.8252              1545.3329
 Red. masses --      1.0411                 1.0527                 1.0907
 Frc consts  --      1.4296                 1.4649                 1.5346
 IR Inten    --     15.0023                 2.3561                25.3565

                     31                     32                     33
                      A                      A                      A
 Frequencies --   1898.3500              1950.8223              3108.9566
 Red. masses --      9.3049                 8.4766                 1.0351
 Frc consts  --     19.7567                19.0068                 5.8947
 IR Inten    --    207.4622               120.7186                11.7105

                     34                     35                     36
                      A                      A                      A
 Frequencies --   3139.9658              3190.8181              3191.3856
 Red. masses --      1.0602                 1.1036                 1.0992
 Frc consts  --      6.1586                 6.6201                 6.5963
 IR Inten    --     21.0947                 0.5300                18.8492

                     37                     38                     39
                      A                      A                      A
 Frequencies --   3213.1857              3490.5274              3867.9375
 Red. masses --      1.1054                 1.1301                 1.0672
 Frc consts  --      6.7242                 8.1124                 9.4070
 IR Inten    --     16.5184                67.8861                34.2289

 - Thermochemistry -
 -------------------
 Temperature   298.150 Kelvin.  Pressure   1.00000 Atm.
 Atom     1 has atomic number  6 and mass  12.00000

 Molecular mass:   115.03952 amu.
 Principal axes and moments of inertia in atomic units:
                           1         2         3
     Eigenvalues --   476.811211374.391861494.13032
           X            0.99993   0.01163   0.00009
           Y           -0.01159   0.99551   0.09399
           Z            0.00100  -0.09398   0.99557
 This molecule is an asymmetric top.
 Rotational symmetry number  1.
 Warning -- assumption of classical behavior for rotation
           may cause significant error
 Rotational temperatures (Kelvin)      0.18165     0.06302     0.05797
 Rotational constants (GHZ):           3.78502     1.31312     1.20789
    3 imaginary frequencies ignored.
 Zero-point vibrational energy     292912.2 (Joules/Mol)
                                   70.00769 (Kcal/Mol)
 Warning -- explicit consideration of  10 degrees of freedom as
           vibrations may cause significant error
 Vibrational temperatures:     51.02    80.17   203.58   281.05   324.51
          (Kelvin)            356.33   447.50   496.35   626.48   826.78
                              902.33  1030.34  1043.55  1174.09  1285.11
                             1329.32  1386.09  1589.25  1666.02  1766.69
                             1900.75  1966.57  2072.44  2099.35  2196.54
                             2211.15  2223.39  2731.30  2806.80  4473.10
                             4517.71  4590.88  4591.69  4623.06  5022.09
                             5565.10

 Zero-point correction=                           0.111564 (Hartree/Particle)
 Thermal correction to Energy=                    0.120228
 Thermal correction to Enthalpy=                  0.121172
 Thermal correction to Gibbs Free Energy=         0.076372
 Sum of electronic and zero-point Energies=           -419.850883
 Sum of electronic and thermal Energies=              -419.842219
 Sum of electronic and thermal Enthalpies=            -419.841275
 Sum of electronic and thermal Free Energies=         -419.886075

                     E (Thermal)             CV                S
                      KCal/Mol        Cal/Mol-Kelvin    Cal/Mol-Kelvin
 Total                   75.444             28.902             94.290
 Electronic               0.000              0.000              1.377
 Translational            0.889              2.981             40.136
 Rotational               0.889              2.981             28.373
 Vibrational             73.667             22.941             24.404
 Vibration     1          0.594              1.982              5.498
 Vibration     2          0.596              1.975              4.603
 Vibration     3          0.615              1.912              2.784
 Vibration     4          0.636              1.846              2.177
 Vibration     5          0.650              1.802              1.914
 Vibration     6          0.661              1.767              1.747
 Vibration     7          0.700              1.653              1.357
 Vibration     8          0.723              1.585              1.189
 Vibration     9          0.796              1.393              0.841
 Vibration    10          0.931              1.086              0.495

 Normal termination of Gaussian 16 at Fri Jun 20 13:55:19 2025.
