 Gaussian 16, Revision A.03,
 Gaussian 16:  ES64L-G16RevA.03 25-Dec-2016

 --------------------------
 # freq 6-311++g(d,p) m062x
 --------------------------

 -------------------
 Title Card Required
 -------------------
 Symbolic Z-matrix:
 Charge =  0 Multiplicity = 2

                         Standard orientation:
 ---------------------------------------------------------------------
 Center     Atomic      Atomic             Coordinates (Angstroms)
 Number     Number       Type             X           Y           Z
 ---------------------------------------------------------------------
      1          6           0       -2.780784   -0.492539   -0.445206
      2          1           0       -3.806266   -0.573830   -0.723139
      3          6           0       -1.620326   -0.274459   -0.138381
      4          6           0       -0.220972   -0.562548    0.227713
      5          8           0        0.108879   -0.920120    1.322008
      6          8           0        0.581007   -0.359580   -0.807690
      7          6           0        1.995771   -0.446062   -0.536773
      8          6           0        2.483687    0.820364    0.138089
      9          1           0        2.444972   -0.581836   -1.518727
     10          1           0        2.182854   -1.328756    0.075655
     11          1           0        3.565559    0.769346    0.275418
     12          1           0        2.247794    1.690819   -0.475174
     13          1           0        2.015575    0.938677    1.115670
     14          8           0       -1.409865    1.658905    0.103637
     15          1           0       -2.034915    1.783413    0.834000
 ---------------------------------------------------------------------

 SCF Done:  E(UM062X) =  -420.202434113     A.U. after   23 cycles

 The electronic state is 2-A.
 Alpha  occ. eigenvalues --  -19.68164 -19.65231 -19.63121 -10.70684 -10.60392
 Alpha  occ. eigenvalues --  -10.60288 -10.58999 -10.53371  -1.25738  -1.16446
 Alpha  occ. eigenvalues --   -1.11380  -0.91302  -0.87597  -0.78197  -0.70800
 Alpha  occ. eigenvalues --   -0.64585  -0.62356  -0.58657  -0.57347  -0.53404
 Alpha  occ. eigenvalues --   -0.53231  -0.50026  -0.48350  -0.46007  -0.45093
 Alpha  occ. eigenvalues --   -0.41757  -0.40633  -0.39778  -0.38370  -0.36765
 Alpha  occ. eigenvalues --   -0.33525
 Alpha virt. eigenvalues --   -0.00486  -0.00236   0.00484   0.01486   0.02534
 Alpha virt. eigenvalues --    0.02754   0.03249   0.04288   0.05697   0.06153
 Alpha virt. eigenvalues --    0.07071   0.07600   0.08392   0.09858   0.10597

  Beta  occ. eigenvalues --  -19.68166 -19.63955 -19.63142 -10.70649 -10.60392
  Beta  occ. eigenvalues --  -10.60378 -10.58684 -10.53372  -1.25736  -1.16486
  Beta  occ. eigenvalues --   -1.06440  -0.90492  -0.87029  -0.77868  -0.70432
  Beta  occ. eigenvalues --   -0.64433  -0.61769  -0.58587  -0.56944  -0.53203
  Beta  occ. eigenvalues --   -0.51317  -0.48956  -0.46658  -0.45172  -0.41733
  Beta  occ. eigenvalues --   -0.39903  -0.39528  -0.38471  -0.37869  -0.35666
  Beta virt. eigenvalues --   -0.10111  -0.00177   0.00466   0.00900   0.01797
  Beta virt. eigenvalues --    0.02607   0.02798   0.03312   0.04340   0.05747
  Beta virt. eigenvalues --    0.06113   0.07176   0.07493   0.08457   0.09921

 Mulliken charges and spin densities:
               1          2
     1  C   -0.380746   0.553775
     2  H    0.205073  -0.020400
     3  C    0.642377  -0.236847
     4  C   -0.516551   0.038954
     5  O   -0.201999  -0.010364
     6  O    0.054062   0.000839
     7  C   -0.279511  -0.000314
     8  C   -0.415777   0.003643
     9  H    0.195314   0.000231
    10  H    0.187990  -0.000029
    11  H    0.168198  -0.000003
    12  H    0.173268  -0.000549
    13  H    0.189090  -0.001313
    14  O   -0.255050   0.687518
    15  H    0.234263  -0.015140
 Sum of Mulliken charges =  -0.00000   1.00000

 Dipole moment (field-independent basis, Debye):
    X=             -0.7155    Y=             -0.4079    Z=             -0.7822  Tot=              1.1359
 Quadrupole moment (field-independent basis, Debye-Ang):
   XX=            -29.6872   YY=            -49.4777   ZZ=            -51.0574
   XY=              0.7627   XZ=             -1.5172   YZ=              5.0420

  Exact polarizability:  90.790   8.020  74.598   4.641   3.436  59.649
 Approx polarizability:  96.975   9.497  81.102   7.382   0.536  76.975

 ******    1 imaginary frequencies (negative Signs) ******

                      1                      2                      3
                      A                      A                      A
 Frequencies --   -640.0982                61.5978                66.2271
 Red. masses --     12.1175                 4.4232                 3.6311
 Frc consts  --      2.9252                 0.0099                 0.0094
 IR Inten    --     64.6233                 5.7311                 2.3794

                      4                      5                      6
                      A                      A                      A
 Frequencies --    117.4559               165.0839               182.9130
 Red. masses --      3.4263                 2.5596                 4.7603
 Frc consts  --      0.0279                 0.0411                 0.0938
 IR Inten    --      1.3148                21.4744                 9.7386

                      7                      8                      9
                      A                      A                      A
 Frequencies --    214.1740               231.3584               268.2082
 Red. masses --      1.4779                 1.4594                 2.3149
 Frc consts  --      0.0399                 0.0460                 0.0981
 IR Inten    --     35.8728                 7.1475                17.8057

                     10                     11                     12
                      A                      A                      A
 Frequencies --    336.5090               431.5885               563.4797
 Red. masses --      2.9736                 3.6853                 3.8973
 Frc consts  --      0.1984                 0.4045                 0.7291
 IR Inten    --     10.0373                 3.9586                 3.0799

                     13                     14                     15
                      A                      A                      A
 Frequencies --    606.3433               644.0127               719.0340
 Red. masses --      5.0259                 1.3997                 1.3132
 Frc consts  --      1.0887                 0.3420                 0.4000
 IR Inten    --     18.2986                26.1079                39.6240

                     16                     17                     18
                      A                      A                      A
 Frequencies --    765.7818               802.7011               818.9359
 Red. masses --      8.5313                 1.2071                 1.1472
 Frc consts  --      2.9477                 0.4583                 0.4533
 IR Inten    --     32.9154                 5.1090                79.3025

                     19                     20                     21
                      A                      A                      A
 Frequencies --    896.6564               925.2955              1072.3298
 Red. masses --      3.2821                 2.7048                 4.0880
 Frc consts  --      1.5547                 1.3644                 2.7696
 IR Inten    --     17.3769                 7.2306                26.4017

                     22                     23                     24
                      A                      A                      A
 Frequencies --   1129.3775              1203.8756              1285.5351
 Red. masses --      2.0840                 1.7715                 3.8285
 Frc consts  --      1.5661                 1.5127                 3.7277
 IR Inten    --     21.7774                 7.3439               531.3186

                     25                     26                     27
                      A                      A                      A
 Frequencies --   1345.1822              1402.1309              1430.9142
 Red. masses --      1.2421                 1.2820                 1.3740
 Frc consts  --      1.3243                 1.4850                 1.6576
 IR Inten    --     89.6477                23.4664                13.7480

                     28                     29                     30
                      A                      A                      A
 Frequencies --   1491.3422              1502.1654              1514.9250
 Red. masses --      1.0400                 1.0540                 1.0936
 Frc consts  --      1.3628                 1.4012                 1.4787
 IR Inten    --     10.9704                 1.2108                20.9960

                     31                     32                     33
                      A                      A                      A
 Frequencies --   1847.6729              2084.3791              3076.3816
 Red. masses --     11.9234                 6.5083                 1.0353
 Frc consts  --     23.9828                16.6600                 5.7729
 IR Inten    --    346.8889                89.5222                 8.9072

                     34                     35                     36
                      A                      A                      A
 Frequencies --   3108.7355              3153.6478              3154.8457
 Red. masses --      1.0608                 1.1013                 1.1050
 Frc consts  --      6.0401                 6.4533                 6.4799
 IR Inten    --     19.6663                15.5397                 1.1027

                     37                     38                     39
                      A                      A                      A
 Frequencies --   3176.2254              3470.7255              3822.6475
 Red. masses --      1.1074                 1.1450                 1.0676
 Frc consts  --      6.5825                 8.1265                 9.1914
 IR Inten    --     14.4292                72.3897                53.7983

 - Thermochemistry -
 -------------------
 Temperature   298.150 Kelvin.  Pressure   1.00000 Atm.
 Atom     1 has atomic number  6 and mass  12.00000

 Molecular mass:   115.03952 amu.
 Principal axes and moments of inertia in atomic units:
                           1         2         3
     Eigenvalues --   493.613121377.293641511.40838
           X            0.99994   0.01134  -0.00043
           Y           -0.01127   0.99650   0.08281
           Z            0.00136  -0.08280   0.99657
 This molecule is an asymmetric top.
 Rotational symmetry number  1.
 Warning -- assumption of classical behavior for rotation
           may cause significant error
 Rotational temperatures (Kelvin)      0.17547     0.06289     0.05731
 Rotational constants (GHZ):           3.65619     1.31035     1.19408
    1 imaginary frequencies ignored.
 Zero-point vibrational energy     293625.8 (Joules/Mol)
                                   70.17824 (Kcal/Mol)
 Warning -- explicit consideration of  12 degrees of freedom as
           vibrations may cause significant error
 Vibrational temperatures:     88.63    95.29   168.99   237.52   263.17
          (Kelvin)            308.15   332.87   385.89   484.16   620.96
                              810.72   872.39   926.59  1034.53  1101.79
                             1154.91  1178.27  1290.09  1331.29  1542.84
                             1624.92  1732.11  1849.60  1935.42  2017.35
                             2058.77  2145.71  2161.28  2179.64  2658.39
                             2998.96  4426.23  4472.78  4537.40  4539.12
                             4569.88  4993.60  5499.94

 Zero-point correction=                           0.111836 (Hartree/Particle)
 Thermal correction to Energy=                    0.121399
 Thermal correction to Enthalpy=                  0.122343
 Thermal correction to Gibbs Free Energy=         0.076298
 Sum of electronic and zero-point Energies=           -420.090598
 Sum of electronic and thermal Energies=              -420.081035
 Sum of electronic and thermal Enthalpies=            -420.080091
 Sum of electronic and thermal Free Energies=         -420.126136

                     E (Thermal)             CV                S
                      KCal/Mol        Cal/Mol-Kelvin    Cal/Mol-Kelvin
 Total                   76.179             32.243             96.910
 Electronic               0.000              0.000              1.377
 Translational            0.889              2.981             40.136
 Rotational               0.889              2.981             28.421
 Vibrational             74.402             26.281             26.977
 Vibration     1          0.597              1.973              4.405
 Vibration     2          0.598              1.970              4.262
 Vibration     3          0.608              1.935              3.142
 Vibration     4          0.623              1.885              2.491
 Vibration     5          0.630              1.863              2.298
 Vibration     6          0.644              1.819              2.008
 Vibration     7          0.653              1.793              1.868
 Vibration     8          0.673              1.732              1.608
 Vibration     9          0.717              1.603              1.229
 Vibration    10          0.793              1.401              0.853
 Vibration    11          0.919              1.110              0.517
 Vibration    12          0.965              1.018              0.439

 1\1\GINC-AJ\Freq\UM062X\6-311++G(d,p)\C5H7O3(2)\AAYUSH\23-Jun-2025\0\\
 # freq 6-311++g(d,p) m062x\\Title Card Required\\0,2\C,-2.780784,-0.49
 2539,-0.445206\H,-3.806266,-0.57383,-0.723139\C,-1.620326,-0.274459,-0
 .138381\C,-0.220972,-0.562548,0.227713\O,0.108879,-0.92012,1.322008\O,
 0.581007,-0.35958,-0.80769\C,1.995771,-0.446062,-0.536773\C,2.483687,0
 .820364,0.138089\H,2.444972,-0.581836,-1.518727\H,2.182854,-1.328756,0
 .075655\H,3.565559,0.769346,0.275418\H,2.247794,1.690819,-0.475174\H,2
 .015575,0.938677,1.11567\O,-1.409865,1.658905,0.103637\H,-2.034915,1.7

 Normal termination of Gaussian 16 at Mon Jun 23 05:26:11 2025.
