 Gaussian 16, Revision A.03,
 Gaussian 16:  ES64L-G16RevA.03 25-Dec-2016

 --------------------------
 # freq 6-311++g(d,p) m062x
 --------------------------

 -------------------
 Title Card Required
 -------------------
 Symbolic Z-matrix:
 Charge =  0 Multiplicity = 2

                         Standard orientation:
 ---------------------------------------------------------------------
 Center     Atomic      Atomic             Coordinates (Angstroms)
 Number     Number       Type             X           Y           Z
 ---------------------------------------------------------------------
      1          6           0       -2.775994   -0.498105   -0.451719
      2          1           0       -3.801325   -0.576805   -0.732624
      3          6           0       -1.616354   -0.189017   -0.129368
      4          6           0       -0.220551   -0.562605    0.221600
      5          8           0        0.107048   -0.937357    1.310304
      6          8           0        0.581329   -0.351040   -0.811581
      7          6           0        1.996658   -0.438878   -0.541161
      8          6           0        2.482646    0.820463    0.148401
      9          1           0        2.446271   -0.562855   -1.524434
     10          1           0        2.184332   -1.328360    0.061098
     11          1           0        3.564473    0.768465    0.285765
     12          1           0        2.246136    1.697656   -0.454838
     13          1           0        2.013873    0.927566    1.126953
     14          8           0       -1.415644    1.605044    0.114685
     15          1           0       -2.034057    1.750008    0.844297
 ---------------------------------------------------------------------

 SCF Done:  E(UM062X) =  -420.208304468     A.U. after   21 cycles

 The electronic state is 2-A.
 Alpha  occ. eigenvalues --  -19.68239 -19.64332 -19.63246 -10.70610 -10.62299
 Alpha  occ. eigenvalues --  -10.60424 -10.59641 -10.53369  -1.25822  -1.16538
 Alpha  occ. eigenvalues --   -1.10797  -0.91516  -0.87719  -0.78263  -0.70960
 Alpha  occ. eigenvalues --   -0.64704  -0.62467  -0.58799  -0.57618  -0.53358
 Alpha  occ. eigenvalues --   -0.53156  -0.49692  -0.48182  -0.46022  -0.45123
 Alpha  occ. eigenvalues --   -0.41768  -0.40347  -0.39667  -0.38429  -0.36613
 Alpha  occ. eigenvalues --   -0.32011
 Alpha virt. eigenvalues --   -0.00278   0.00152   0.00494   0.01437   0.02396
 Alpha virt. eigenvalues --    0.02691   0.03071   0.04263   0.05745   0.06127
 Alpha virt. eigenvalues --    0.07055   0.07635   0.08352   0.09938   0.10493

  Beta  occ. eigenvalues --  -19.68238 -19.63439 -19.63261 -10.70561 -10.62448
  Beta  occ. eigenvalues --  -10.60423 -10.59153 -10.53370  -1.25802  -1.16560
  Beta  occ. eigenvalues --   -1.07601  -0.90368  -0.86884  -0.77724  -0.70316
  Beta  occ. eigenvalues --   -0.64488  -0.61712  -0.58691  -0.57236  -0.53137
  Beta  occ. eigenvalues --   -0.51814  -0.48871  -0.46817  -0.45223  -0.41734
  Beta  occ. eigenvalues --   -0.41549  -0.39451  -0.38497  -0.38246  -0.35234
  Beta virt. eigenvalues --   -0.09665  -0.00186   0.00466   0.01307   0.01894
  Beta virt. eigenvalues --    0.02413   0.02767   0.03250   0.04301   0.05741
  Beta virt. eigenvalues --    0.06059   0.07163   0.07492   0.08421   0.09913

 Mulliken charges and spin densities:
               1          2
     1  C   -0.091573   0.835984
     2  H    0.218181  -0.027486
     3  C    0.308919  -0.318576
     4  C   -0.456501   0.058532
     5  O   -0.205302  -0.007489
     6  O    0.049912   0.001923
     7  C   -0.280006   0.000944
     8  C   -0.417905   0.002729
     9  H    0.195586   0.000296
    10  H    0.188421  -0.000100
    11  H    0.166832  -0.000082
    12  H    0.174162  -0.000472
    13  H    0.189564  -0.001000
    14  O   -0.282765   0.460970
    15  H    0.242474  -0.006173
 Sum of Mulliken charges =  -0.00000   1.00000

 Dipole moment (field-independent basis, Debye):
    X=             -0.7351    Y=             -0.6344    Z=             -0.8383  Tot=              1.2828
 Quadrupole moment (field-independent basis, Debye-Ang):
   XX=            -29.7374   YY=            -50.0099   ZZ=            -50.9690
   XY=              1.1091   XZ=             -1.4243   YZ=              4.9749

  Exact polarizability:  89.183   6.926  70.672   4.037   2.712  59.405
 Approx polarizability:  93.311   9.490  82.742   6.387   0.798  76.883

 ******    1 imaginary frequencies (negative Signs) ******

                      1                      2                      3
                      A                      A                      A
 Frequencies --   -664.6642                79.4762                89.8537
 Red. masses --     11.8935                 3.1670                 4.5516
 Frc consts  --      3.0957                 0.0118                 0.0217
 IR Inten    --      0.9228                 1.6457                 6.6503

                      4                      5                      6
                      A                      A                      A
 Frequencies --    116.9270               176.8143               201.6489
 Red. masses --      3.0785                 1.8637                 1.3175
 Frc consts  --      0.0248                 0.0343                 0.0316
 IR Inten    --      1.5706                29.0313                55.1865

                      7                      8                      9
                      A                      A                      A
 Frequencies --    231.8066               240.6202               290.0716
 Red. masses --      2.7200                 2.7400                 2.2597
 Frc consts  --      0.0861                 0.0935                 0.1120
 IR Inten    --      0.5554                 3.4328                11.2828

                     10                     11                     12
                      A                      A                      A
 Frequencies --    339.0540               430.1534               445.6807
 Red. masses --      3.1099                 1.8291                 2.6230
 Frc consts  --      0.2106                 0.1994                 0.3070
 IR Inten    --     10.5924                14.1028                24.2384

                     13                     14                     15
                      A                      A                      A
 Frequencies --    575.7602               618.4531               703.1194
 Red. masses --      3.9643                 6.1951                 1.3541
 Frc consts  --      0.7743                 1.3961                 0.3944
 IR Inten    --      5.5144                13.1893                40.5576

                     16                     17                     18
                      A                      A                      A
 Frequencies --    771.6604               802.0966               894.7394
 Red. masses --     10.2467                 1.2120                 3.2146
 Frc consts  --      3.5949                 0.4594                 1.5163
 IR Inten    --     25.9702                 4.9692                16.9511

                     19                     20                     21
                      A                      A                      A
 Frequencies --    918.5745               973.0843              1070.2469
 Red. masses --      2.5492                 1.1816                 3.9918
 Frc consts  --      1.2673                 0.6592                 2.6940
 IR Inten    --      3.1110                56.6309                30.4003

                     22                     23                     24
                      A                      A                      A
 Frequencies --   1129.2554              1203.3667              1283.2673
 Red. masses --      2.0793                 1.7717                 3.8838
 Frc consts  --      1.5622                 1.5116                 3.7682
 IR Inten    --     21.4820                 7.9950               518.4730

                     25                     26                     27
                      A                      A                      A
 Frequencies --   1344.6474              1402.2028              1430.7376
 Red. masses --      1.2389                 1.2811                 1.3682
 Frc consts  --      1.3198                 1.4841                 1.6502
 IR Inten    --     85.7124                21.3099                12.8294

                     28                     29                     30
                      A                      A                      A
 Frequencies --   1491.5002              1501.9225              1514.6272
 Red. masses --      1.0400                 1.0537                 1.0934
 Frc consts  --      1.3631                 1.4005                 1.4779
 IR Inten    --     10.7939                 1.0214                19.8643

                     31                     32                     33
                      A                      A                      A
 Frequencies --   1845.7894              1944.4422              3076.8182
 Red. masses --     11.2746                 7.2558                 1.0353
 Frc consts  --     22.6316                16.1632                 5.7747
 IR Inten    --    320.5055                48.2666                 8.8996

                     34                     35                     36
                      A                      A                      A
 Frequencies --   3109.3876              3154.2153              3155.4294
 Red. masses --      1.0608                 1.1011                 1.1052
 Frc consts  --      6.0429                 6.4543                 6.4834
 IR Inten    --     19.6566                16.2700                 0.1124

                     37                     38                     39
                      A                      A                      A
 Frequencies --   3176.9299              3455.9598              3842.9451
 Red. masses --      1.1074                 1.1307                 1.0677
 Frc consts  --      6.5855                 7.9564                 9.2903
 IR Inten    --     14.2750                80.9159                61.7430

 - Thermochemistry -
 -------------------
 Temperature   298.150 Kelvin.  Pressure   1.00000 Atm.
 Atom     1 has atomic number  6 and mass  12.00000

 Molecular mass:   115.03952 amu.
 Principal axes and moments of inertia in atomic units:
                           1         2         3
     Eigenvalues --   482.144851375.494791499.71121
           X            0.99993   0.01162  -0.00008
           Y           -0.01156   0.99585   0.09032
           Z            0.00113  -0.09031   0.99591
 This molecule is an asymmetric top.
 Rotational symmetry number  1.
 Warning -- assumption of classical behavior for rotation
           may cause significant error
 Rotational temperatures (Kelvin)      0.17964     0.06297     0.05775
 Rotational constants (GHZ):           3.74315     1.31207     1.20339
    1 imaginary frequencies ignored.
 Zero-point vibrational energy     293284.2 (Joules/Mol)
                                   70.09660 (Kcal/Mol)
 Warning -- explicit consideration of  13 degrees of freedom as
           vibrations may cause significant error
 Vibrational temperatures:    114.35   129.28   168.23   254.40   290.13
          (Kelvin)            333.52   346.20   417.35   487.82   618.89
                              641.24   828.39   889.82  1011.63  1110.25
                             1154.04  1287.33  1321.62  1400.05  1539.85
                             1624.75  1731.38  1846.34  1934.65  2017.46
                             2058.51  2145.94  2160.93  2179.21  2655.68
                             2797.62  4426.86  4473.72  4538.21  4539.96
                             4570.89  4972.36  5529.14

 Zero-point correction=                           0.111706 (Hartree/Particle)
 Thermal correction to Energy=                    0.121158
 Thermal correction to Enthalpy=                  0.122103
 Thermal correction to Gibbs Free Energy=         0.076757
 Sum of electronic and zero-point Energies=           -420.096598
 Sum of electronic and thermal Energies=              -420.087146
 Sum of electronic and thermal Enthalpies=            -420.086202
 Sum of electronic and thermal Free Energies=         -420.131548

                     E (Thermal)             CV                S
                      KCal/Mol        Cal/Mol-Kelvin    Cal/Mol-Kelvin
 Total                   76.028             32.305             95.439
 Electronic               0.000              0.000              1.377
 Translational            0.889              2.981             40.136
 Rotational               0.889              2.981             28.388
 Vibrational             74.251             26.343             25.538
 Vibration     1          0.600              1.963              3.904
 Vibration     2          0.602              1.956              3.663
 Vibration     3          0.608              1.935              3.151
 Vibration     4          0.628              1.871              2.362
 Vibration     5          0.639              1.838              2.118
 Vibration     6          0.653              1.792              1.865
 Vibration     7          0.658              1.778              1.798
 Vibration     8          0.686              1.692              1.474
 Vibration     9          0.719              1.597              1.217
 Vibration    10          0.791              1.405              0.858
 Vibration    11          0.805              1.370              0.809
 Vibration    12          0.932              1.084              0.493
 Vibration    13          0.978              0.993              0.419

 1\1\GINC-AJ\Freq\UM062X\6-311++G(d,p)\C5H7O3(2)\AAYUSH\23-Jun-2025\0\\
 # freq 6-311++g(d,p) m062x\\Title Card Required\\0,2\C,-2.775994,-0.49
 8105,-0.451719\H,-3.801325,-0.576805,-0.732624\C,-1.616354,-0.189017,-
 0.129368\C,-0.220551,-0.562605,0.2216\O,0.107048,-0.937357,1.310304\O,
 0.581329,-0.35104,-0.811581\C,1.996658,-0.438878,-0.541161\C,2.482646,
 0.820463,0.148401\H,2.446271,-0.562855,-1.524434\H,2.184332,-1.32836,0
 .061098\H,3.564473,0.768465,0.285765\H,2.246136,1.697656,-0.454838\H,2
 .013873,0.927566,1.126953\O,-1.415644,1.605044,0.114685\H,-2.034057,1.

 Normal termination of Gaussian 16 at Mon Jun 23 05:33:31 2025.
