 Gaussian 16, Revision A.03,
 Gaussian 16:  ES64L-G16RevA.03 25-Dec-2016

 -------------------
 # freq 6-31+g m062x
 -------------------

 -------------------
 Title Card Required
 -------------------
 Symbolic Z-matrix:
 Charge =  0 Multiplicity = 2

                         Standard orientation:
 ---------------------------------------------------------------------
 Center     Atomic      Atomic             Coordinates (Angstroms)
 Number     Number       Type             X           Y           Z
 ---------------------------------------------------------------------
      1          6           0       -2.796860   -0.494944   -0.432830
      2          1           0       -3.828177   -0.515364   -0.697946
      3          6           0       -1.629236   -0.453632   -0.151083
      4          6           0       -0.225366   -0.584086    0.237649
      5          8           0        0.117343   -0.877476    1.348904
      6          8           0        0.578169   -0.380542   -0.799023
      7          6           0        1.992298   -0.460900   -0.528072
      8          6           0        2.487220    0.819340    0.113956
      9          1           0        2.440022   -0.622951   -1.506876
     10          1           0        2.178459   -1.328126    0.106648
     11          1           0        3.569418    0.768138    0.248835
     12          1           0        2.253240    1.675370   -0.520199
     13          1           0        2.022587    0.962697    1.089688
     14          8           0       -1.392774    1.790823    0.078663
     15          1           0       -2.025792    1.843112    0.813781
 ---------------------------------------------------------------------

 SCF Done:  E(UM062X) =  -419.959813035     A.U. after   24 cycles

 The electronic state is 2-A.
 Alpha  occ. eigenvalues --  -19.70298 -19.70203 -19.66017 -10.72854 -10.61238
 Alpha  occ. eigenvalues --  -10.59526 -10.59143 -10.54098  -1.27789  -1.18434
 Alpha  occ. eigenvalues --   -1.14556  -0.91280  -0.87808  -0.78366  -0.71040
 Alpha  occ. eigenvalues --   -0.64400  -0.61980  -0.58405  -0.57049  -0.54622
 Alpha  occ. eigenvalues --   -0.53668  -0.50503  -0.48704  -0.46377  -0.44954
 Alpha  occ. eigenvalues --   -0.42410  -0.41657  -0.39426  -0.37971  -0.36698
 Alpha  occ. eigenvalues --   -0.36196
 Alpha virt. eigenvalues --   -0.01132   0.01988   0.02496   0.03658   0.03770
 Alpha virt. eigenvalues --    0.04505   0.05467   0.05903   0.07703   0.08342
 Alpha virt. eigenvalues --    0.08852   0.08916   0.10063   0.11857   0.12294

  Beta  occ. eigenvalues --  -19.70302 -19.68567 -19.66031 -10.72840 -10.61238
  Beta  occ. eigenvalues --  -10.59518 -10.59045 -10.54098  -1.27797  -1.18459
  Beta  occ. eigenvalues --   -1.07360  -0.91026  -0.87611  -0.78279  -0.70948
  Beta  occ. eigenvalues --   -0.64362  -0.61727  -0.58298  -0.56718  -0.53654
  Beta  occ. eigenvalues --   -0.51656  -0.49214  -0.46578  -0.44997  -0.41655
  Beta  occ. eigenvalues --   -0.39386  -0.39016  -0.38399  -0.38000  -0.36394
  Beta virt. eigenvalues --   -0.09199  -0.00611   0.02037   0.02508   0.03766
  Beta virt. eigenvalues --    0.03805   0.04692   0.05535   0.05988   0.07761
  Beta virt. eigenvalues --    0.08289   0.08920   0.09020   0.10141   0.11967

 Mulliken charges and spin densities:
               1          2
     1  C   -0.227881   0.105027
     2  H    0.340357  -0.005932
     3  C   -0.193472  -0.046321
     4  C    0.271497   0.058208
     5  O   -0.335423  -0.006400
     6  O   -0.164203  -0.000389
     7  C   -0.237338  -0.001099
     8  C   -0.563027   0.000136
     9  H    0.219225  -0.000014
    10  H    0.231591  -0.000061
    11  H    0.204537  -0.000025
    12  H    0.227456  -0.000059
    13  H    0.236830  -0.000078
    14  O   -0.415172   0.931244
    15  H    0.405022  -0.034238
 Sum of Mulliken charges =  -0.00000   1.00000

 Dipole moment (field-independent basis, Debye):
    X=             -0.7866    Y=              0.2161    Z=             -0.3545  Tot=              0.8895
 Quadrupole moment (field-independent basis, Debye-Ang):
   XX=            -29.9021   YY=            -48.7605   ZZ=            -52.4960
   XY=             -1.0044   XZ=             -2.3905   YZ=              5.6847

  Exact polarizability:  87.287   4.302  59.242   3.698  -0.023  56.817
 Approx polarizability:  93.120   3.469  58.557   7.438  -3.563  71.371

 ******    4 imaginary frequencies (negative Signs) ******

                      1                      2                      3
                      A                      A                      A
 Frequencies --   -459.6886              -149.2205               -71.9918
 Red. masses --      1.0898                 2.8764                 4.6144
 Frc consts  --      0.1357                 0.0377                 0.0141
 IR Inten    --    123.1150                44.7679                 9.2128

                      4                      5                      6
                      A                      A                      A
 Frequencies --    -14.3222                82.6360                91.1719
 Red. masses --      2.7127                 3.2420                 3.6894
 Frc consts  --      0.0003                 0.0130                 0.0181
 IR Inten    --      0.2435                 2.9699                 5.5394

                      7                      8                      9
                      A                      A                      A
 Frequencies --    146.5998               174.6057               217.3507
 Red. masses --      3.9665                 1.3628                 3.2736
 Frc consts  --      0.0502                 0.0245                 0.0911
 IR Inten    --     16.1406                 2.4204                 3.1194

                     10                     11                     12
                      A                      A                      A
 Frequencies --    299.1707               312.5829               424.0230
 Red. masses --      2.2063                 2.6610                 3.7682
 Frc consts  --      0.1163                 0.1532                 0.3992
 IR Inten    --     56.8134                30.9551                 0.9659

                     13                     14                     15
                      A                      A                      A
 Frequencies --    572.2454               623.6321               758.8066
 Red. masses --      4.2371                 5.3704                 3.8689
 Frc consts  --      0.8175                 1.2306                 1.3125
 IR Inten    --      2.8974                13.0334                81.5919

                     16                     17                     18
                      A                      A                      A
 Frequencies --    778.6986               811.0117               818.9910
 Red. masses --      1.5495                 1.4373                 1.3182
 Frc consts  --      0.5536                 0.5570                 0.5209
 IR Inten    --     44.9725                28.9822                 4.5129

                     19                     20                     21
                      A                      A                      A
 Frequencies --    899.4566               946.0188              1112.6082
 Red. masses --      3.4172                 2.5215                 4.1608
 Frc consts  --      1.6289                 1.3295                 3.0347
 IR Inten    --     20.8894                 5.5318                 8.4307

                     22                     23                     24
                      A                      A                      A
 Frequencies --   1159.5191              1228.7846              1329.5352
 Red. masses --      2.0896                 1.7541                 1.8273
 Frc consts  --      1.6553                 1.5605                 1.9031
 IR Inten    --     18.7647                 4.5764               286.1369

                     25                     26                     27
                      A                      A                      A
 Frequencies --   1373.2746              1443.5894              1457.4874
 Red. masses --      1.8596                 1.3890                 1.2682
 Frc consts  --      2.0663                 1.7055                 1.5873
 IR Inten    --    306.0559                41.7410                17.3607

                     28                     29                     30
                      A                      A                      A
 Frequencies --   1525.9161              1536.6202              1544.4002
 Red. masses --      1.0415                 1.0598                 1.0856
 Frc consts  --      1.4287                 1.4743                 1.5256
 IR Inten    --     14.7039                 2.0947                27.1757

                     31                     32                     33
                      A                      A                      A
 Frequencies --   1908.0387              2303.4913              3107.7720
 Red. masses --     12.2580                 5.6595                 1.0351
 Frc consts  --     26.2933                17.6928                 5.8900
 IR Inten    --    310.6059                62.5156                13.1192

                     34                     35                     36
                      A                      A                      A
 Frequencies --   3136.4990              3188.0135              3190.2308
 Red. masses --      1.0601                 1.1022                 1.1008
 Frc consts  --      6.1446                 6.6003                 6.6012
 IR Inten    --     21.7320                 6.2974                14.6598

                     37                     38                     39
                      A                      A                      A
 Frequencies --   3211.0756              3529.4975              3808.2278
 Red. masses --      1.1051                 1.1742                 1.0672
 Frc consts  --      6.7135                 8.6181                 9.1187
 IR Inten    --     17.6576                60.5862                11.0913

 - Thermochemistry -
 -------------------
 Temperature   298.150 Kelvin.  Pressure   1.00000 Atm.
 Atom     1 has atomic number  6 and mass  12.00000

 Molecular mass:   115.03952 amu.
 Principal axes and moments of inertia in atomic units:
                           1         2         3
     Eigenvalues --   525.897451382.428881544.74311
           X            0.99995   0.01019  -0.00128
           Y           -0.01009   0.99779   0.06575
           Z            0.00195  -0.06574   0.99784
 This molecule is an asymmetric top.
 Rotational symmetry number  1.
 Warning -- assumption of classical behavior for rotation
           may cause significant error
 Rotational temperatures (Kelvin)      0.16470     0.06265     0.05607
 Rotational constants (GHZ):           3.43174     1.30549     1.16831
    4 imaginary frequencies ignored.
 Zero-point vibrational energy     293393.6 (Joules/Mol)
                                   70.12276 (Kcal/Mol)
 Warning -- explicit consideration of   9 degrees of freedom as
           vibrations may cause significant error
 Vibrational temperatures:    118.89   131.18   210.92   251.22   312.72
          (Kelvin)            430.44   449.74   610.07   823.33   897.27
                             1091.75  1120.37  1166.86  1178.35  1294.12
                             1361.11  1600.80  1668.29  1767.95  1912.90
                             1975.84  2077.00  2097.00  2195.45  2210.85
                             2222.05  2745.24  3314.21  4471.39  4512.72
                             4586.84  4590.03  4620.02  5078.16  5479.19

 Zero-point correction=                           0.111748 (Hartree/Particle)
 Thermal correction to Energy=                    0.119847
 Thermal correction to Enthalpy=                  0.120791
 Thermal correction to Gibbs Free Energy=         0.077796
 Sum of electronic and zero-point Energies=           -419.848065
 Sum of electronic and thermal Energies=              -419.839966
 Sum of electronic and thermal Enthalpies=            -419.839022
 Sum of electronic and thermal Free Energies=         -419.882017

                     E (Thermal)             CV                S
                      KCal/Mol        Cal/Mol-Kelvin    Cal/Mol-Kelvin
 Total                   75.205             27.227             90.492
 Electronic               0.000              0.000              1.377
 Translational            0.889              2.981             40.136
 Rotational               0.889              2.981             28.509
 Vibrational             73.428             21.265             20.470
 Vibration     1          0.600              1.961              3.827
 Vibration     2          0.602              1.955              3.635
 Vibration     3          0.617              1.906              2.716
 Vibration     4          0.627              1.874              2.385
 Vibration     5          0.646              1.815              1.981
 Vibration     6          0.692              1.675              1.422
 Vibration     7          0.701              1.650              1.349
 Vibration     8          0.786              1.418              0.878
 Vibration     9          0.928              1.091              0.500

 Normal termination of Gaussian 16 at Fri Jun 20 14:01:44 2025.
