 Gaussian 16, Revision A.03,
 Gaussian 16:  ES64L-G16RevA.03 25-Dec-2016

 --------------------------
 # freq 6-311++g(d,p) m062x
 --------------------------

 -------------------
 Title Card Required
 -------------------
 Symbolic Z-matrix:
 Charge =  0 Multiplicity = 2

                         Standard orientation:
 ---------------------------------------------------------------------
 Center     Atomic      Atomic             Coordinates (Angstroms)
 Number     Number       Type             X           Y           Z
 ---------------------------------------------------------------------
      1          6           0       -2.794992   -0.493678   -0.434176
      2          1           0       -3.825674   -0.523715   -0.700845
      3          6           0       -1.628059   -0.435253   -0.150143
      4          6           0       -0.224739   -0.579867    0.236647
      5          8           0        0.116252   -0.882804    1.345713
      6          8           0        0.578887   -0.377441   -0.800023
      7          6           0        1.992883   -0.459273   -0.529057
      8          6           0        2.486813    0.819447    0.116864
      9          1           0        2.440898   -0.618310   -1.508205
     10          1           0        2.178921   -1.328360    0.103112
     11          1           0        3.568942    0.768653    0.252349
     12          1           0        2.252548    1.677085   -0.515006
     13          1           0        2.021491    0.959783    1.092740
     14          8           0       -1.395096    1.775147    0.081784
     15          1           0       -2.028911    1.837390    0.815253
 ---------------------------------------------------------------------

 SCF Done:  E(UM062X) =  -420.206454067     A.U. after   24 cycles

 The electronic state is 2-A.
 Alpha  occ. eigenvalues --  -19.68002 -19.67405 -19.62899 -10.70520 -10.60298
 Alpha  occ. eigenvalues --  -10.57876 -10.57555 -10.53348  -1.25506  -1.16202
 Alpha  occ. eigenvalues --   -1.13204  -0.90595  -0.87148  -0.77934  -0.70483
 Alpha  occ. eigenvalues --   -0.64303  -0.61643  -0.58363  -0.57010  -0.54731
 Alpha  occ. eigenvalues --   -0.53248  -0.50468  -0.48628  -0.46187  -0.45019
 Alpha  occ. eigenvalues --   -0.42297  -0.41699  -0.39438  -0.38253  -0.36411
 Alpha  occ. eigenvalues --   -0.35780
 Alpha virt. eigenvalues --   -0.01044  -0.00203   0.00516   0.01474   0.02524
 Alpha virt. eigenvalues --    0.02794   0.03692   0.04423   0.05624   0.06162
 Alpha virt. eigenvalues --    0.07149   0.07695   0.08456   0.09812   0.10764

  Beta  occ. eigenvalues --  -19.68006 -19.65847 -19.62913 -10.70506 -10.60298
  Beta  occ. eigenvalues --  -10.57859 -10.57458 -10.53349  -1.25513  -1.16233
  Beta  occ. eigenvalues --   -1.05862  -0.90303  -0.86884  -0.77815  -0.70366
  Beta  occ. eigenvalues --   -0.64256  -0.61375  -0.58325  -0.56509  -0.53230
  Beta  occ. eigenvalues --   -0.52059  -0.49038  -0.46484  -0.45054  -0.41697
  Beta  occ. eigenvalues --   -0.39413  -0.39057  -0.38350  -0.38050  -0.36068
  Beta virt. eigenvalues --   -0.09014  -0.00468  -0.00014   0.00557   0.01771
  Beta virt. eigenvalues --    0.02630   0.02824   0.03722   0.04521   0.05695
  Beta virt. eigenvalues --    0.06191   0.07241   0.07730   0.08481   0.09911

 Mulliken charges and spin densities:
               1          2
     1  C   -1.777337   0.148628
     2  H    0.176633  -0.008545
     3  C    1.737807  -0.080159
     4  C   -0.247714   0.058209
     5  O   -0.197614  -0.006543
     6  O    0.061504   0.000234
     7  C   -0.264736   0.000218
     8  C   -0.416765   0.000306
     9  H    0.195130   0.000134
    10  H    0.189696  -0.000009
    11  H    0.170200   0.000053
    12  H    0.170616  -0.000108
    13  H    0.189242  -0.000632
    14  O   -0.221752   0.908485
    15  H    0.235090  -0.020270
 Sum of Mulliken charges =  -0.00000   1.00000

 Dipole moment (field-independent basis, Debye):
    X=             -0.6315    Y=              0.2203    Z=             -0.6125  Tot=              0.9069
 Quadrupole moment (field-independent basis, Debye-Ang):
   XX=            -30.3582   YY=            -48.5348   ZZ=            -51.3159
   XY=             -0.6542   XZ=             -1.9469   YZ=              5.0972

  Exact polarizability:  91.588   4.853  64.500   4.275   0.913  59.284
 Approx polarizability:  99.303   3.883  69.167   7.361  -2.061  76.649

 ******    1 imaginary frequencies (negative Signs) ******

                      1                      2                      3
                      A                      A                      A
 Frequencies --    -26.7812                36.3236               112.3256
 Red. masses --      4.8518                 4.1699                 4.2229
 Frc consts  --      0.0021                 0.0032                 0.0314
 IR Inten    --      7.9662                 1.7169                 1.1699

                      4                      5                      6
                      A                      A                      A
 Frequencies --    122.1261               159.4047               196.6057
 Red. masses --      4.0673                 2.5498                 5.1081
 Frc consts  --      0.0357                 0.0382                 0.1163
 IR Inten    --     11.1153                11.4126                 6.7508

                      7                      8                      9
                      A                      A                      A
 Frequencies --    210.0391               226.2135               264.5631
 Red. masses --      1.6002                 1.3481                 2.6619
 Frc consts  --      0.0416                 0.0406                 0.1098
 IR Inten    --     42.9089                 6.2632                21.5680

                     10                     11                     12
                      A                      A                      A
 Frequencies --    337.4814               426.6287               551.1537
 Red. masses --      2.9458                 3.7981                 1.7640
 Frc consts  --      0.1977                 0.4073                 0.3157
 IR Inten    --     10.1379                 4.0359                50.1257

                     13                     14                     15
                      A                      A                      A
 Frequencies --    576.8501               609.1437               726.6025
 Red. masses --      1.6746                 6.6499                 1.3253
 Frc consts  --      0.3283                 1.4538                 0.4122
 IR Inten    --     53.9027                 7.3136                37.6999

                     16                     17                     18
                      A                      A                      A
 Frequencies --    752.8239               778.7279               802.9073
 Red. masses --      1.3322                 7.2682                 1.2129
 Frc consts  --      0.4448                 2.5969                 0.4607
 IR Inten    --     21.6759                52.8574                 5.5249

                     19                     20                     21
                      A                      A                      A
 Frequencies --    897.6472               929.2770              1077.0857
 Red. masses --      3.2238                 2.7660                 4.1268
 Frc consts  --      1.5305                 1.4073                 2.8208
 IR Inten    --     15.7127                 5.5913                22.0085

                     22                     23                     24
                      A                      A                      A
 Frequencies --   1129.8758              1204.5575              1293.1231
 Red. masses --      2.0924                 1.7706                 3.5814
 Frc consts  --      1.5738                 1.5137                 3.5285
 IR Inten    --     22.4067                 5.2842               540.9526

                     25                     26                     27
                      A                      A                      A
 Frequencies --   1347.5641              1402.1646              1431.8550
 Red. masses --      1.2602                 1.2852                 1.3871
 Frc consts  --      1.3483                 1.4887                 1.6755
 IR Inten    --    106.4382                29.7508                11.8705

                     28                     29                     30
                      A                      A                      A
 Frequencies --   1490.8923              1502.4884              1515.0516
 Red. masses --      1.0401                 1.0559                 1.0926
 Frc consts  --      1.3621                 1.4044                 1.4776
 IR Inten    --     10.8097                 0.9929                21.0868

                     31                     32                     33
                      A                      A                      A
 Frequencies --   1842.1802              2234.7695              3075.6756
 Red. masses --     11.9955                 5.8760                 1.0353
 Frc consts  --     23.9846                17.2901                 5.7703
 IR Inten    --    336.0855                63.0771                 9.9601

                     34                     35                     36
                      A                      A                      A
 Frequencies --   3106.4105              3151.9772              3154.2202
 Red. masses --      1.0607                 1.1021                 1.1044
 Frc consts  --      6.0307                 6.4514                 6.4736
 IR Inten    --     19.9203                12.7142                 4.6256

                     37                     38                     39
                      A                      A                      A
 Frequencies --   3174.6269              3486.5694              3800.7351
 Red. masses --      1.1072                 1.1657                 1.0673
 Frc consts  --      6.5744                 8.3487                 9.0835
 IR Inten    --     15.0070                68.2221                36.9636

 - Thermochemistry -
 -------------------
 Temperature   298.150 Kelvin.  Pressure   1.00000 Atm.
 Atom     1 has atomic number  6 and mass  12.00000

 Molecular mass:   115.03952 amu.
 Principal axes and moments of inertia in atomic units:
                           1         2         3
     Eigenvalues --   521.790631381.926681540.64803
           X            0.99995   0.01032  -0.00118
           Y           -0.01022   0.99766   0.06757
           Z            0.00188  -0.06756   0.99771
 This molecule is an asymmetric top.
 Rotational symmetry number  1.
 Warning -- assumption of classical behavior for rotation
           may cause significant error
 Rotational temperatures (Kelvin)      0.16599     0.06268     0.05622
 Rotational constants (GHZ):           3.45875     1.30596     1.17142
    1 imaginary frequencies ignored.
 Zero-point vibrational energy     293914.5 (Joules/Mol)
                                   70.24725 (Kcal/Mol)
 Warning -- explicit consideration of  13 degrees of freedom as
           vibrations may cause significant error
 Vibrational temperatures:     52.26   161.61   175.71   229.35   282.87
          (Kelvin)            302.20   325.47   380.65   485.56   613.82
                              792.99   829.96   876.42  1045.42  1083.15
                             1120.42  1155.20  1291.51  1337.02  1549.69
                             1625.64  1733.09  1860.52  1938.84  2017.40
                             2060.12  2145.06  2161.75  2179.82  2650.49
                             3215.33  4425.21  4469.43  4534.99  4538.22
                             4567.58  5016.40  5468.41

 Zero-point correction=                           0.111946 (Hartree/Particle)
 Thermal correction to Energy=                    0.121526
 Thermal correction to Enthalpy=                  0.122471
 Thermal correction to Gibbs Free Energy=         0.076321
 Sum of electronic and zero-point Energies=           -420.094508
 Sum of electronic and thermal Energies=              -420.084928
 Sum of electronic and thermal Enthalpies=            -420.083983
 Sum of electronic and thermal Free Energies=         -420.130133

                     E (Thermal)             CV                S
                      KCal/Mol        Cal/Mol-Kelvin    Cal/Mol-Kelvin
 Total                   76.259             32.451             97.129
 Electronic               0.000              0.000              1.377
 Translational            0.889              2.981             40.136
 Rotational               0.889              2.981             28.498
 Vibrational             74.482             26.490             27.118
 Vibration     1          0.594              1.982              5.450
 Vibration     2          0.607              1.939              3.228
 Vibration     3          0.610              1.931              3.066
 Vibration     4          0.621              1.892              2.557
 Vibration     5          0.636              1.845              2.165
 Vibration     6          0.642              1.825              2.043
 Vibration     7          0.650              1.801              1.909
 Vibration     8          0.671              1.738              1.631
 Vibration     9          0.718              1.601              1.224
 Vibration    10          0.788              1.412              0.870
 Vibration    11          0.906              1.137              0.542
 Vibration    12          0.933              1.081              0.491
 Vibration    13          0.968              1.012              0.434

 1\1\GINC-AJ\Freq\UM062X\6-311++G(d,p)\C5H7O3(2)\AAYUSH\16-Aug-2025\0\\
 # freq 6-311++g(d,p) m062x\\Title Card Required\\0,2\C,-2.736617,-0.46
 578,-0.450992\H,-3.766872,-0.492396,-0.719664\C,-1.570182,-0.410889,-0
 .164218\C,-0.167162,-0.560582,0.221727\O,0.172789,-0.88423,1.325248\O,
 0.63757,-0.336916,-0.809707\C,2.051322,-0.421594,-0.538342\C,2.542185,
 0.845285,0.13276\H,2.500974,-0.561021,-1.519726\H,2.237944,-1.30237,0.
 07726\H,3.624208,0.793694,0.268791\H,2.307355,1.714528,-0.482832\H,2.0
 75262,0.966049,1.110488\O,-1.341281,1.795025,0.110513\H,-1.976225,1.84

 Normal termination of Gaussian 16 at Sat Aug 16 20:06:54 2025.
