 Gaussian 16, Revision A.03,
 Gaussian 16:  ES64L-G16RevA.03 25-Dec-2016

 --------------------------
 # ccsd(t)/6-311++g(d,p) sp
 --------------------------

 -------------------
 Title Card Required
 -------------------
 Symbolic Z-matrix:
 Charge =  0 Multiplicity = 2

                         Standard orientation:
 ---------------------------------------------------------------------
 Center     Atomic      Atomic             Coordinates (Angstroms)
 Number     Number       Type             X           Y           Z
 ---------------------------------------------------------------------
      1          6           0       -2.798543   -0.496365   -0.431477
      2          1           0       -3.830352   -0.507786   -0.695200
      3          6           0       -1.630350   -0.471610   -0.151917
      4          6           0       -0.225967   -0.588667    0.238722
      5          8           0        0.118403   -0.871988    1.352206
      6          8           0        0.577357   -0.384152   -0.797982
      7          6           0        1.991679   -0.462489   -0.527053
      8          6           0        2.487493    0.819370    0.110950
      9          1           0        2.439049   -0.627503   -1.505537
     10          1           0        2.178173   -1.327762    0.110259
     11          1           0        3.569780    0.767734    0.245078
     12          1           0        2.253701    1.673768   -0.525466
     13          1           0        2.023767    0.965816    1.086624
     14          8           0       -1.390528    1.806768    0.075308
     15          1           0       -2.021841    1.849266    0.812638
 ---------------------------------------------------------------------

 SCF Done:  E(UHF) =  -417.991292820     A.U. after   38 cycles
 E2 =    -0.1261055436D+01 EUMP2 =    -0.41925234825598D+03
 CCSD(T)= -0.41935724218D+03

 The electronic state is 2-A.
 Alpha  occ. eigenvalues --  -20.63155 -20.61033 -20.55656 -11.41479 -11.29444
 Alpha  occ. eigenvalues --  -11.26710 -11.25835 -11.22175  -1.48042  -1.38721
 Alpha  occ. eigenvalues --   -1.37752  -1.07712  -1.03997  -0.92436  -0.83637
 Alpha  occ. eigenvalues --   -0.76273  -0.73010  -0.69314  -0.68522  -0.66901
 Alpha  occ. eigenvalues --   -0.64850  -0.62945  -0.57999  -0.56162  -0.53864
 Alpha  occ. eigenvalues --   -0.53575  -0.50229  -0.47817  -0.46037  -0.42750
 Alpha  occ. eigenvalues --   -0.42247
 Alpha virt. eigenvalues --    0.03704   0.04609   0.05647   0.06813   0.07000
 Alpha virt. eigenvalues --    0.08801   0.09519   0.09868   0.10835   0.11856
 Alpha virt. eigenvalues --    0.13440   0.13915   0.14746   0.15940   0.16839

  Beta  occ. eigenvalues --  -20.61039 -20.59062 -20.55925 -11.41277 -11.29444
  Beta  occ. eigenvalues --  -11.26790 -11.25566 -11.22176  -1.48156  -1.38185
  Beta  occ. eigenvalues --   -1.23358  -1.07751  -1.03578  -0.91960  -0.83453
  Beta  occ. eigenvalues --   -0.76195  -0.72487  -0.69521  -0.66758  -0.63284
  Beta  occ. eigenvalues --   -0.62979  -0.58233  -0.55235  -0.53856  -0.50391
  Beta  occ. eigenvalues --   -0.50270  -0.48315  -0.46773  -0.42948  -0.42309
  Beta virt. eigenvalues --    0.03749   0.04539   0.04998   0.06705   0.06996
  Beta virt. eigenvalues --    0.08617   0.08970   0.09771   0.10356   0.11150
  Beta virt. eigenvalues --    0.12337   0.13590   0.14238   0.15036   0.16138

 Mulliken charges and spin densities:
               1          2
     1  C   -0.566466   0.539324
     2  H    0.223076  -0.037442
     3  C    1.122151  -0.478545
     4  C   -0.824775   0.075028
     5  O   -0.272821  -0.055035
     6  O   -0.025108   0.001133
     7  C   -0.139254   0.001286
     8  C   -0.382587   0.001564
     9  H    0.167419  -0.000015
    10  H    0.174484  -0.000275
    11  H    0.136908   0.000164
    12  H    0.148536  -0.000605
    13  H    0.180297   0.000544
    14  O   -0.175322   0.992038
    15  H    0.233463  -0.039162
 Sum of Mulliken charges =  -0.00000   1.00000

 Dipole moment (field-independent basis, Debye):
    X=             -0.7596    Y=              0.6648    Z=             -0.6307  Tot=              1.1903
 Quadrupole moment (field-independent basis, Debye-Ang):
   XX=            -30.4100   YY=            -48.0474   ZZ=            -51.9074
   XY=             -1.6727   XZ=             -2.2159   YZ=              5.4379

 -419.2844917\MP4SDQ=-419.3043517\CCSD=-419.3046979\CCSD(T)=-419.357242
 Normal termination of Gaussian 16 at Fri Aug 29 02:12:40 2025.
