 Gaussian 16, Revision A.03,
 Gaussian 16:  ES64L-G16RevA.03 25-Dec-2016

 --------------------------
 # freq 6-311++g(d,p) m062x
 --------------------------

 -------------------
 Title Card Required
 -------------------
 Symbolic Z-matrix:
 Charge =  0 Multiplicity = 2

                         Standard orientation:
 ---------------------------------------------------------------------
 Center     Atomic      Atomic             Coordinates (Angstroms)
 Number     Number       Type             X           Y           Z
 ---------------------------------------------------------------------
      1          6           0       -2.764064   -0.509675   -0.460899
      2          1           0       -3.794353   -0.545958   -0.740589
      3          6           0       -1.612324   -0.084625   -0.116494
      4          6           0       -0.223336   -0.563720    0.212332
      5          8           0        0.105248   -0.960829    1.293434
      6          8           0        0.582494   -0.338830   -0.816753
      7          6           0        1.997916   -0.428093   -0.546677
      8          6           0        2.480777    0.821462    0.163349
      9          1           0        2.449138   -0.535252   -1.531194
     10          1           0        2.187331   -1.326430    0.041589
     11          1           0        3.562546    0.769234    0.301052
     12          1           0        2.243453    1.707798   -0.426114
     13          1           0        2.011162    0.912249    1.143206
     14          8           0       -1.424960    1.536341    0.129163
     15          1           0       -2.035347    1.712811    0.855625
 ---------------------------------------------------------------------

 SCF Done:  E(UM062X) =  -420.225835387     A.U. after   18 cycles

 The electronic state is 2-A.
 Alpha  occ. eigenvalues --  -19.68116 -19.64699 -19.63160 -10.70136 -10.63509
 Alpha  occ. eigenvalues --  -10.60357 -10.59379 -10.53388  -1.25644  -1.16354
 Alpha  occ. eigenvalues --   -1.12382  -0.90940  -0.87481  -0.78023  -0.70848
 Alpha  occ. eigenvalues --   -0.64566  -0.61712  -0.59211  -0.58112  -0.54354
 Alpha  occ. eigenvalues --   -0.52974  -0.49916  -0.48166  -0.46231  -0.45137
 Alpha  occ. eigenvalues --   -0.41730  -0.40763  -0.39424  -0.38333  -0.35919
 Alpha  occ. eigenvalues --   -0.31234
 Alpha virt. eigenvalues --   -0.00247   0.00394   0.01240   0.01317   0.02265
 Alpha virt. eigenvalues --    0.02718   0.03358   0.04418   0.05802   0.06164
 Alpha virt. eigenvalues --    0.07209   0.07767   0.08459   0.10067   0.10540

  Beta  occ. eigenvalues --  -19.68111 -19.64241 -19.63161 -10.70078 -10.63665
  Beta  occ. eigenvalues --  -10.60356 -10.58703 -10.53389  -1.25600  -1.16341
  Beta  occ. eigenvalues --   -1.10769  -0.89806  -0.86297  -0.77310  -0.69903
  Beta  occ. eigenvalues --   -0.64352  -0.60729  -0.58784  -0.57868  -0.53725
  Beta  occ. eigenvalues --   -0.52840  -0.48727  -0.47306  -0.45370  -0.44266
  Beta  occ. eigenvalues --   -0.41647  -0.39733  -0.38875  -0.38239  -0.34468
  Beta virt. eigenvalues --   -0.08296  -0.00246   0.00452   0.01489   0.02205
  Beta virt. eigenvalues --    0.02371   0.02767   0.03544   0.04475   0.05781
  Beta virt. eigenvalues --    0.05988   0.07306   0.07703   0.08491   0.09839

 Mulliken charges and spin densities:
               1          2
     1  C   -0.019814   1.044820
     2  H    0.220694  -0.027428
     3  C    0.085607  -0.299393
     4  C   -0.318236   0.058579
     5  O   -0.210002   0.000663
     6  O    0.047235   0.004211
     7  C   -0.280122   0.001895
     8  C   -0.421036   0.001283
     9  H    0.195177   0.000223
    10  H    0.189758  -0.000316
    11  H    0.166203  -0.000081
    12  H    0.173696  -0.000196
    13  H    0.189838  -0.000519
    14  O   -0.279631   0.215364
    15  H    0.260633   0.000895
 Sum of Mulliken charges =  -0.00000   1.00000

 Dipole moment (field-independent basis, Debye):
    X=             -0.6448    Y=             -0.2489    Z=             -0.7568  Tot=              1.0250
 Quadrupole moment (field-independent basis, Debye-Ang):
   XX=            -30.7257   YY=            -49.9467   ZZ=            -50.9353
   XY=              0.2983   XZ=             -1.6703   YZ=              4.9443

  Exact polarizability:  87.717   5.892  65.571   3.472   1.837  59.226
 Approx polarizability:  89.470   7.768  77.751   5.153  -0.032  76.612

 ******    2 imaginary frequencies (negative Signs) ******

                      1                      2                      3
                      A                      A                      A
 Frequencies --   -364.8035               -41.3377                93.1548
 Red. masses --      2.6870                 1.3164                 3.8144
 Frc consts  --      0.2107                 0.0013                 0.0195
 IR Inten    --    127.4191                42.1684                 7.1462

                      4                      5                      6
                      A                      A                      A
 Frequencies --    112.7355               137.5702               190.5352
 Red. masses --      2.8277                 3.4297                 1.7037
 Frc consts  --      0.0212                 0.0382                 0.0364
 IR Inten    --      3.6882                22.2793                 5.2682

                      7                      8                      9
                      A                      A                      A
 Frequencies --    237.0616               249.7734               288.5674
 Red. masses --      1.6899                 2.0025                 3.9986
 Frc consts  --      0.0560                 0.0736                 0.1962
 IR Inten    --     15.5841                 3.7573                 1.0036

                     10                     11                     12
                      A                      A                      A
 Frequencies --    341.9872               368.9720               452.3828
 Red. masses --      3.1355                 9.5783                 3.4997
 Frc consts  --      0.2161                 0.7683                 0.4220
 IR Inten    --     12.2224                 0.9705                 8.3010

                     13                     14                     15
                      A                      A                      A
 Frequencies --    602.2995               646.5793               691.2550
 Red. masses --      3.9681                 4.3555                 1.4828
 Frc consts  --      0.8481                 1.0728                 0.4175
 IR Inten    --     12.7771                17.9105                39.0265

                     16                     17                     18
                      A                      A                      A
 Frequencies --    791.4853               802.2006               894.0683
 Red. masses --      9.5211                 1.2298                 3.2176
 Frc consts  --      3.5142                 0.4663                 1.5154
 IR Inten    --     11.8543                 4.7321                15.6193

                     19                     20                     21
                      A                      A                      A
 Frequencies --    918.9073              1062.7843              1114.5726
 Red. masses --      2.7152                 3.1544                 1.2933
 Frc consts  --      1.3508                 2.0992                 0.9466
 IR Inten    --      1.5658                17.8603                56.5827

                     22                     23                     24
                      A                      A                      A
 Frequencies --   1129.6489              1202.8492              1281.9212
 Red. masses --      2.0285                 1.7736                 3.9459
 Frc consts  --      1.5251                 1.5120                 3.8205
 IR Inten    --     25.5927                 7.4316               504.3800

                     25                     26                     27
                      A                      A                      A
 Frequencies --   1343.6331              1401.7597              1430.0823
 Red. masses --      1.2328                 1.2801                 1.3643
 Frc consts  --      1.3113                 1.4820                 1.6440
 IR Inten    --     81.3854                19.7727                11.5259

                     28                     29                     30
                      A                      A                      A
 Frequencies --   1491.8851              1501.8085              1514.0038
 Red. masses --      1.0400                 1.0545                 1.0921
 Frc consts  --      1.3639                 1.4013                 1.4749
 IR Inten    --     10.4654                 0.9022                18.3678

                     31                     32                     33
                      A                      A                      A
 Frequencies --   1791.0705              1862.3941              3076.7428
 Red. masses --      7.5299                11.3612                 1.0353
 Frc consts  --     14.2319                23.2176                 5.7742
 IR Inten    --     55.7085               283.2397                 9.1230

                     34                     35                     36
                      A                      A                      A
 Frequencies --   3109.9268              3154.0915              3155.2762
 Red. masses --      1.0608                 1.1010                 1.1051
 Frc consts  --      6.0447                 6.4536                 6.4825
 IR Inten    --     19.7985                16.5713                 0.1073

                     37                     38                     39
                      A                      A                      A
 Frequencies --   3176.9518              3422.9432              3863.7532
 Red. masses --      1.1075                 1.1212                 1.0675
 Frc consts  --      6.5861                 7.7395                 9.3894
 IR Inten    --     14.5563                71.9644                69.4346

 - Thermochemistry -
 -------------------
 Temperature   298.150 Kelvin.  Pressure   1.00000 Atm.
 Atom     1 has atomic number  6 and mass  12.00000

 Molecular mass:   115.03952 amu.
 Principal axes and moments of inertia in atomic units:
                           1         2         3
     Eigenvalues --   469.124991372.163031485.70103
           X            0.99993   0.01148   0.00033
           Y           -0.01146   0.99499   0.09931
           Z            0.00082  -0.09930   0.99506
 This molecule is an asymmetric top.
 Rotational symmetry number  1.
 Warning -- assumption of classical behavior for rotation
           may cause significant error
 Rotational temperatures (Kelvin)      0.18463     0.06312     0.05830
 Rotational constants (GHZ):           3.84704     1.31525     1.21474
    2 imaginary frequencies ignored.
 Zero-point vibrational energy     292532.6 (Joules/Mol)
                                   69.91697 (Kcal/Mol)
 Warning -- explicit consideration of  11 degrees of freedom as
           vibrations may cause significant error
 Vibrational temperatures:    134.03   162.20   197.93   274.14   341.08
          (Kelvin)            359.37   415.18   492.04   530.87   650.88
                              866.57   930.28   994.56  1138.77  1154.19
                             1286.36  1322.10  1529.11  1603.62  1625.31
                             1730.63  1844.40  1933.19  2016.82  2057.57
                             2146.49  2160.77  2178.31  2576.95  2679.57
                             4426.75  4474.49  4538.03  4539.74  4570.93
                             4924.85  5559.08

 Zero-point correction=                           0.111420 (Hartree/Particle)
 Thermal correction to Energy=                    0.120170
 Thermal correction to Enthalpy=                  0.121114
 Thermal correction to Gibbs Free Energy=         0.077384
 Sum of electronic and zero-point Energies=           -420.114416
 Sum of electronic and thermal Energies=              -420.105666
 Sum of electronic and thermal Enthalpies=            -420.104722
 Sum of electronic and thermal Free Energies=         -420.148451

                     E (Thermal)             CV                S
                      KCal/Mol        Cal/Mol-Kelvin    Cal/Mol-Kelvin
 Total                   75.408             30.247             92.036
 Electronic               0.000              0.000              1.377
 Translational            0.889              2.981             40.136
 Rotational               0.889              2.981             28.349
 Vibrational             73.630             24.285             22.174
 Vibration     1          0.602              1.954              3.593
 Vibration     2          0.607              1.939              3.221
 Vibration     3          0.614              1.916              2.837
 Vibration     4          0.634              1.853              2.223
 Vibration     5          0.656              1.784              1.825
 Vibration     6          0.663              1.763              1.732
 Vibration     7          0.685              1.695              1.482
 Vibration     8          0.721              1.592              1.203
 Vibration     9          0.741              1.536              1.084
 Vibration    10          0.811              1.356              0.789
 Vibration    11          0.961              1.027              0.446

 1\1\GINC-AJ\Freq\UM062X\6-311++G(d,p)\C5H7O3(2)\AAYUSH\16-Aug-2025\0\\
 # freq 6-311++g(d,p) m062x\\Title Card Required\\0,2\C,-2.70873,-0.493
 715,-0.445595\H,-3.739483,-0.535939,-0.72273\C,-1.555528,-0.061244,-0.
 115622\C,-0.167215,-0.533539,0.225655\O,0.16192,-0.898748,1.31778\O,0.
 637728,-0.341604,-0.810772\C,2.053306,-0.426074,-0.539973\C,2.540059,0
 .84311,0.131535\H,2.502927,-0.563854,-1.521409\H,2.241426,-1.306768,0.
 074789\H,3.621891,0.792473,0.269341\H,2.304001,1.711886,-0.484001\H,2.
 072001,0.964429,1.108829\O,-1.364039,1.565925,0.080945\H,-1.973016,1.7

 Normal termination of Gaussian 16 at Sat Aug 16 19:27:30 2025.
