 Gaussian 16, Revision A.03,
 Gaussian 16:  ES64L-G16RevA.03 25-Dec-2016

 --------------------------
 # freq 6-311++g(d,p) m062x
 --------------------------

 -------------------
 Title Card Required
 -------------------
 Symbolic Z-matrix:
 Charge =  0 Multiplicity = 2

                         Standard orientation:
 ---------------------------------------------------------------------
 Center     Atomic      Atomic             Coordinates (Angstroms)
 Number     Number       Type             X           Y           Z
 ---------------------------------------------------------------------
      1          6           0       -2.775994   -0.498105   -0.451719
      2          1           0       -3.801325   -0.576805   -0.732624
      3          6           0       -1.616354   -0.189017   -0.129368
      4          6           0       -0.220551   -0.562605    0.221600
      5          8           0        0.107048   -0.937357    1.310304
      6          8           0        0.581329   -0.351040   -0.811581
      7          6           0        1.996658   -0.438878   -0.541161
      8          6           0        2.482646    0.820463    0.148401
      9          1           0        2.446271   -0.562855   -1.524434
     10          1           0        2.184332   -1.328360    0.061098
     11          1           0        3.564473    0.768465    0.285765
     12          1           0        2.246136    1.697656   -0.454838
     13          1           0        2.013873    0.927566    1.126953
     14          8           0       -1.415644    1.605044    0.114685
     15          1           0       -2.034057    1.750008    0.844297
 ---------------------------------------------------------------------

 SCF Done:  E(UM062X) =  -420.208304442     A.U. after   21 cycles

 The electronic state is 2-A.
 Alpha  occ. eigenvalues --  -19.68239 -19.64332 -19.63246 -10.70610 -10.62299
 Alpha  occ. eigenvalues --  -10.60424 -10.59641 -10.53369  -1.25822  -1.16538
 Alpha  occ. eigenvalues --   -1.10797  -0.91516  -0.87719  -0.78263  -0.70960
 Alpha  occ. eigenvalues --   -0.64704  -0.62467  -0.58799  -0.57618  -0.53358
 Alpha  occ. eigenvalues --   -0.53156  -0.49692  -0.48182  -0.46022  -0.45123
 Alpha  occ. eigenvalues --   -0.41768  -0.40347  -0.39667  -0.38429  -0.36613
 Alpha  occ. eigenvalues --   -0.32011
 Alpha virt. eigenvalues --   -0.00278   0.00152   0.00494   0.01437   0.02396
 Alpha virt. eigenvalues --    0.02691   0.03071   0.04263   0.05745   0.06127
 Alpha virt. eigenvalues --    0.07055   0.07635   0.08352   0.09938   0.10493

  Beta  occ. eigenvalues --  -19.68238 -19.63439 -19.63261 -10.70561 -10.62448
  Beta  occ. eigenvalues --  -10.60423 -10.59153 -10.53370  -1.25802  -1.16560
  Beta  occ. eigenvalues --   -1.07601  -0.90368  -0.86884  -0.77724  -0.70316
  Beta  occ. eigenvalues --   -0.64488  -0.61712  -0.58691  -0.57236  -0.53137
  Beta  occ. eigenvalues --   -0.51814  -0.48871  -0.46817  -0.45223  -0.41734
  Beta  occ. eigenvalues --   -0.41549  -0.39451  -0.38497  -0.38246  -0.35234
  Beta virt. eigenvalues --   -0.09665  -0.00186   0.00466   0.01307   0.01894
  Beta virt. eigenvalues --    0.02413   0.02767   0.03250   0.04301   0.05741
  Beta virt. eigenvalues --    0.06059   0.07163   0.07492   0.08421   0.09913

 Mulliken charges and spin densities:
               1          2
     1  C   -0.091574   0.835983
     2  H    0.218182  -0.027486
     3  C    0.308920  -0.318575
     4  C   -0.456502   0.058532
     5  O   -0.205303  -0.007490
     6  O    0.049912   0.001923
     7  C   -0.280006   0.000944
     8  C   -0.417905   0.002729
     9  H    0.195586   0.000296
    10  H    0.188421  -0.000100
    11  H    0.166832  -0.000082
    12  H    0.174162  -0.000472
    13  H    0.189564  -0.001000
    14  O   -0.282765   0.460971
    15  H    0.242474  -0.006173
 Sum of Mulliken charges =  -0.00000   1.00000

 Dipole moment (field-independent basis, Debye):
    X=             -0.7351    Y=             -0.6344    Z=             -0.8383  Tot=              1.2828
 Quadrupole moment (field-independent basis, Debye-Ang):
   XX=            -29.7374   YY=            -50.0099   ZZ=            -50.9690
   XY=              1.1091   XZ=             -1.4243   YZ=              4.9749

  Exact polarizability:  89.183   6.926  70.672   4.037   2.712  59.405
 Approx polarizability:  93.311   9.490  82.742   6.387   0.798  76.883

 ******    1 imaginary frequencies (negative Signs) ******

                      1                      2                      3
                      A                      A                      A
 Frequencies --   -664.6647                79.4755                89.8527
 Red. masses --     11.8936                 3.1669                 4.5516
 Frc consts  --      3.0958                 0.0118                 0.0217
 IR Inten    --      0.9228                 1.6456                 6.6506

                      4                      5                      6
                      A                      A                      A
 Frequencies --    116.9264               176.8116               201.6407
 Red. masses --      3.0784                 1.8635                 1.3176
 Frc consts  --      0.0248                 0.0343                 0.0316
 IR Inten    --      1.5714                29.0453                55.1743

                      7                      8                      9
                      A                      A                      A
 Frequencies --    231.8057               240.6194               290.0714
 Red. masses --      2.7198                 2.7402                 2.2598
 Frc consts  --      0.0861                 0.0935                 0.1120
 IR Inten    --      0.5552                 3.4309                11.2817

                     10                     11                     12
                      A                      A                      A
 Frequencies --    339.0541               430.1556               445.6817
 Red. masses --      3.1099                 1.8292                 2.6228
 Frc consts  --      0.2106                 0.1994                 0.3069
 IR Inten    --     10.5924                14.0997                24.2418

                     13                     14                     15
                      A                      A                      A
 Frequencies --    575.7600               618.4531               703.1212
 Red. masses --      3.9643                 6.1952                 1.3541
 Frc consts  --      0.7743                 1.3961                 0.3944
 IR Inten    --      5.5145                13.1891                40.5578

                     16                     17                     18
                      A                      A                      A
 Frequencies --    771.6606               802.0977               894.7397
 Red. masses --     10.2467                 1.2120                 3.2146
 Frc consts  --      3.5949                 0.4594                 1.5162
 IR Inten    --     25.9702                 4.9692                16.9511

                     19                     20                     21
                      A                      A                      A
 Frequencies --    918.5748               973.0821              1070.2481
 Red. masses --      2.5492                 1.1816                 3.9918
 Frc consts  --      1.2673                 0.6592                 2.6940
 IR Inten    --      3.1111                56.6310                30.3999

                     22                     23                     24
                      A                      A                      A
 Frequencies --   1129.2558              1203.3670              1283.2687
 Red. masses --      2.0793                 1.7717                 3.8837
 Frc consts  --      1.5622                 1.5116                 3.7682
 IR Inten    --     21.4819                 7.9949               518.4728

                     25                     26                     27
                      A                      A                      A
 Frequencies --   1344.6480              1402.2033              1430.7385
 Red. masses --      1.2389                 1.2811                 1.3682
 Frc consts  --      1.3198                 1.4841                 1.6502
 IR Inten    --     85.7125                21.3105                12.8293

                     28                     29                     30
                      A                      A                      A
 Frequencies --   1491.5001              1501.9229              1514.6276
 Red. masses --      1.0400                 1.0537                 1.0934
 Frc consts  --      1.3631                 1.4005                 1.4779
 IR Inten    --     10.7939                 1.0214                19.8645

                     31                     32                     33
                      A                      A                      A
 Frequencies --   1845.7881              1944.4431              3076.8186
 Red. masses --     11.2746                 7.2558                 1.0353
 Frc consts  --     22.6316                16.1631                 5.7747
 IR Inten    --    320.5071                48.2651                 8.8991

                     34                     35                     36
                      A                      A                      A
 Frequencies --   3109.3868              3154.2174              3155.4254
 Red. masses --      1.0608                 1.1011                 1.1052
 Frc consts  --      6.0429                 6.4543                 6.4834
 IR Inten    --     19.6576                16.2705                 0.1121

                     37                     38                     39
                      A                      A                      A
 Frequencies --   3176.9263              3455.9573              3842.9499
 Red. masses --      1.1074                 1.1307                 1.0677
 Frc consts  --      6.5855                 7.9564                 9.2904
 IR Inten    --     14.2743                80.9158                61.7430

 - Thermochemistry -
 -------------------
 Temperature   298.150 Kelvin.  Pressure   1.00000 Atm.
 Atom     1 has atomic number  6 and mass  12.00000

 Molecular mass:   115.03952 amu.
 Principal axes and moments of inertia in atomic units:
                           1         2         3
     Eigenvalues --   482.144811375.494761499.71120
           X            0.99993   0.01162  -0.00008
           Y           -0.01156   0.99585   0.09032
           Z            0.00113  -0.09031   0.99591
 This molecule is an asymmetric top.
 Rotational symmetry number  1.
 Warning -- assumption of classical behavior for rotation
           may cause significant error
 Rotational temperatures (Kelvin)      0.17964     0.06297     0.05775
 Rotational constants (GHZ):           3.74315     1.31207     1.20339
    1 imaginary frequencies ignored.
 Zero-point vibrational energy     293284.1 (Joules/Mol)
                                   70.09659 (Kcal/Mol)
 Warning -- explicit consideration of  13 degrees of freedom as
           vibrations may cause significant error
 Vibrational temperatures:    114.35   129.28   168.23   254.39   290.12
          (Kelvin)            333.52   346.20   417.35   487.82   618.90
                              641.24   828.39   889.82  1011.63  1110.25
                             1154.04  1287.33  1321.62  1400.05  1539.85
                             1624.75  1731.38  1846.34  1934.65  2017.46
                             2058.51  2145.94  2160.93  2179.21  2655.68
                             2797.62  4426.86  4473.71  4538.22  4539.95
                             4570.89  4972.35  5529.15

 Zero-point correction=                           0.111706 (Hartree/Particle)
 Thermal correction to Energy=                    0.121158
 Thermal correction to Enthalpy=                  0.122103
 Thermal correction to Gibbs Free Energy=         0.076757
 Sum of electronic and zero-point Energies=           -420.096598
 Sum of electronic and thermal Energies=              -420.087146
 Sum of electronic and thermal Enthalpies=            -420.086202
 Sum of electronic and thermal Free Energies=         -420.131548

                     E (Thermal)             CV                S
                      KCal/Mol        Cal/Mol-Kelvin    Cal/Mol-Kelvin
 Total                   76.028             32.305             95.439
 Electronic               0.000              0.000              1.377
 Translational            0.889              2.981             40.136
 Rotational               0.889              2.981             28.388
 Vibrational             74.251             26.343             25.538
 Vibration     1          0.600              1.963              3.904
 Vibration     2          0.602              1.956              3.663
 Vibration     3          0.608              1.935              3.151
 Vibration     4          0.628              1.871              2.362
 Vibration     5          0.639              1.838              2.118
 Vibration     6          0.653              1.792              1.865
 Vibration     7          0.658              1.778              1.798
 Vibration     8          0.686              1.692              1.474
 Vibration     9          0.719              1.597              1.217
 Vibration    10          0.791              1.405              0.858
 Vibration    11          0.805              1.370              0.809
 Vibration    12          0.932              1.084              0.493
 Vibration    13          0.978              0.993              0.419

 1\1\GINC-AJ\Freq\UM062X\6-311++G(d,p)\C5H7O3(2)\AAYUSH\16-Aug-2025\0\\
 # freq 6-311++g(d,p) m062x\\Title Card Required\\0,2\C,-2.719569,-0.47
 9153,-0.446876\H,-3.745116,-0.560973,-0.726097\C,-1.559501,-0.166493,-
 0.12955\C,-0.163818,-0.536231,0.225943\O,0.164058,-0.895784,1.319678\O
 ,0.63768,-0.340001,-0.810555\C,2.053081,-0.425176,-0.539663\C,2.54048,
 0.843408,0.13172\H,2.502062,-0.563454,-1.521317\H,2.240345,-1.306187,0
 .075046\H,3.622337,0.792462,0.269238\H,2.304369,1.712158,-0.483769\H,2
 .072323,0.964763,1.108903\O,-1.357179,1.63068,0.088939\H,-1.975079,1.7

 Normal termination of Gaussian 16 at Sat Aug 16 19:38:52 2025.
