 Gaussian 16, Revision A.03,
 Gaussian 16:  ES64L-G16RevA.03 25-Dec-2016

 -------------------
 # freq 6-31+g m062x
 -------------------

 -------------------
 Title Card Required
 -------------------
 Symbolic Z-matrix:
 Charge =  0 Multiplicity = 2

                         Standard orientation:
 ---------------------------------------------------------------------
 Center     Atomic      Atomic             Coordinates (Angstroms)
 Number     Number       Type             X           Y           Z
 ---------------------------------------------------------------------
      1          6           0       -2.770078   -0.504546   -0.457087
      2          1           0       -3.797726   -0.563547   -0.738100
      3          6           0       -1.613677   -0.125720   -0.121787
      4          6           0       -0.221779   -0.563399    0.216257
      5          8           0        0.105981   -0.951030    1.300635
      6          8           0        0.581918   -0.343990   -0.814623
      7          6           0        1.997368   -0.432740   -0.544493
      8          6           0        2.481652    0.820884    0.156962
      9          1           0        2.447778   -0.547002   -1.528573
     10          1           0        2.185918   -1.327451    0.049611
     11          1           0        3.563447    0.768584    0.294449
     12          1           0        2.244677    1.703432   -0.438244
     13          1           0        2.012414    0.918596    1.136300
     14          8           0       -1.420805    1.564219    0.123238
     15          1           0       -2.034180    1.726922    0.851452
 ---------------------------------------------------------------------

 SCF Done:  E(UM062X) =  -419.965570937     A.U. after   19 cycles

 The electronic state is 2-A.
 Alpha  occ. eigenvalues --  -19.70580 -19.67105 -19.66479 -10.72805 -10.64738
 Alpha  occ. eigenvalues --  -10.61398 -10.61230 -10.54175  -1.28186  -1.18825
 Alpha  occ. eigenvalues --   -1.12887  -0.92114  -0.88316  -0.78664  -0.71583
 Alpha  occ. eigenvalues --   -0.64814  -0.62710  -0.59409  -0.57868  -0.54153
 Alpha  occ. eigenvalues --   -0.53599  -0.49673  -0.48052  -0.46432  -0.45165
 Alpha  occ. eigenvalues --   -0.41821  -0.40584  -0.39617  -0.38165  -0.36440
 Alpha  occ. eigenvalues --   -0.31314
 Alpha virt. eigenvalues --    0.00440   0.01762   0.02093   0.02698   0.03713
 Alpha virt. eigenvalues --    0.04285   0.05613   0.06163   0.07701   0.08055
 Alpha virt. eigenvalues --    0.08843   0.08947   0.09857   0.11465   0.12083

  Beta  occ. eigenvalues --  -19.70576 -19.66488 -19.66456 -10.72737 -10.64919
  Beta  occ. eigenvalues --  -10.61396 -10.60588 -10.54176  -1.28150  -1.18819
  Beta  occ. eigenvalues --   -1.10748  -0.90945  -0.87435  -0.78096  -0.70817
  Beta  occ. eigenvalues --   -0.64598  -0.61684  -0.59032  -0.57614  -0.53575
  Beta  occ. eigenvalues --   -0.53020  -0.49024  -0.46951  -0.45398  -0.43220
  Beta  occ. eigenvalues --   -0.41705  -0.39272  -0.39026  -0.38163  -0.35039
  Beta virt. eigenvalues --   -0.09157   0.01338   0.01514   0.02248   0.02859
  Beta virt. eigenvalues --    0.03824   0.04254   0.05568   0.05969   0.07598
  Beta virt. eigenvalues --    0.07906   0.08630   0.08886   0.10056   0.11285

 Mulliken charges and spin densities:
               1          2
     1  C    0.375503   0.997170
     2  H    0.289877  -0.035682
     3  C   -0.395563  -0.338319
     4  C    0.019480   0.065411
     5  O   -0.347750  -0.002368
     6  O   -0.169941   0.001874
     7  C   -0.246883   0.001555
     8  C   -0.559844   0.000823
     9  H    0.221679  -0.000020
    10  H    0.235325  -0.000161
    11  H    0.204592  -0.000038
    12  H    0.230756   0.000031
    13  H    0.234928   0.000068
    14  O   -0.514200   0.317235
    15  H    0.422040  -0.007577
 Sum of Mulliken charges =  -0.00000   1.00000

 Dipole moment (field-independent basis, Debye):
    X=             -0.8301    Y=             -0.5307    Z=             -0.5614  Tot=              1.1339
 Quadrupole moment (field-independent basis, Debye-Ang):
   XX=            -29.5342   YY=            -50.6520   ZZ=            -52.0738
   XY=              0.4988   XZ=             -1.9124   YZ=              5.5235

  Exact polarizability:  84.092   6.363  64.618   3.198   1.591  56.868
 Approx polarizability:  84.692   9.593  72.867   5.812  -0.778  71.402

 ******    3 imaginary frequencies (negative Signs) ******

                      1                      2                      3
                      A                      A                      A
 Frequencies --   -500.8510              -467.9398               -66.0537
 Red. masses --      5.4580                 1.0819                 5.7005
 Frc consts  --      0.8067                 0.1396                 0.0147
 IR Inten    --     70.1620               114.4031                 3.5490

                      4                      5                      6
                      A                      A                      A
 Frequencies --     40.6508                58.5265               144.5156
 Red. masses --      2.7530                 3.4760                 1.7184
 Frc consts  --      0.0027                 0.0070                 0.0211
 IR Inten    --      2.2826                 8.5556                 5.2570

                      7                      8                      9
                      A                      A                      A
 Frequencies --    197.4604               200.1205               247.2292
 Red. masses --      1.4934                 1.7197                 5.4520
 Frc consts  --      0.0343                 0.0406                 0.1963
 IR Inten    --     18.3578                 4.8169                 1.9975

                     10                     11                     12
                      A                      A                      A
 Frequencies --    312.0835               347.0755               438.2837
 Red. masses --      3.0852                 8.1523                 3.6356
 Frc consts  --      0.1770                 0.5786                 0.4115
 IR Inten    --     16.1480                 1.4799                10.1934

                     13                     14                     15
                      A                      A                      A
 Frequencies --    578.9117               632.4460               713.8606
 Red. masses --      3.7337                 5.6115                 1.3366
 Frc consts  --      0.7373                 1.3224                 0.4013
 IR Inten    --     13.4973                17.2567                57.3358

                     16                     17                     18
                      A                      A                      A
 Frequencies --    730.1505               816.0072               893.0247
 Red. masses --     10.3738                 1.3268                 3.1456
 Frc consts  --      3.2585                 0.5205                 1.4780
 IR Inten    --     19.0548                 7.6275                19.5312

                     19                     20                     21
                      A                      A                      A
 Frequencies --    929.5702               992.6030              1104.8201
 Red. masses --      2.1745                 1.3210                 4.1138
 Frc consts  --      1.1071                 0.7668                 2.9586
 IR Inten    --      6.4014                40.1488                15.5231

                     22                     23                     24
                      A                      A                      A
 Frequencies --   1157.9279              1227.8140              1320.6858
 Red. masses --      2.0530                 1.7435                 2.1742
 Frc consts  --      1.6218                 1.5486                 2.2344
 IR Inten    --     18.5266                 6.2342               317.8726

                     25                     26                     27
                      A                      A                      A
 Frequencies --   1366.5249              1440.2008              1459.0929
 Red. masses --      1.6548                 1.3700                 1.2467
 Frc consts  --      1.8207                 1.6743                 1.5637
 IR Inten    --    226.2159                22.8824                19.8666

                     28                     29                     30
                      A                      A                      A
 Frequencies --   1526.7605              1536.8437              1545.3280
 Red. masses --      1.0411                 1.0527                 1.0906
 Frc consts  --      1.4298                 1.4649                 1.5345
 IR Inten    --     14.9309                 2.2843                24.9926

                     31                     32                     33
                      A                      A                      A
 Frequencies --   1884.1197              1936.0266              3108.9461
 Red. masses --      8.0759                 9.9683                 1.0351
 Frc consts  --     16.8912                22.0137                 5.8946
 IR Inten    --    122.3316               198.8646                11.7699

                     34                     35                     36
                      A                      A                      A
 Frequencies --   3140.0637              3190.8111              3191.3570
 Red. masses --      1.0602                 1.1036                 1.0992
 Frc consts  --      6.1590                 6.6199                 6.5962
 IR Inten    --     21.1071                 0.5365                18.8770

                     37                     38                     39
                      A                      A                      A
 Frequencies --   3213.1801              3484.4366              3871.9477
 Red. masses --      1.1054                 1.1280                 1.0671
 Frc consts  --      6.7243                 8.0689                 9.4257
 IR Inten    --     16.5955                66.2310                35.8340

 - Thermochemistry -
 -------------------
 Temperature   298.150 Kelvin.  Pressure   1.00000 Atm.
 Atom     1 has atomic number  6 and mass  12.00000

 Molecular mass:   115.03952 amu.
 Principal axes and moments of inertia in atomic units:
                           1         2         3
     Eigenvalues --   474.212351373.737761491.34060
           X            0.99993   0.01161   0.00017
           Y           -0.01157   0.99533   0.09579
           Z            0.00094  -0.09579   0.99540
 This molecule is an asymmetric top.
 Rotational symmetry number  1.
 Warning -- assumption of classical behavior for rotation
           may cause significant error
 Rotational temperatures (Kelvin)      0.18265     0.06305     0.05808
 Rotational constants (GHZ):           3.80577     1.31375     1.21015
    3 imaginary frequencies ignored.
 Zero-point vibrational energy     292961.9 (Joules/Mol)
                                   70.01958 (Kcal/Mol)
 Warning -- explicit consideration of  10 degrees of freedom as
           vibrations may cause significant error
 Vibrational temperatures:     58.49    84.21   207.93   284.10   287.93
          (Kelvin)            355.71   449.02   499.36   630.59   832.92
                              909.95  1027.09  1050.52  1174.05  1284.86
                             1337.44  1428.13  1589.59  1666.00  1766.55
                             1900.17  1966.12  2072.13  2099.31  2196.67
                             2211.18  2223.38  2710.83  2785.51  4473.08
                             4517.85  4590.87  4591.65  4623.05  5013.33
                             5570.87

 Zero-point correction=                           0.111583 (Hartree/Particle)
 Thermal correction to Energy=                    0.120243
 Thermal correction to Enthalpy=                  0.121187
 Thermal correction to Gibbs Free Energy=         0.076516
 Sum of electronic and zero-point Energies=           -419.853988
 Sum of electronic and thermal Energies=              -419.845328
 Sum of electronic and thermal Enthalpies=            -419.844383
 Sum of electronic and thermal Free Energies=         -419.889055

                     E (Thermal)             CV                S
                      KCal/Mol        Cal/Mol-Kelvin    Cal/Mol-Kelvin
 Total                   75.454             28.856             94.018
 Electronic               0.000              0.000              1.377
 Translational            0.889              2.981             40.136
 Rotational               0.889              2.981             28.365
 Vibrational             73.676             22.894             24.140
 Vibration     1          0.594              1.981              5.227
 Vibration     2          0.596              1.974              4.506
 Vibration     3          0.616              1.909              2.743
 Vibration     4          0.637              1.843              2.157
 Vibration     5          0.638              1.840              2.132
 Vibration     6          0.661              1.767              1.750
 Vibration     7          0.700              1.651              1.351
 Vibration     8          0.725              1.581              1.179
 Vibration     9          0.798              1.387              0.832
 Vibration    10          0.935              1.077              0.487

 Normal termination of Gaussian 16 at Fri Jun 20 14:11:22 2025.
