 Gaussian 16, Revision A.03,
 Gaussian 16:  ES64L-G16RevA.03 25-Dec-2016

 ----------------------------------------------------------------------
 # irc=(calcfc,maxpoints=10,maxcycle=900,stepsize=5) 6-311++g(d,p) m062
 x
 ----------------------------------------------------------------------

 -------------------
 Title Card Required
 -------------------
 Symbolic Z-matrix:
 Charge =  0 Multiplicity = 2

 SCF Done:  E(UM062X) =  -420.202229004     A.U. after   23 cycles
 SCF Done:  E(UM062X) =  -420.202401276     A.U. after   21 cycles
 SCF Done:  E(UM062X) =  -420.202847634     A.U. after   21 cycles
 SCF Done:  E(UM062X) =  -420.203473433     A.U. after   21 cycles
 SCF Done:  E(UM062X) =  -420.204201902     A.U. after   22 cycles
 SCF Done:  E(UM062X) =  -420.204969888     A.U. after   22 cycles
 SCF Done:  E(UM062X) =  -420.205729978     A.U. after   21 cycles
 SCF Done:  E(UM062X) =  -420.206453810     A.U. after   20 cycles
 SCF Done:  E(UM062X) =  -420.207064754     A.U. after   19 cycles
 SCF Done:  E(UM062X) =  -420.207668289     A.U. after   19 cycles
 SCF Done:  E(UM062X) =  -420.202434148     A.U. after   22 cycles
 SCF Done:  E(UM062X) =  -420.203103101     A.U. after   20 cycles
 SCF Done:  E(UM062X) =  -420.204295300     A.U. after   19 cycles
 SCF Done:  E(UM062X) =  -420.206033153     A.U. after   18 cycles
 SCF Done:  E(UM062X) =  -420.208304083     A.U. after   18 cycles
 SCF Done:  E(UM062X) =  -420.211071593     A.U. after   18 cycles
 SCF Done:  E(UM062X) =  -420.214282901     A.U. after   17 cycles
 SCF Done:  E(UM062X) =  -420.217871101     A.U. after   16 cycles
 SCF Done:  E(UM062X) =  -420.221754202     A.U. after   16 cycles
 SCF Done:  E(UM062X) =  -420.225834318     A.U. after   16 cycles

                          Input orientation:
 ---------------------------------------------------------------------
 Center     Atomic      Atomic             Coordinates (Angstroms)
 Number     Number       Type             X           Y           Z
 ---------------------------------------------------------------------
      1          8           0       -1.364042    1.565921    0.080944
      2          1           0       -1.973025    1.765600    0.802560
      3          6           0       -2.708728   -0.493715   -0.445604
      4          1           0       -3.739481   -0.535935   -0.722742
      5          6           0       -1.555527   -0.061246   -0.115624
      6          6           0       -0.167214   -0.533539    0.225659
      7          8           0        0.161918   -0.898737    1.317787
      8          8           0        0.637730   -0.341613   -0.810769
      9          6           0        2.053308   -0.426078   -0.539965
     10          6           0        2.540058    0.843118    0.131523
     11          1           0        2.502932   -0.563873   -1.521399
     12          1           0        2.241427   -1.306762    0.074811
     13          1           0        3.621889    0.792482    0.269339
     14          1           0        2.304005    1.711883   -0.484029
     15          1           0        2.071992    0.964454    1.108812
 ---------------------------------------------------------------------

 Alpha  occ. eigenvalues --  -19.68116 -19.64699 -19.63160 -10.70136 -10.63509
 Alpha  occ. eigenvalues --  -10.60357 -10.59379 -10.53388  -1.25644  -1.16354
 Alpha  occ. eigenvalues --   -1.12382  -0.90940  -0.87481  -0.78023  -0.70848
 Alpha  occ. eigenvalues --   -0.64566  -0.61712  -0.59211  -0.58112  -0.54354
 Alpha  occ. eigenvalues --   -0.52974  -0.49916  -0.48166  -0.46231  -0.45137
 Alpha  occ. eigenvalues --   -0.41730  -0.40763  -0.39424  -0.38333  -0.35919
 Alpha  occ. eigenvalues --   -0.31234
 Alpha virt. eigenvalues --   -0.00247   0.00394   0.01240   0.01318   0.02265
 Alpha virt. eigenvalues --    0.02718   0.03358   0.04418   0.05802   0.06164
 Alpha virt. eigenvalues --    0.07209   0.07767   0.08459   0.10067   0.10540

  Beta  occ. eigenvalues --  -19.68111 -19.64241 -19.63161 -10.70078 -10.63665
  Beta  occ. eigenvalues --  -10.60356 -10.58703 -10.53389  -1.25600  -1.16341
  Beta  occ. eigenvalues --   -1.10769  -0.89806  -0.86297  -0.77310  -0.69903
  Beta  occ. eigenvalues --   -0.64352  -0.60729  -0.58784  -0.57868  -0.53725
  Beta  occ. eigenvalues --   -0.52840  -0.48727  -0.47306  -0.45370  -0.44265
  Beta  occ. eigenvalues --   -0.41647  -0.39733  -0.38875  -0.38239  -0.34468
  Beta virt. eigenvalues --   -0.08296  -0.00246   0.00452   0.01489   0.02205
  Beta virt. eigenvalues --    0.02371   0.02767   0.03544   0.04475   0.05781
  Beta virt. eigenvalues --    0.05988   0.07306   0.07703   0.08491   0.09839

 Mulliken charges and spin densities:
               1          2
     1  O   -0.279626   0.215359
     2  H    0.260633   0.000896
     3  C   -0.019835   1.044815
     4  H    0.220692  -0.027426
     5  C    0.085601  -0.299383
     6  C   -0.318225   0.058576
     7  O   -0.209991   0.000664
     8  O    0.047222   0.004210
     9  C   -0.280075   0.001896
    10  C   -0.421068   0.001283
    11  H    0.195176   0.000223
    12  H    0.189754  -0.000316
    13  H    0.166201  -0.000081
    14  H    0.173692  -0.000196
    15  H    0.189850  -0.000519
 Sum of Mulliken charges =  -0.00000   1.00000

 Dipole moment (field-independent basis, Debye):
    X=             -0.6464    Y=             -0.2701    Z=             -0.7481  Tot=              1.0250
 Quadrupole moment (field-independent basis, Debye-Ang):
   XX=            -30.8029   YY=            -49.6639   ZZ=            -51.2215
   XY=              0.1788   XZ=             -1.7336   YZ=              4.8931

  Exact polarizability:   0.000   0.000   0.000   0.000   0.000   0.000
 Approx polarizability:  89.520   7.891  77.711   4.900  -0.088  76.603

 Normal termination of Gaussian 16 at Fri Jun 13 17:34:15 2025.
