 Gaussian 16, Revision A.03,
 Gaussian 16:  ES64L-G16RevA.03 25-Dec-2016

 -----------------------
 # ccsd(t)/6-311++g** sp
 -----------------------

 -------------------
 Title Card Required
 -------------------
 Symbolic Z-matrix:
 Charge =  0 Multiplicity = 2

                         Standard orientation:
 ---------------------------------------------------------------------
 Center     Atomic      Atomic             Coordinates (Angstroms)
 Number     Number       Type             X           Y           Z
 ---------------------------------------------------------------------
      1          8           0       -1.350926    1.656192    0.175308
      2          1           0       -2.135993    1.907542    0.719412
      3          6           0       -2.817445   -0.449288   -0.445818
      4          1           0       -3.844369   -0.539592   -0.719815
      5          6           0       -1.642131   -0.256971   -0.141368
      6          6           0       -0.256776   -0.570711    0.199023
      7          8           0        0.092145   -1.035466    1.280267
      8          8           0        0.575161   -0.299727   -0.827084
      9          6           0        2.020965   -0.418848   -0.571795
     10          6           0        2.510857    0.795938    0.195265
     11          1           0        2.446902   -0.481368   -1.571853
     12          1           0        2.199056   -1.348565   -0.026602
     13          1           0        3.596941    0.745750    0.317539
     14          1           0        2.259575    1.711154   -0.345447
     15          1           0        2.054031    0.836371    1.186993
 ---------------------------------------------------------------------

 SCF Done:  E(UHF) =  -417.971332364     A.U. after   36 cycles
 E2 =    -0.1259808808D+01 EUMP2 =    -0.41923114117191D+03
 CCSD(T)= -0.41935254049D+03

 The electronic state is 2-A.
 Alpha  occ. eigenvalues --  -20.62479 -20.60546 -20.55277 -11.41623 -11.29671
 Alpha  occ. eigenvalues --  -11.27792 -11.27218 -11.22257  -1.45694  -1.37604
 Alpha  occ. eigenvalues --   -1.35375  -1.07939  -1.03874  -0.92397  -0.83871
 Alpha  occ. eigenvalues --   -0.75602  -0.72845  -0.68765  -0.67904  -0.64998
 Alpha  occ. eigenvalues --   -0.63499  -0.62395  -0.57117  -0.55614  -0.53417
 Alpha  occ. eigenvalues --   -0.52536  -0.50113  -0.47150  -0.44983  -0.43269
 Alpha  occ. eigenvalues --   -0.42510
 Alpha virt. eigenvalues --    0.03539   0.04663   0.05619   0.06755   0.07121
 Alpha virt. eigenvalues --    0.08737   0.09721   0.10318   0.10914   0.11616
 Alpha virt. eigenvalues --    0.13421   0.13821   0.14628   0.15705   0.16741

  Beta  occ. eigenvalues --  -20.60537 -20.58810 -20.55823 -11.41188 -11.29674
  Beta  occ. eigenvalues --  -11.29340 -11.25358 -11.22259  -1.45877  -1.36263
  Beta  occ. eigenvalues --   -1.24651  -1.07714  -1.03148  -0.91072  -0.83218
  Beta  occ. eigenvalues --   -0.75139  -0.71909  -0.68406  -0.66863  -0.62592
  Beta  occ. eigenvalues --   -0.62276  -0.57506  -0.55090  -0.53492  -0.50508
  Beta  occ. eigenvalues --   -0.50196  -0.48047  -0.46694  -0.44501  -0.42258
  Beta virt. eigenvalues --    0.03599   0.04349   0.04716   0.06611   0.07119
  Beta virt. eigenvalues --    0.08005   0.08887   0.09788   0.10329   0.11708
  Beta virt. eigenvalues --    0.11948   0.13681   0.14508   0.15369   0.15923

 Mulliken charges and spin densities:
               1          2
     1  O   -0.184253   0.866173
     2  H    0.254501  -0.036741
     3  C   -0.835274   1.200368
     4  H    0.219635  -0.090785
     5  C    0.978505  -1.062883
     6  C   -0.342845   0.232035
     7  O   -0.289601  -0.113294
     8  O   -0.062606   0.003496
     9  C   -0.157273   0.000587
    10  C   -0.389215   0.002181
    11  H    0.166563   0.000046
    12  H    0.175677   0.000397
    13  H    0.137007  -0.000353
    14  H    0.149929  -0.000625
    15  H    0.179251  -0.000604
 Sum of Mulliken charges =  -0.00000   1.00000

 Dipole moment (field-independent basis, Debye):
    X=             -1.1681    Y=              0.8610    Z=             -1.0677  Tot=              1.8016
 Quadrupole moment (field-independent basis, Debye-Ang):
   XX=            -28.5408   YY=            -48.0682   ZZ=            -52.1130
   XY=             -1.7938   XZ=             -1.4998   YZ=              5.5209

 -0=-419.2771684\MP4SDQ=-419.2892594\CCSD=-419.2968322\CCSD(T)=-419.352
 Normal termination of Gaussian 16 at Sun Jun  8 08:51:20 2025.
