 Gaussian 16, Revision A.03,
 Gaussian 16:  ES64L-G16RevA.03 25-Dec-2016

 -----------------------------------------------------
 # opt=(calcfc,tight,ts,noeigentest) freq 6-31+g m062x
 -----------------------------------------------------

 -------------------
 Title Card Required
 -------------------
 Symbolic Z-matrix:
 Charge =  0 Multiplicity = 2

 SCF Done:  E(UM062X) =  -419.912341436     A.U. after   20 cycles
 SCF Done:  E(UM062X) =  -419.943590341     A.U. after   21 cycles
 SCF Done:  E(UM062X) =  -419.952503318     A.U. after   20 cycles
 SCF Done:  E(UM062X) =  -419.956068447     A.U. after   23 cycles
 SCF Done:  E(UM062X) =  -419.956334333     A.U. after   21 cycles
 SCF Done:  E(UM062X) =  -419.956470501     A.U. after   20 cycles
 SCF Done:  E(UM062X) =  -419.956553430     A.U. after   22 cycles
 SCF Done:  E(UM062X) =  -419.956625640     A.U. after   20 cycles
 SCF Done:  E(UM062X) =  -419.956679062     A.U. after   20 cycles
 SCF Done:  E(UM062X) =  -419.956734815     A.U. after   20 cycles
 SCF Done:  E(UM062X) =  -419.956793297     A.U. after   16 cycles
 SCF Done:  E(UM062X) =  -419.956793290     A.U. after   16 cycles
 SCF Done:  E(UM062X) =  -419.956793288     A.U. after   14 cycles
 SCF Done:  E(UM062X) =  -419.956793289     A.U. after   12 cycles
 SCF Done:  E(UM062X) =  -419.956793292     A.U. after   14 cycles
 SCF Done:  E(UM062X) =  -419.956793295     A.U. after   14 cycles
 SCF Done:  E(UM062X) =  -419.956793300     A.U. after   15 cycles
 SCF Done:  E(UM062X) =  -419.956793301     A.U. after   13 cycles
 SCF Done:  E(UM062X) =  -419.956793302     A.U. after   11 cycles
 Optimization completed.
    -- Stationary point found.
 Normal termination of Gaussian 16 at Fri Jun  6 15:34:55 2025.

 ------------------------------------------------------------------
 #N Geom=AllCheck Guess=TCheck SCRF=Check GenChk UM062X/6-31+G Freq
 ------------------------------------------------------------------

 Structure from the checkpoint file:  "ethyl_propiolate_ts1.chk"
 -------------------
 Title Card Required
 -------------------
 Charge =  0 Multiplicity = 2

                         Standard orientation:
 ---------------------------------------------------------------------
 Center     Atomic      Atomic             Coordinates (Angstroms)
 Number     Number       Type             X           Y           Z
 ---------------------------------------------------------------------
      1          8           0       -1.350926   -1.656192   -0.175308
      2          1           0       -2.135993   -1.907542   -0.719412
      3          6           0       -2.817445    0.449288    0.445818
      4          1           0       -3.844369    0.539592    0.719815
      5          6           0       -1.642131    0.256971    0.141368
      6          6           0       -0.256776    0.570711   -0.199023
      7          8           0        0.092145    1.035466   -1.280267
      8          8           0        0.575161    0.299727    0.827084
      9          6           0        2.020965    0.418848    0.571795
     10          6           0        2.510857   -0.795938   -0.195265
     11          1           0        2.446902    0.481368    1.571853
     12          1           0        2.199056    1.348565    0.026602
     13          1           0        3.596941   -0.745750   -0.317539
     14          1           0        2.259575   -1.711154    0.345447
     15          1           0        2.054031   -0.836371   -1.186993
 ---------------------------------------------------------------------

 SCF Done:  E(UM062X) =  -419.956793302     A.U. after    1 cycles

 The electronic state is 2-A.
 Alpha  occ. eigenvalues --  -19.70172 -19.68338 -19.66084 -10.73064 -10.62406
 Alpha  occ. eigenvalues --  -10.61492 -10.61005 -10.54162  -1.25806  -1.16652
 Alpha  occ. eigenvalues --   -1.12367  -0.91939  -0.87863  -0.78415  -0.71445
 Alpha  occ. eigenvalues --   -0.64265  -0.62418  -0.57971  -0.56852  -0.53429
 Alpha  occ. eigenvalues --   -0.52618  -0.49937  -0.48010  -0.45879  -0.44644
 Alpha  occ. eigenvalues --   -0.41654  -0.41272  -0.39099  -0.37629  -0.36641
 Alpha  occ. eigenvalues --   -0.33903
 Alpha virt. eigenvalues --   -0.01406   0.01633   0.02413   0.02990   0.03853
 Alpha virt. eigenvalues --    0.04391   0.05552   0.05801   0.07618   0.07899
 Alpha virt. eigenvalues --    0.08846   0.09004   0.09982   0.11755   0.12110

  Beta  occ. eigenvalues --  -19.70174 -19.66990 -19.66117 -10.73020 -10.62518
  Beta  occ. eigenvalues --  -10.61491 -10.60677 -10.54163  -1.25809  -1.16700
  Beta  occ. eigenvalues --   -1.07322  -0.91169  -0.87507  -0.78099  -0.71167
  Beta  occ. eigenvalues --   -0.63923  -0.61977  -0.57678  -0.56416  -0.53404
  Beta  occ. eigenvalues --   -0.50831  -0.48595  -0.46257  -0.44742  -0.41615
  Beta  occ. eigenvalues --   -0.39989  -0.39634  -0.37808  -0.37703  -0.35532
  Beta virt. eigenvalues --   -0.10446  -0.00183   0.01709   0.02424   0.02998
  Beta virt. eigenvalues --    0.03887   0.04586   0.05518   0.05788   0.07638
  Beta virt. eigenvalues --    0.07883   0.08813   0.09052   0.10143   0.11755

 Mulliken charges and spin densities:
               1          2
     1  O   -0.470743   0.715783
     2  H    0.403359  -0.026743
     3  C    0.435842   0.499416
     4  H    0.318349  -0.019187
     5  C   -0.279993  -0.222467
     6  C   -0.186835   0.068018
     7  O   -0.350122  -0.014998
     8  O   -0.181685  -0.000151
     9  C   -0.258233  -0.000577
    10  C   -0.558168   0.001097
    11  H    0.221293  -0.000015
    12  H    0.235196  -0.000127
    13  H    0.204153  -0.000048
    14  H    0.229689  -0.000020
    15  H    0.237898   0.000020
 Sum of Mulliken charges =  -0.00000   1.00000

 Dipole moment (field-independent basis, Debye):
    X=             -1.2371    Y=             -0.0510    Z=              0.9078  Tot=              1.5353
 Quadrupole moment (field-independent basis, Debye-Ang):
   XX=            -27.3275   YY=            -49.4668   ZZ=            -52.6543
   XY=              0.7167   XZ=              1.3283   YZ=              5.5279

  Exact polarizability:  89.669  -7.692  71.171  -4.497   2.481  57.637
 Approx polarizability:  95.357  -9.633  72.400  -8.379  -2.065  71.809

 ******    1 imaginary frequencies (negative Signs) ******

                      1                      2                      3
                      A                      A                      A
 Frequencies --   -600.5735                45.0049                60.5222
 Red. masses --     11.7043                 3.5125                 3.7576
 Frc consts  --      2.4873                 0.0042                 0.0081
 IR Inten    --     68.9411                 8.1126                 4.4227

                      4                      5                      6
                      A                      A                      A
 Frequencies --    102.7531               141.0086               168.6697
 Red. masses --      2.6915                 1.6085                 2.2525
 Frc consts  --      0.0167                 0.0188                 0.0378
 IR Inten    --     10.4483               100.9381                 2.5158

                      7                      8                      9
                      A                      A                      A
 Frequencies --    192.4786               222.6439               267.9210
 Red. masses --      3.9246                 1.5056                 3.7029
 Frc consts  --      0.0857                 0.0440                 0.1566
 IR Inten    --      5.2708                 0.4690                 5.3485

                     10                     11                     12
                      A                      A                      A
 Frequencies --    317.4384               428.0570               561.8167
 Red. masses --      2.9661                 3.8259                 3.8426
 Frc consts  --      0.1761                 0.4130                 0.7146
 IR Inten    --     10.7025                 5.3890                 5.6247

                     13                     14                     15
                      A                      A                      A
 Frequencies --    614.4612               640.6941               740.9682
 Red. masses --      3.3063                 1.5810                 1.4366
 Frc consts  --      0.7355                 0.3824                 0.4647
 IR Inten    --     26.6351                27.5351                78.3741

                     16                     17                     18
                      A                      A                      A
 Frequencies --    745.9280               795.1251               815.8966
 Red. masses --      6.0765                 1.1545                 1.5706
 Frc consts  --      1.9921                 0.4300                 0.6160
 IR Inten    --     34.3673                86.8530                 9.0714

                     19                     20                     21
                      A                      A                      A
 Frequencies --    874.3419               930.2855              1066.1881
 Red. masses --      2.3479                 2.9664                 3.6827
 Frc consts  --      1.0575                 1.5126                 2.4665
 IR Inten    --     11.1931                 4.1667                27.7050

                     22                     23                     24
                      A                      A                      A
 Frequencies --   1147.4362              1220.5845              1284.0097
 Red. masses --      1.9711                 1.6938                 5.0026
 Frc consts  --      1.5290                 1.4868                 4.8594
 IR Inten    --     25.4613                 3.9896               527.0768

                     25                     26                     27
                      A                      A                      A
 Frequencies --   1336.9242              1424.0737              1461.2687
 Red. masses --      1.1872                 1.3398                 1.2324
 Frc consts  --      1.2502                 1.6009                 1.5504
 IR Inten    --     50.3302                14.0129                21.1504

                     28                     29                     30
                      A                      A                      A
 Frequencies --   1527.6644              1533.1763              1542.6457
 Red. masses --      1.0447                 1.0867                 1.0574
 Frc consts  --      1.4365                 1.5050                 1.4826
 IR Inten    --     19.2013                 8.4166                18.7491

                     31                     32                     33
                      A                      A                      A
 Frequencies --   1734.2962              2107.0230              3090.0049
 Red. masses --     11.0621                 6.5088                 1.0354
 Frc consts  --     19.6035                17.0252                 5.8246
 IR Inten    --    298.5410                94.9907                12.2924

                     34                     35                     36
                      A                      A                      A
 Frequencies --   3126.2694              3169.7512              3177.1519
 Red. masses --      1.0616                 1.0990                 1.1015
 Frc consts  --      6.1129                 6.5059                 6.5510
 IR Inten    --     17.6080                17.6354                 3.6893

                     37                     38                     39
                      A                      A                      A
 Frequencies --   3204.0619              3500.4508              3596.6548
 Red. masses --      1.1062                 1.1462                 1.0676
 Frc consts  --      6.6911                 8.2748                 8.1367
 IR Inten    --     14.6641                66.2472                18.2949

 - Thermochemistry -
 -------------------
 Temperature   298.150 Kelvin.  Pressure   1.00000 Atm.
 Atom     1 has atomic number  8 and mass  15.99491

 Molecular mass:   115.03952 amu.
 Principal axes and moments of inertia in atomic units:
                           1         2         3
     Eigenvalues --   499.061311393.538841535.10984
           X            0.99996  -0.00894  -0.00095
           Y            0.00898   0.99677   0.07978
           Z            0.00024  -0.07978   0.99681
 This molecule is an asymmetric top.
 Rotational symmetry number  1.
 Warning -- assumption of classical behavior for rotation
           may cause significant error
 Rotational temperatures (Kelvin)      0.17355     0.06215     0.05642
 Rotational constants (GHZ):           3.61627     1.29508     1.17564
    1 imaginary frequencies ignored.
 Zero-point vibrational energy     292580.6 (Joules/Mol)
                                   69.92843 (Kcal/Mol)
 Warning -- explicit consideration of  12 degrees of freedom as
           vibrations may cause significant error
 Vibrational temperatures:     64.75    87.08   147.84   202.88   242.68
          (Kelvin)            276.93   320.33   385.48   456.72   615.88
                              808.33   884.07   921.82  1066.09  1073.22
                             1144.01  1173.89  1257.98  1338.47  1534.01
                             1650.90  1756.15  1847.40  1923.54  2048.92
                             2102.44  2197.97  2205.90  2219.52  2495.27
                             3031.54  4445.83  4498.00  4560.56  4571.21
                             4609.93  5036.37  5174.78

 Zero-point correction=                           0.111438 (Hartree/Particle)
 Thermal correction to Energy=                    0.121212
 Thermal correction to Enthalpy=                  0.122157
 Thermal correction to Gibbs Free Energy=         0.075199
 Sum of electronic and zero-point Energies=           -419.845355
 Sum of electronic and thermal Energies=              -419.835581
 Sum of electronic and thermal Enthalpies=            -419.834637
 Sum of electronic and thermal Free Energies=         -419.881594

                     E (Thermal)             CV                S
                      KCal/Mol        Cal/Mol-Kelvin    Cal/Mol-Kelvin
 Total                   76.062             32.385             98.830
 Electronic               0.000              0.000              1.377
 Translational            0.889              2.981             40.136
 Rotational               0.889              2.981             28.459
 Vibrational             74.284             26.424             28.858
 Vibration     1          0.595              1.979              5.026
 Vibration     2          0.597              1.973              4.440
 Vibration     3          0.605              1.947              3.401
 Vibration     4          0.615              1.912              2.790
 Vibration     5          0.625              1.881              2.450
 Vibration     6          0.634              1.850              2.204
 Vibration     7          0.648              1.807              1.937
 Vibration     8          0.673              1.732              1.610
 Vibration     9          0.704              1.640              1.323
 Vibration    10          0.790              1.409              0.865
 Vibration    11          0.918              1.114              0.520
 Vibration    12          0.974              1.001              0.425

                           ! Non-Optimized Parameters !
 Normal termination of Gaussian 16 at Fri Jun  6 15:35:28 2025.
