 Gaussian 16, Revision A.03,
 Gaussian 16:  ES64L-G16RevA.03 25-Dec-2016

 -----------------------
 # ccsd(t)/6-311++g** sp
 -----------------------

 -------------------
 Title Card Required
 -------------------
 Symbolic Z-matrix:
 Charge =  0 Multiplicity = 2

                         Standard orientation:
 ---------------------------------------------------------------------
 Center     Atomic      Atomic             Coordinates (Angstroms)
 Number     Number       Type             X           Y           Z
 ---------------------------------------------------------------------
      1          8           0        3.344934    0.787502    0.107708
      2          1           0        2.587588    1.364488   -0.089509
      3          6           0        2.408343   -0.985536    0.271597
      4          1           0        3.321200   -1.498006    0.477614
      5          6           0        1.231580   -0.746123    0.074766
      6          6           0       -0.011382   -0.045216   -0.206331
      7          8           0       -0.038521    1.141745   -0.403225
      8          8           0       -1.059653   -0.857440   -0.220845
      9          6           0       -2.341300   -0.241952   -0.478048
     10          6           0       -2.886712    0.419078    0.771996
     11          1           0       -2.968306   -1.069283   -0.804552
     12          1           0       -2.225853    0.473036   -1.293237
     13          1           0       -3.886521    0.808353    0.570883
     14          1           0       -2.954860   -0.303658    1.586285
     15          1           0       -2.250496    1.249111    1.079529
 ---------------------------------------------------------------------

 SCF Done:  E(UHF) =  -417.984119047     A.U. after   34 cycles
 E2 =    -0.1252079800D+01 EUMP2 =    -0.41923619884732D+03
 CCSD(T)= -0.41935488284D+03

 The electronic state is 2-A.
 Alpha  occ. eigenvalues --  -20.62261 -20.61270 -20.57211 -11.42113 -11.30438
 Alpha  occ. eigenvalues --  -11.27111 -11.26649 -11.23182  -1.49309  -1.39448
 Alpha  occ. eigenvalues --   -1.36923  -1.09444  -1.04687  -0.92727  -0.84448
 Alpha  occ. eigenvalues --   -0.77474  -0.73431  -0.70905  -0.67546  -0.65372
 Alpha  occ. eigenvalues --   -0.64287  -0.63724  -0.59397  -0.56299  -0.54837
 Alpha  occ. eigenvalues --   -0.54194  -0.51531  -0.50090  -0.48097  -0.43204
 Alpha  occ. eigenvalues --   -0.41955
 Alpha virt. eigenvalues --    0.03884   0.04750   0.05611   0.06292   0.07161
 Alpha virt. eigenvalues --    0.08492   0.08957   0.09381   0.11044   0.12292
 Alpha virt. eigenvalues --    0.12722   0.13689   0.14515   0.15018   0.16680

  Beta  occ. eigenvalues --  -20.62243 -20.57507 -20.56729 -11.42465 -11.30434
  Beta  occ. eigenvalues --  -11.28952 -11.24498 -11.23181  -1.49048  -1.38627
  Beta  occ. eigenvalues --   -1.23382  -1.07405  -1.04706  -0.93300  -0.84379
  Beta  occ. eigenvalues --   -0.77338  -0.73208  -0.70259  -0.67106  -0.63797
  Beta  occ. eigenvalues --   -0.61854  -0.58941  -0.55404  -0.54710  -0.51256
  Beta  occ. eigenvalues --   -0.50504  -0.48744  -0.46965  -0.44284  -0.42515
  Beta virt. eigenvalues --    0.03884   0.04697   0.05611   0.05796   0.06904
  Beta virt. eigenvalues --    0.07505   0.08551   0.09078   0.09967   0.11932
  Beta virt. eigenvalues --    0.12841   0.13109   0.13693   0.14436   0.14678

 Mulliken charges and spin densities:
               1          2
     1  O   -0.236279   0.898076
     2  H    0.271483  -0.033448
     3  C   -2.088762  -0.841777
     4  H    0.204527   0.076239
     5  C    2.287260   0.998607
     6  C   -0.341421  -0.189998
     7  O   -0.334259   0.088546
     8  O   -0.053398   0.002852
     9  C   -0.158243  -0.002543
    10  C   -0.358336   0.002934
    11  H    0.171008   0.000374
    12  H    0.182418   0.000043
    13  H    0.135132   0.000216
    14  H    0.146417  -0.000104
    15  H    0.172452  -0.000017
 Sum of Mulliken charges =  -0.00000   1.00000

 Dipole moment (field-independent basis, Debye):
    X=             -2.3339    Y=             -1.1291    Z=              0.0807  Tot=              2.5939
 Quadrupole moment (field-independent basis, Debye-Ang):
   XX=            -43.1583   YY=            -48.8439   ZZ=            -47.6801
   XY=             -3.7092   XZ=              1.2948   YZ=             -0.0654

 -0=-419.2818764\MP4SDQ=-419.2938718\CCSD=-419.3008757\CCSD(T)=-419.354
 Normal termination of Gaussian 16 at Wed Jun 11 00:30:44 2025.
