 Gaussian 16, Revision A.03,
 Gaussian 16:  ES64L-G16RevA.03 25-Dec-2016

 -----------------------
 # ccsd(t)/6-311++g** sp
 -----------------------

 -------------------
 Title Card Required
 -------------------
 Symbolic Z-matrix:
 Charge =  0 Multiplicity = 2

                         Standard orientation:
 ---------------------------------------------------------------------
 Center     Atomic      Atomic             Coordinates (Angstroms)
 Number     Number       Type             X           Y           Z
 ---------------------------------------------------------------------
      1          8           0        3.411411    0.738716    0.125607
      2          1           0        2.691975    1.389034   -0.075550
      3          6           0        2.425900   -0.980830    0.258750
      4          1           0        3.323516   -1.522901    0.460849
      5          6           0        1.242474   -0.715111    0.060910
      6          6           0        0.004244   -0.031159   -0.206804
      7          8           0       -0.052413    1.187145   -0.400572
      8          8           0       -1.066543   -0.852338   -0.229182
      9          6           0       -2.385470   -0.243730   -0.484231
     10          6           0       -2.931798    0.388128    0.783011
     11          1           0       -2.986195   -1.086637   -0.821984
     12          1           0       -2.273282    0.486614   -1.288691
     13          1           0       -3.943698    0.762273    0.601761
     14          1           0       -2.975437   -0.348533    1.588750
     15          1           0       -2.308629    1.228174    1.098223
 ---------------------------------------------------------------------

 SCF Done:  E(UHF) =  -417.976305360     A.U. after   32 cycles
 E2 =    -0.1255011799D+01 EUMP2 =    -0.41923131715817D+03
 CCSD(T)= -0.41935395318D+03

 The electronic state is 2-A.
 Alpha  occ. eigenvalues --  -20.61861 -20.61611 -20.57247 -11.42365 -11.30707
 Alpha  occ. eigenvalues --  -11.27731 -11.27303 -11.23278  -1.47030  -1.37488
 Alpha  occ. eigenvalues --   -1.36585  -1.09555  -1.04389  -0.92350  -0.84737
 Alpha  occ. eigenvalues --   -0.76634  -0.73301  -0.69886  -0.66302  -0.64942
 Alpha  occ. eigenvalues --   -0.64121  -0.63598  -0.58976  -0.56016  -0.54423
 Alpha  occ. eigenvalues --   -0.54213  -0.51488  -0.49723  -0.47970  -0.43383
 Alpha  occ. eigenvalues --   -0.42148
 Alpha virt. eigenvalues --    0.03910   0.04703   0.05660   0.06353   0.07132
 Alpha virt. eigenvalues --    0.08385   0.08494   0.09321   0.11031   0.12267
 Alpha virt. eigenvalues --    0.12771   0.13698   0.14427   0.14905   0.16702

  Beta  occ. eigenvalues --  -20.61856 -20.57898 -20.56533 -11.42827 -11.30700
  Beta  occ. eigenvalues --  -11.29798 -11.24942 -11.23277  -1.46683  -1.36253
  Beta  occ. eigenvalues --   -1.23273  -1.07189  -1.04501  -0.93109  -0.84644
  Beta  occ. eigenvalues --   -0.76439  -0.73116  -0.68989  -0.65805  -0.63531
  Beta  occ. eigenvalues --   -0.61643  -0.58387  -0.54906  -0.54180  -0.51239
  Beta  occ. eigenvalues --   -0.50776  -0.48220  -0.46226  -0.44463  -0.42461
  Beta virt. eigenvalues --    0.03906   0.04633   0.05656   0.05741   0.06868
  Beta virt. eigenvalues --    0.07498   0.07791   0.09085   0.09780   0.11893
  Beta virt. eigenvalues --    0.12896   0.13097   0.13608   0.14348   0.14590

 Mulliken charges and spin densities:
               1          2
     1  O   -0.240313   0.888368
     2  H    0.272247  -0.036849
     3  C   -2.171746  -0.951652
     4  H    0.205404   0.082351
     5  C    2.403388   1.114958
     6  C   -0.348506  -0.238435
     7  O   -0.344213   0.138767
     8  O   -0.078848   0.001214
     9  C   -0.149516  -0.002299
    10  C   -0.359024   0.002987
    11  H    0.171038   0.000445
    12  H    0.183821  -0.000063
    13  H    0.134626   0.000294
    14  H    0.147005  -0.000100
    15  H    0.174635   0.000014
 Sum of Mulliken charges =  -0.00000   1.00000

 Dipole moment (field-independent basis, Debye):
    X=             -2.1542    Y=             -1.2018    Z=              0.1117  Tot=              2.4693
 Quadrupole moment (field-independent basis, Debye-Ang):
   XX=            -42.4579   YY=            -48.8058   ZZ=            -47.7986
   XY=             -3.4560   XZ=              1.2335   YZ=             -0.0435

 -419.2789813\MP4SDQ=-419.289875\CCSD=-419.2984283\CCSD(T)=-419.3539532
 Normal termination of Gaussian 16 at Sun Jun  8 06:28:31 2025.
