 Gaussian 16, Revision A.03,
 Gaussian 16:  ES64L-G16RevA.03 25-Dec-2016

 ----------------------------------------------------------------------
 # irc=(calcfc,maxpoints=10,maxcycle=900,stepsize=5) 6-311++g(d,p) m062
 x
 ----------------------------------------------------------------------

 -------------------
 Title Card Required
 -------------------
 Symbolic Z-matrix:
 Charge =  0 Multiplicity = 2

 SCF Done:  E(UM062X) =  -420.205242316     A.U. after   24 cycles
 SCF Done:  E(UM062X) =  -420.205427273     A.U. after   20 cycles
 SCF Done:  E(UM062X) =  -420.205893375     A.U. after   20 cycles
 SCF Done:  E(UM062X) =  -420.206529440     A.U. after   20 cycles
 SCF Done:  E(UM062X) =  -420.207248618     A.U. after   20 cycles
 SCF Done:  E(UM062X) =  -420.207987998     A.U. after   20 cycles
 SCF Done:  E(UM062X) =  -420.208706535     A.U. after   20 cycles
 SCF Done:  E(UM062X) =  -420.209381601     A.U. after   21 cycles
 SCF Done:  E(UM062X) =  -420.209999409     A.U. after   21 cycles
 SCF Done:  E(UM062X) =  -420.210553667     A.U. after   21 cycles
 SCF Done:  E(UM062X) =  -420.205474591     A.U. after   23 cycles
 SCF Done:  E(UM062X) =  -420.206259254     A.U. after   20 cycles
 SCF Done:  E(UM062X) =  -420.207706967     A.U. after   18 cycles
 SCF Done:  E(UM062X) =  -420.209876677     A.U. after   17 cycles
 SCF Done:  E(UM062X) =  -420.212766642     A.U. after   16 cycles
 SCF Done:  E(UM062X) =  -420.216328695     A.U. after   16 cycles
 SCF Done:  E(UM062X) =  -420.220487415     A.U. after   16 cycles
 SCF Done:  E(UM062X) =  -420.225150783     A.U. after   16 cycles
 SCF Done:  E(UM062X) =  -420.230213560     A.U. after   14 cycles
 SCF Done:  E(UM062X) =  -420.235560294     A.U. after   14 cycles

                          Input orientation:
 ---------------------------------------------------------------------
 Center     Atomic      Atomic             Coordinates (Angstroms)
 Number     Number       Type             X           Y           Z
 ---------------------------------------------------------------------
      1          8           0        3.218888    0.681250    0.132432
      2          1           0        2.502255    1.301937   -0.066215
      3          6           0        2.420913   -0.786462    0.265135
      4          1           0        3.174979   -1.526931    0.486752
      5          6           0        1.148255   -0.768083    0.091331
      6          6           0       -0.079616   -0.035961   -0.192761
      7          8           0       -0.108866    1.151744   -0.389997
      8          8           0       -1.132178   -0.847731   -0.207921
      9          6           0       -2.413493   -0.232924   -0.464944
     10          6           0       -2.958957    0.428011    0.785177
     11          1           0       -3.040900   -1.060012   -0.791592
     12          1           0       -2.298677    0.482333   -1.280114
     13          1           0       -3.958795    0.817470    0.584451
     14          1           0       -3.026992   -0.294836    1.599419
     15          1           0       -2.322558    1.257920    1.092748
 ---------------------------------------------------------------------

 Alpha  occ. eigenvalues --  -19.69316 -19.64618 -19.64428 -10.71497 -10.64207
 Alpha  occ. eigenvalues --  -10.61388 -10.59606 -10.54471  -1.26725  -1.17551
 Alpha  occ. eigenvalues --   -1.11401  -0.92100  -0.88342  -0.79174  -0.72121
 Alpha  occ. eigenvalues --   -0.65733  -0.61977  -0.59721  -0.57635  -0.54472
 Alpha  occ. eigenvalues --   -0.53084  -0.50469  -0.49159  -0.47651  -0.46043
 Alpha  occ. eigenvalues --   -0.43228  -0.42731  -0.40588  -0.39590  -0.35421
 Alpha  occ. eigenvalues --   -0.31673
 Alpha virt. eigenvalues --   -0.03170  -0.00481   0.00790   0.01409   0.01797
 Alpha virt. eigenvalues --    0.02572   0.03832   0.05178   0.05851   0.06544
 Alpha virt. eigenvalues --    0.07022   0.07809   0.08185   0.08886   0.10426

  Beta  occ. eigenvalues --  -19.69290 -19.64286 -19.64199 -10.71535 -10.64342
  Beta  occ. eigenvalues --  -10.61384 -10.58874 -10.54470  -1.26559  -1.17205
  Beta  occ. eigenvalues --   -1.09857  -0.90530  -0.87285  -0.78951  -0.71550
  Beta  occ. eigenvalues --   -0.65538  -0.61410  -0.59266  -0.57252  -0.54180
  Beta  occ. eigenvalues --   -0.51807  -0.50094  -0.47489  -0.46025  -0.45008
  Beta  occ. eigenvalues --   -0.42868  -0.42426  -0.39608  -0.38821  -0.33903
  Beta virt. eigenvalues --   -0.08247  -0.02910  -0.00527   0.00815   0.01385
  Beta virt. eigenvalues --    0.02026   0.02721   0.04205   0.05229   0.05781
  Beta virt. eigenvalues --    0.06495   0.06994   0.08003   0.08483   0.08877

 Mulliken charges and spin densities:
               1          2
     1  O   -0.302406   0.217218
     2  H    0.255337  -0.004619
     3  C   -0.954512  -0.133419
     4  H    0.210823   0.031471
     5  C    1.064665   0.862351
     6  C   -0.274893  -0.013500
     7  O   -0.258925   0.040012
     8  O    0.022419   0.003248
     9  C   -0.269589  -0.006029
    10  C   -0.408812   0.002349
    11  H    0.198109   0.000012
    12  H    0.200036   0.000759
    13  H    0.164752   0.000271
    14  H    0.169109   0.000117
    15  H    0.183886  -0.000244
 Sum of Mulliken charges =  -0.00000   1.00000

 Dipole moment (field-independent basis, Debye):
    X=             -3.0421    Y=             -1.6509    Z=              0.1043  Tot=              3.4628
 Quadrupole moment (field-independent basis, Debye-Ang):
   XX=            -46.5377   YY=            -48.5518   ZZ=            -47.7705
   XY=             -5.3433   XZ=              1.0074   YZ=             -0.2294

  Exact polarizability:   0.000   0.000   0.000   0.000   0.000   0.000
 Approx polarizability: 104.663   5.222  87.238   5.095  -4.236  59.105

 Normal termination of Gaussian 16 at Fri Jun 13 17:06:22 2025.
