 Gaussian 16, Revision A.03,
 Gaussian 16:  ES64L-G16RevA.03 25-Dec-2016

 -----------------------------------------------------
 # opt=(calcfc,tight,ts,noeigentest) freq 6-31+g m062x
 -----------------------------------------------------

 -------------------
 Title Card Required
 -------------------
 Symbolic Z-matrix:
 Charge =  0 Multiplicity = 2

 SCF Done:  E(UM062X) =  -419.947929165     A.U. after   23 cycles
 SCF Done:  E(UM062X) =  -419.954955485     A.U. after   23 cycles
 SCF Done:  E(UM062X) =  -419.958699403     A.U. after   22 cycles
 SCF Done:  E(UM062X) =  -419.961249269     A.U. after   23 cycles
 SCF Done:  E(UM062X) =  -419.963070153     A.U. after   23 cycles
 SCF Done:  E(UM062X) =  -419.963923626     A.U. after   24 cycles
 SCF Done:  E(UM062X) =  -419.964907313     A.U. after   23 cycles
 SCF Done:  E(UM062X) =  -419.965226306     A.U. after   22 cycles
 SCF Done:  E(UM062X) =  -419.965417002     A.U. after   23 cycles
 SCF Done:  E(UM062X) =  -419.965530768     A.U. after   23 cycles
 SCF Done:  E(UM062X) =  -419.965559289     A.U. after   19 cycles
 SCF Done:  E(UM062X) =  -419.965559298     A.U. after   19 cycles
 SCF Done:  E(UM062X) =  -419.965559303     A.U. after   19 cycles
 SCF Done:  E(UM062X) =  -419.965559305     A.U. after   19 cycles
 SCF Done:  E(UM062X) =  -419.965559313     A.U. after   19 cycles
 SCF Done:  E(UM062X) =  -419.965559323     A.U. after   19 cycles
 SCF Done:  E(UM062X) =  -419.965559323     A.U. after   18 cycles
 SCF Done:  E(UM062X) =  -419.965559324     A.U. after   10 cycles
 SCF Done:  E(UM062X) =  -419.965559324     A.U. after   16 cycles
 Optimization completed.
    -- Stationary point found.
 Normal termination of Gaussian 16 at Fri Jun  6 15:20:03 2025.

 ------------------------------------------------------------------
 #N Geom=AllCheck Guess=TCheck SCRF=Check GenChk UM062X/6-31+G Freq
 ------------------------------------------------------------------

 Structure from the checkpoint file:  "ethyl_propiolate.chk"
 -------------------
 Title Card Required
 -------------------
 Charge =  0 Multiplicity = 2

                         Standard orientation:
 ---------------------------------------------------------------------
 Center     Atomic      Atomic             Coordinates (Angstroms)
 Number     Number       Type             X           Y           Z
 ---------------------------------------------------------------------
      1          8           0        1.835917    1.855419    0.154149
      2          1           0        2.757084    1.898924   -0.205205
      3          6           0        2.597670   -1.226844   -0.534320
      4          1           0        3.548028   -1.596532   -0.845769
      5          6           0        1.514739   -0.826981   -0.173896
      6          6           0        0.223446   -0.381968    0.306626
      7          8           0       -0.143070   -0.454407    1.477162
      8          8           0       -0.537331    0.114805   -0.696713
      9          6           0       -1.842539    0.683569   -0.328416
     10          6           0       -2.881743   -0.413131   -0.177593
     11          1           0       -2.065049    1.355968   -1.155838
     12          1           0       -1.713698    1.253493    0.594780
     13          1           0       -3.863280    0.030502    0.014929
     14          1           0       -2.944718   -1.007004   -1.092894
     15          1           0       -2.631927   -1.069750    0.658816
 ---------------------------------------------------------------------

 SCF Done:  E(UM062X) =  -419.965559324     A.U. after    1 cycles

 The electronic state is 2-A.
 Alpha  occ. eigenvalues --  -19.71667 -19.69734 -19.65621 -10.72570 -10.61144
 Alpha  occ. eigenvalues --  -10.59425 -10.59157 -10.54226  -1.25230  -1.16069
 Alpha  occ. eigenvalues --   -1.14969  -0.90705  -0.87204  -0.77874  -0.70873
 Alpha  occ. eigenvalues --   -0.63506  -0.61470  -0.57298  -0.56321  -0.54494
 Alpha  occ. eigenvalues --   -0.53317  -0.50444  -0.48209  -0.46070  -0.44464
 Alpha  occ. eigenvalues --   -0.43556  -0.41482  -0.38808  -0.37565  -0.37078
 Alpha  occ. eigenvalues --   -0.36100
 Alpha virt. eigenvalues --   -0.02051   0.01665   0.02679   0.03654   0.03837
 Alpha virt. eigenvalues --    0.04693   0.05457   0.05804   0.07977   0.08359
 Alpha virt. eigenvalues --    0.08794   0.09279   0.10003   0.12045   0.12250

  Beta  occ. eigenvalues --  -19.70009 -19.69734 -19.65627 -10.72564 -10.61144
  Beta  occ. eigenvalues --  -10.59412 -10.59134 -10.54226  -1.25233  -1.16078
  Beta  occ. eigenvalues --   -1.07048  -0.90646  -0.87157  -0.77841  -0.70845
  Beta  occ. eigenvalues --   -0.63482  -0.61406  -0.56957  -0.55559  -0.53322
  Beta  occ. eigenvalues --   -0.51998  -0.48634  -0.46175  -0.44460  -0.41511
  Beta  occ. eigenvalues --   -0.40023  -0.38703  -0.37702  -0.37121  -0.36066
  Beta virt. eigenvalues --   -0.10268  -0.01810   0.01742   0.02734   0.03720
  Beta virt. eigenvalues --    0.03949   0.04787   0.05527   0.05856   0.08048
  Beta virt. eigenvalues --    0.08382   0.08850   0.09456   0.10074   0.12065

 Mulliken charges and spin densities:
               1          2
     1  O   -0.413810   1.011149
     2  H    0.411162  -0.038093
     3  C    0.374815  -0.065473
     4  H    0.345628  -0.001881
     5  C    0.077467   0.060821
     6  C   -0.620256   0.033049
     7  O   -0.326880  -0.001017
     8  O   -0.183806   0.002400
     9  C   -0.182472  -0.000086
    10  C   -0.599733  -0.000680
    11  H    0.218815  -0.000049
    12  H    0.237712  -0.000130
    13  H    0.205851  -0.000012
    14  H    0.217823  -0.000008
    15  H    0.237683   0.000011
 Sum of Mulliken charges =  -0.00000   1.00000

 Dipole moment (field-independent basis, Debye):
    X=              1.4958    Y=              0.4512    Z=             -2.4389  Tot=              2.8964
 Quadrupole moment (field-independent basis, Debye-Ang):
   XX=            -27.3614   YY=            -45.2778   ZZ=            -54.8131
   XY=             -1.1510   XZ=             -3.1893   YZ=              0.8224

  Exact polarizability:  86.637 -11.042  55.289  -6.713   0.903  58.062
 Approx polarizability:  91.159 -14.820  56.381 -13.533   1.036  73.750

 ******    1 imaginary frequencies (negative Signs) ******

                      1                      2                      3
                      A                      A                      A
 Frequencies --   -146.8584                39.9743                51.1300
 Red. masses --      1.1241                 5.4659                 3.9917
 Frc consts  --      0.0143                 0.0051                 0.0061
 IR Inten    --    167.8329                 3.3637                 1.4506

                      4                      5                      6
                      A                      A                      A
 Frequencies --     86.4851               106.4486               128.9189
 Red. masses --      4.2132                 4.7737                 8.1100
 Frc consts  --      0.0186                 0.0319                 0.0794
 IR Inten    --      2.8209                 2.5109                 0.2496

                      7                      8                      9
                      A                      A                      A
 Frequencies --    167.9282               228.7469               252.1571
 Red. masses --      2.5334                 1.3144                 1.0605
 Frc consts  --      0.0421                 0.0405                 0.0397
 IR Inten    --      8.7094                 1.4775               196.1335

                     10                     11                     12
                      A                      A                      A
 Frequencies --    307.9219               341.6070               425.4763
 Red. masses --      3.0529                 3.6019                 4.0268
 Frc consts  --      0.1705                 0.2476                 0.4295
 IR Inten    --      5.3544                 9.6321                 3.2344

                     13                     14                     15
                      A                      A                      A
 Frequencies --    568.7445               625.1275               791.7554
 Red. masses --      4.0460                 5.4040                 2.5553
 Frc consts  --      0.7711                 1.2442                 0.9438
 IR Inten    --      4.2648                12.5888                84.1481

                     16                     17                     18
                      A                      A                      A
 Frequencies --    797.0696               815.6134               864.3875
 Red. masses --      1.4646                 1.4764                 2.2506
 Frc consts  --      0.5482                 0.5787                 0.9908
 IR Inten    --     73.1088                 2.5331                 8.9691

                     19                     20                     21
                      A                      A                      A
 Frequencies --    875.0993               931.7966              1074.4896
 Red. masses --      2.5574                 2.9621                 3.8404
 Frc consts  --      1.1539                 1.5153                 2.6123
 IR Inten    --      8.6001                 1.5881                25.2291

                     22                     23                     24
                      A                      A                      A
 Frequencies --   1146.8290              1220.6382              1287.9222
 Red. masses --      1.9663                 1.7033                 4.7335
 Frc consts  --      1.5237                 1.4952                 4.6261
 IR Inten    --     21.7047                 2.5368               574.7382

                     25                     26                     27
                      A                      A                      A
 Frequencies --   1341.9297              1427.5441              1457.0693
 Red. masses --      1.1966                 1.3352                 1.2412
 Frc consts  --      1.2696                 1.6032                 1.5525
 IR Inten    --     64.1361                14.2504                19.9882

                     28                     29                     30
                      A                      A                      A
 Frequencies --   1528.9709              1532.0452              1545.9991
 Red. masses --      1.0504                 1.0854                 1.0527
 Frc consts  --      1.4467                 1.5010                 1.4824
 IR Inten    --     17.0479                 8.3105                14.2157

                     31                     32                     33
                      A                      A                      A
 Frequencies --   1733.0881              2274.0949              3088.0058
 Red. masses --     11.1126                 5.8323                 1.0353
 Frc consts  --     19.6656                17.7709                 5.8168
 IR Inten    --    276.0211                62.1875                15.6797

                     34                     35                     36
                      A                      A                      A
 Frequencies --   3125.4493              3166.7250              3174.8279
 Red. masses --      1.0612                 1.0982                 1.1023
 Frc consts  --      6.1074                 6.4886                 6.5464
 IR Inten    --     14.5570                21.8823                 1.4336

                     37                     38                     39
                      A                      A                      A
 Frequencies --   3201.3981              3515.1824              3575.6109
 Red. masses --      1.1065                 1.1687                 1.0671
 Frc consts  --      6.6817                 8.5087                 8.0384
 IR Inten    --     15.9807                59.2628                 4.0054

 - Thermochemistry -
 -------------------
 Temperature   298.150 Kelvin.  Pressure   1.00000 Atm.
 Atom     1 has atomic number  8 and mass  15.99491

 Molecular mass:   115.03952 amu.
 Principal axes and moments of inertia in atomic units:
                           1         2         3
     Eigenvalues --   570.539271499.917721686.91583
           X            1.00000   0.00098  -0.00205
           Y           -0.00096   0.99995   0.00980
           Z            0.00206  -0.00979   0.99995
 This molecule is an asymmetric top.
 Rotational symmetry number  1.
 Warning -- assumption of classical behavior for rotation
           may cause significant error
 Rotational temperatures (Kelvin)      0.15181     0.05775     0.05134
 Rotational constants (GHZ):           3.16322     1.20323     1.06985
    1 imaginary frequencies ignored.
 Zero-point vibrational energy     292033.6 (Joules/Mol)
                                   69.79771 (Kcal/Mol)
 Warning -- explicit consideration of  12 degrees of freedom as
           vibrations may cause significant error
 Vibrational temperatures:     57.51    73.56   124.43   153.16   185.49
          (Kelvin)            241.61   329.12   362.80   443.03   491.50
                              612.17   818.30   899.42  1139.16  1146.81
                             1173.49  1243.66  1259.07  1340.65  1545.95
                             1650.03  1756.23  1853.03  1930.74  2053.92
                             2096.40  2199.85  2204.27  2224.35  2493.53
                             3271.92  4442.95  4496.82  4556.21  4567.87
                             4606.10  5057.56  5144.51

 Zero-point correction=                           0.111230 (Hartree/Particle)
 Thermal correction to Energy=                    0.121434
 Thermal correction to Enthalpy=                  0.122378
 Thermal correction to Gibbs Free Energy=         0.073868
 Sum of electronic and zero-point Energies=           -419.854330
 Sum of electronic and thermal Energies=              -419.844125
 Sum of electronic and thermal Enthalpies=            -419.843181
 Sum of electronic and thermal Free Energies=         -419.891692

                     E (Thermal)             CV                S
                      KCal/Mol        Cal/Mol-Kelvin    Cal/Mol-Kelvin
 Total                   76.201             32.856            102.100
 Electronic               0.000              0.000              1.377
 Translational            0.889              2.981             40.136
 Rotational               0.889              2.981             28.758
 Vibrational             74.424             26.894             31.828
 Vibration     1          0.594              1.981              5.260
 Vibration     2          0.595              1.977              4.773
 Vibration     3          0.601              1.959              3.738
 Vibration     4          0.605              1.944              3.333
 Vibration     5          0.611              1.924              2.962
 Vibration     6          0.625              1.882              2.459
 Vibration     7          0.651              1.797              1.889
 Vibration     8          0.664              1.759              1.715
 Vibration     9          0.698              1.659              1.373
 Vibration    10          0.721              1.592              1.205
 Vibration    11          0.787              1.415              0.874
 Vibration    12          0.925              1.099              0.507

                           ! Non-Optimized Parameters !
 Normal termination of Gaussian 16 at Fri Jun  6 15:20:35 2025.
