 Gaussian 16, Revision A.03,
 Gaussian 16:  ES64L-G16RevA.03 25-Dec-2016

 ------------------------------------------------------------
 # opt=(calcfc,tight,ts,noeigentest) freq 6-311++g(d,p) m062x
 ------------------------------------------------------------

 -------------------
 Title Card Required
 -------------------
 Symbolic Z-matrix:
 Charge =  0 Multiplicity = 2

 SCF Done:  E(UM062X) =  -420.196874740     A.U. after   23 cycles
 SCF Done:  E(UM062X) =  -420.204354532     A.U. after   20 cycles
 SCF Done:  E(UM062X) =  -420.207380035     A.U. after   20 cycles
 SCF Done:  E(UM062X) =  -420.208492817     A.U. after   20 cycles
 SCF Done:  E(UM062X) =  -420.208759801     A.U. after   20 cycles
 SCF Done:  E(UM062X) =  -420.208822980     A.U. after   20 cycles
 SCF Done:  E(UM062X) =  -420.208841682     A.U. after   20 cycles
 SCF Done:  E(UM062X) =  -420.208849654     A.U. after   20 cycles
 SCF Done:  E(UM062X) =  -420.208852151     A.U. after   19 cycles
 SCF Done:  E(UM062X) =  -420.208852775     A.U. after   18 cycles
 SCF Done:  E(UM062X) =  -420.208853301     A.U. after    8 cycles
 SCF Done:  E(UM062X) =  -420.208853303     A.U. after    9 cycles
 SCF Done:  E(UM062X) =  -420.208853304     A.U. after    8 cycles
 SCF Done:  E(UM062X) =  -420.208853304     A.U. after    7 cycles
 SCF Done:  E(UM062X) =  -420.208853304     A.U. after    6 cycles
 SCF Done:  E(UM062X) =  -420.208853304     A.U. after    5 cycles
 SCF Done:  E(UM062X) =  -420.208853305     A.U. after    9 cycles
 SCF Done:  E(UM062X) =  -420.208853305     A.U. after    8 cycles
 SCF Done:  E(UM062X) =  -420.208853305     A.U. after    7 cycles
 Optimization completed.
    -- Stationary point found.
 Normal termination of Gaussian 16 at Fri Jun  6 18:59:37 2025.

 ----------------------------------------------------------------------
 #N Geom=AllCheck Guess=TCheck SCRF=Check GenChk UM062X/6-311++G(d,p) F
 req
 ----------------------------------------------------------------------

 Structure from the checkpoint file:  "ethyl_propiolate.chk"
 -------------------
 Title Card Required
 -------------------
 Charge =  0 Multiplicity = 2

                         Standard orientation:
 ---------------------------------------------------------------------
 Center     Atomic      Atomic             Coordinates (Angstroms)
 Number     Number       Type             X           Y           Z
 ---------------------------------------------------------------------
      1          8           0        1.912196    1.856814    0.167648
      2          1           0        2.796451    1.724645   -0.212502
      3          6           0        2.549100   -1.250440   -0.535540
      4          1           0        3.494243   -1.627500   -0.849702
      5          6           0        1.480711   -0.837250   -0.180250
      6          6           0        0.179800   -0.381087    0.307758
      7          8           0       -0.171251   -0.492069    1.448243
      8          8           0       -0.533480    0.154411   -0.678091
      9          6           0       -1.814679    0.700673   -0.306352
     10          6           0       -2.863899   -0.388230   -0.195806
     11          1           0       -2.043843    1.401989   -1.106598
     12          1           0       -1.699487    1.244805    0.631817
     13          1           0       -3.836819    0.062032    0.010858
     14          1           0       -2.933657   -0.946322   -1.130789
     15          1           0       -2.622810   -1.074893    0.615662
 ---------------------------------------------------------------------

 SCF Done:  E(UM062X) =  -420.208853305     A.U. after    1 cycles

 The electronic state is 2-A.
 Alpha  occ. eigenvalues --  -19.68796 -19.67876 -19.62809 -10.70362 -10.60168
 Alpha  occ. eigenvalues --  -10.57346 -10.57067 -10.53487  -1.25341  -1.16059
 Alpha  occ. eigenvalues --   -1.14139  -0.90291  -0.86886  -0.77794  -0.70315
 Alpha  occ. eigenvalues --   -0.64157  -0.61368  -0.58176  -0.56886  -0.55458
 Alpha  occ. eigenvalues --   -0.53270  -0.50534  -0.48618  -0.46249  -0.45053
 Alpha  occ. eigenvalues --   -0.43558  -0.41707  -0.39229  -0.38109  -0.37285
 Alpha  occ. eigenvalues --   -0.36196
 Alpha virt. eigenvalues --   -0.01543  -0.00535   0.00580   0.01587   0.02598
 Alpha virt. eigenvalues --    0.02829   0.03815   0.04068   0.05663   0.06832
 Alpha virt. eigenvalues --    0.07397   0.07870   0.08501   0.09588   0.10648

  Beta  occ. eigenvalues --  -19.67875 -19.67212 -19.62813 -10.70356 -10.60169
  Beta  occ. eigenvalues --  -10.57328 -10.57051 -10.53487  -1.25341  -1.16065
  Beta  occ. eigenvalues --   -1.05940  -0.90238  -0.86819  -0.77761  -0.70279
  Beta  occ. eigenvalues --   -0.64147  -0.61296  -0.58073  -0.56240  -0.53294
  Beta  occ. eigenvalues --   -0.52747  -0.49054  -0.46363  -0.45051  -0.41737
  Beta  occ. eigenvalues --   -0.40162  -0.39156  -0.37967  -0.37585  -0.36128
  Beta virt. eigenvalues --   -0.09895  -0.01212  -0.00434   0.00599   0.01825
  Beta virt. eigenvalues --    0.02709   0.02852   0.03814   0.04113   0.05693
  Beta virt. eigenvalues --    0.06816   0.07509   0.07942   0.08677   0.09860

 Mulliken charges and spin densities:
               1          2
     1  O   -0.224148   0.992157
     2  H    0.246482  -0.021045
     3  C   -0.604477   0.032801
     4  H    0.194122  -0.002467
     5  C    1.178091   0.037985
     6  C   -0.904659  -0.041180
     7  O   -0.175952  -0.000094
     8  O    0.058625   0.005033
     9  C   -0.249421  -0.002045
    10  C   -0.430215  -0.000566
    11  H    0.193075  -0.000522
    12  H    0.202785   0.000079
    13  H    0.163097   0.000005
    14  H    0.164860   0.000168
    15  H    0.187733  -0.000310
 Sum of Mulliken charges =  -0.00000   1.00000

 Dipole moment (field-independent basis, Debye):
    X=              1.0237    Y=              0.1618    Z=             -2.3582  Tot=              2.5759
 Quadrupole moment (field-independent basis, Debye-Ang):
   XX=            -28.9415   YY=            -46.2831   ZZ=            -53.1829
   XY=             -2.2808   XZ=             -3.1016   YZ=              0.9950

  Exact polarizability:  88.226 -10.627  58.474  -6.289   0.899  59.359
 Approx polarizability:  93.966 -13.534  65.077 -11.780   1.130  76.472

 ******    1 imaginary frequencies (negative Signs) ******

                      1                      2                      3
                      A                      A                      A
 Frequencies --   -153.0031                39.6449                46.8709
 Red. masses --      1.1335                 5.4424                 4.5899
 Frc consts  --      0.0156                 0.0050                 0.0059
 IR Inten    --    125.3839                 1.7979                 0.8048

                      4                      5                      6
                      A                      A                      A
 Frequencies --     88.6000               106.6229               123.5147
 Red. masses --      4.3342                 7.6727                 4.4671
 Frc consts  --      0.0200                 0.0514                 0.0402
 IR Inten    --      6.3469                 2.8093                 0.1248

                      7                      8                      9
                      A                      A                      A
 Frequencies --    161.9825               231.5411               277.0158
 Red. masses --      2.7173                 1.2888                 1.3034
 Frc consts  --      0.0420                 0.0407                 0.0589
 IR Inten    --      7.1237                 1.4445               103.7102

                     10                     11                     12
                      A                      A                      A
 Frequencies --    282.6884               340.9056               421.0427
 Red. masses --      2.3035                 2.9466                 3.9582
 Frc consts  --      0.1085                 0.2018                 0.4134
 IR Inten    --     56.8981                12.2555                 1.2337

                     13                     14                     15
                      A                      A                      A
 Frequencies --    564.9581               606.7133               729.5920
 Red. masses --      4.2037                 7.3427                 1.3199
 Frc consts  --      0.7905                 1.5925                 0.4140
 IR Inten    --      3.6389                 7.3307                42.6355

                     16                     17                     18
                      A                      A                      A
 Frequencies --    768.9645               784.9304               800.6628
 Red. masses --      1.3447                 6.3195                 1.2412
 Frc consts  --      0.4685                 2.2940                 0.4688
 IR Inten    --     28.4911                42.5571                 5.8856

                     19                     20                     21
                      A                      A                      A
 Frequencies --    896.0531               927.6914              1079.1125
 Red. masses --      3.1626                 2.8322                 4.1124
 Frc consts  --      1.4961                 1.4361                 2.8215
 IR Inten    --     14.8556                 6.4211                19.6154

                     22                     23                     24
                      A                      A                      A
 Frequencies --   1128.8365              1203.4028              1289.0430
 Red. masses --      2.0868                 1.7738                 3.8236
 Frc consts  --      1.5667                 1.5135                 3.7433
 IR Inten    --     19.1050                 5.7964               577.3017

                     25                     26                     27
                      A                      A                      A
 Frequencies --   1349.0104              1401.9570              1432.0084
 Red. masses --      1.2387                 1.2792                 1.3858
 Frc consts  --      1.3282                 1.4813                 1.6743
 IR Inten    --     98.3810                29.8400                 8.3339

                     28                     29                     30
                      A                      A                      A
 Frequencies --   1493.2669              1503.0018              1515.2663
 Red. masses --      1.0413                 1.0635                 1.0811
 Frc consts  --      1.3680                 1.4155                 1.4625
 IR Inten    --     10.3029                 2.1457                16.0536

                     31                     32                     33
                      A                      A                      A
 Frequencies --   1844.3796              2258.0779              3074.3405
 Red. masses --     12.0486                 5.7700                 1.0356
 Frc consts  --     24.1484                17.3341                 5.7667
 IR Inten    --    332.3761                53.3615                11.6548

                     34                     35                     36
                      A                      A                      A
 Frequencies --   3107.2286              3148.4637              3155.1398
 Red. masses --      1.0610                 1.1013                 1.1048
 Frc consts  --      6.0355                 6.4323                 6.4797
 IR Inten    --     15.8087                15.6668                 1.9344

                     37                     38                     39
                      A                      A                      A
 Frequencies --   3175.2233              3488.4662              3798.0960
 Red. masses --      1.1070                 1.1695                 1.0670
 Frc consts  --      6.5757                 8.3852                 9.0689
 IR Inten    --     15.3118                62.6445                23.1494

 - Thermochemistry -
 -------------------
 Temperature   298.150 Kelvin.  Pressure   1.00000 Atm.
 Atom     1 has atomic number  8 and mass  15.99491

 Molecular mass:   115.03952 amu.
 Principal axes and moments of inertia in atomic units:
                           1         2         3
     Eigenvalues --   568.667071483.471071681.15596
           X            1.00000  -0.00197  -0.00190
           Y            0.00199   0.99993   0.01156
           Z            0.00188  -0.01156   0.99993
 This molecule is an asymmetric top.
 Rotational symmetry number  1.
 Warning -- assumption of classical behavior for rotation
           may cause significant error
 Rotational temperatures (Kelvin)      0.15231     0.05839     0.05152
 Rotational constants (GHZ):           3.17363     1.21657     1.07351
    1 imaginary frequencies ignored.
 Zero-point vibrational energy     290957.6 (Joules/Mol)
                                   69.54054 (Kcal/Mol)
 Warning -- explicit consideration of  13 degrees of freedom as
           vibrations may cause significant error
 Vibrational temperatures:     57.04    67.44   127.48   153.41   177.71
          (Kelvin)            233.06   333.14   398.56   406.73   490.49
                              605.79   812.85   872.93  1049.72  1106.37
                             1129.34  1151.98  1289.22  1334.74  1552.60
                             1624.14  1731.43  1854.65  1940.93  2017.10
                             2060.34  2148.48  2162.48  2180.13  2653.65
                             3248.87  4423.29  4470.61  4529.94  4539.54
                             4568.44  5019.12  5464.61

 Zero-point correction=                           0.110820 (Hartree/Particle)
 Thermal correction to Energy=                    0.121115
 Thermal correction to Enthalpy=                  0.122059
 Thermal correction to Gibbs Free Energy=         0.073340
 Sum of electronic and zero-point Energies=           -420.098033
 Sum of electronic and thermal Energies=              -420.087738
 Sum of electronic and thermal Enthalpies=            -420.086794
 Sum of electronic and thermal Free Energies=         -420.135514

                     E (Thermal)             CV                S
                      KCal/Mol        Cal/Mol-Kelvin    Cal/Mol-Kelvin
 Total                   76.001             33.254            102.539
 Electronic               0.000              0.000              1.377
 Translational            0.889              2.981             40.136
 Rotational               0.889              2.981             28.741
 Vibrational             74.223             27.293             32.285
 Vibration     1          0.594              1.981              5.277
 Vibration     2          0.595              1.979              4.945
 Vibration     3          0.601              1.957              3.691
 Vibration     4          0.605              1.944              3.329
 Vibration     5          0.610              1.929              3.045
 Vibration     6          0.622              1.889              2.527
 Vibration     7          0.653              1.793              1.867
 Vibration     8          0.678              1.716              1.552
 Vibration     9          0.682              1.706              1.517
 Vibration    10          0.720              1.594              1.208
 Vibration    11          0.784              1.424              0.888
 Vibration    12          0.921              1.107              0.514
 Vibration    13          0.965              1.018              0.438

                           ! Non-Optimized Parameters !

 1\1\GINC-AJ\Freq\UM062X\6-311++G(d,p)\C5H7O3(2)\AAYUSH\06-Jun-2025\0\\
 #N Geom=AllCheck Guess=TCheck SCRF=Check GenChk UM062X/6-311++G(d,p) F
 req\\Title Card Required\\0,2\O,2.0165169022,1.9702738296,0.0993856001
 \H,2.8930430579,1.8041423146,-0.2853114034\C,2.5675213874,-1.172126290
 7,-0.5145020637\H,3.4994633096,-1.5825009639,-0.8263425301\C,1.5137289
 038,-0.7212628054,-0.1614367501\C,0.2300055416,-0.2175049831,0.3252736
 946\O,-0.1114771656,-0.2847929476,1.4720608222\O,-0.4801140142,0.30576
 10374,-0.6693854498\C,-1.7431149237,0.8955103126,-0.301842859\C,-2.818

 Normal termination of Gaussian 16 at Fri Jun  6 19:01:28 2025.
