 Gaussian 16, Revision A.03,
 Gaussian 16:  ES64L-G16RevA.03 25-Dec-2016

 -----------------------------------------------------
 # opt=(calcfc,tight,ts,noeigentest) freq 6-31+g m062x
 -----------------------------------------------------

 -------------------
 Title Card Required
 -------------------
 Symbolic Z-matrix:
 Charge =  0 Multiplicity = 2

 SCF Done:  E(UM062X) =  -419.949227380     A.U. after   21 cycles
 SCF Done:  E(UM062X) =  -419.954691572     A.U. after   22 cycles
 SCF Done:  E(UM062X) =  -419.955906079     A.U. after   24 cycles
 SCF Done:  E(UM062X) =  -419.955779307     A.U. after   23 cycles
 SCF Done:  E(UM062X) =  -419.956045801     A.U. after   20 cycles
 SCF Done:  E(UM062X) =  -419.955714834     A.U. after   23 cycles
 SCF Done:  E(UM062X) =  -419.955397639     A.U. after   23 cycles
 SCF Done:  E(UM062X) =  -419.955876379     A.U. after   21 cycles
 SCF Done:  E(UM062X) =  -419.956045747     A.U. after   23 cycles
 SCF Done:  E(UM062X) =  -419.956205628     A.U. after   20 cycles
 SCF Done:  E(UM062X) =  -419.956204561     A.U. after   19 cycles
 SCF Done:  E(UM062X) =  -419.956219360     A.U. after   19 cycles
 SCF Done:  E(UM062X) =  -419.956221311     A.U. after   18 cycles
 SCF Done:  E(UM062X) =  -419.956221396     A.U. after   18 cycles
 SCF Done:  E(UM062X) =  -419.956222228     A.U. after   17 cycles
 SCF Done:  E(UM062X) =  -419.956222349     A.U. after   16 cycles
 SCF Done:  E(UM062X) =  -419.956222404     A.U. after   16 cycles
 SCF Done:  E(UM062X) =  -419.956222402     A.U. after   15 cycles
 SCF Done:  E(UM062X) =  -419.956222399     A.U. after   15 cycles
 Optimization completed.
    -- Stationary point found.
 Normal termination of Gaussian 16 at Sat Jun  7 12:13:18 2025.

 ------------------------------------------------------------------
 #N Geom=AllCheck Guess=TCheck SCRF=Check GenChk UM062X/6-31+G Freq
 ------------------------------------------------------------------

 Structure from the checkpoint file:  "ethyl_propiolate.chk"
 -------------------
 Title Card Required
 -------------------
 Charge =  0 Multiplicity = 2

                         Standard orientation:
 ---------------------------------------------------------------------
 Center     Atomic      Atomic             Coordinates (Angstroms)
 Number     Number       Type             X           Y           Z
 ---------------------------------------------------------------------
      1          8           0        2.100506    1.375958    0.080528
      2          1           0        2.957453    1.271412    0.560693
      3          6           0        2.490718   -1.126703   -0.632268
      4          1           0        3.353641   -1.614346   -1.026432
      5          6           0        1.539713   -0.482949   -0.194001
      6          6           0        0.197283   -0.225769    0.320161
      7          8           0       -0.164412   -0.509610    1.458519
      8          8           0       -0.588677    0.345323   -0.615338
      9          6           0       -1.955575    0.718389   -0.214237
     10          6           0       -2.875372   -0.487907   -0.267930
     11          1           0       -2.228583    1.482524   -0.940350
     12          1           0       -1.908514    1.151440    0.787644
     13          1           0       -3.901728   -0.181085   -0.045355
     14          1           0       -2.857700   -0.936596   -1.264229
     15          1           0       -2.574505   -1.237088    0.468001
 ---------------------------------------------------------------------

 SCF Done:  E(UM062X) =  -419.956222399     A.U. after    1 cycles

 The electronic state is 2-A.
 Alpha  occ. eigenvalues --  -19.70268 -19.68249 -19.66120 -10.73103 -10.62368
 Alpha  occ. eigenvalues --  -10.61604 -10.60964 -10.54596  -1.25864  -1.16690
 Alpha  occ. eigenvalues --   -1.12291  -0.91952  -0.88063  -0.78497  -0.71657
 Alpha  occ. eigenvalues --   -0.64404  -0.62353  -0.57968  -0.56437  -0.54028
 Alpha  occ. eigenvalues --   -0.52909  -0.49949  -0.47934  -0.46208  -0.44788
 Alpha  occ. eigenvalues --   -0.41983  -0.41121  -0.39233  -0.37621  -0.36685
 Alpha  occ. eigenvalues --   -0.33807
 Alpha virt. eigenvalues --   -0.01431   0.01655   0.02536   0.02918   0.03922
 Alpha virt. eigenvalues --    0.04498   0.05414   0.05684   0.07803   0.08026
 Alpha virt. eigenvalues --    0.08312   0.09027   0.09584   0.11373   0.12061

  Beta  occ. eigenvalues --  -19.70271 -19.66896 -19.66151 -10.73060 -10.62480
  Beta  occ. eigenvalues --  -10.61604 -10.60638 -10.54596  -1.25869  -1.16738
  Beta  occ. eigenvalues --   -1.07223  -0.91211  -0.87692  -0.78187  -0.71386
  Beta  occ. eigenvalues --   -0.64076  -0.61905  -0.57652  -0.56104  -0.53851
  Beta  occ. eigenvalues --   -0.51305  -0.48522  -0.46584  -0.44785  -0.41999
  Beta  occ. eigenvalues --   -0.40021  -0.39484  -0.38139  -0.37437  -0.35531
  Beta virt. eigenvalues --   -0.10293  -0.00218   0.01727   0.02611   0.02906
  Beta virt. eigenvalues --    0.03973   0.04541   0.05451   0.05647   0.07817
  Beta virt. eigenvalues --    0.08132   0.08304   0.09066   0.09658   0.11321

 Mulliken charges and spin densities:
               1          2
     1  O   -0.456590   0.719084
     2  H    0.399716  -0.026743
     3  C    0.314121   0.501223
     4  H    0.317052  -0.019183
     5  C   -0.438951  -0.229791
     6  C    0.086306   0.069636
     7  O   -0.354139  -0.014402
     8  O   -0.203262  -0.000487
     9  C   -0.206930   0.000706
    10  C   -0.579454   0.000062
    11  H    0.223843  -0.000106
    12  H    0.236822  -0.000086
    13  H    0.206640   0.000122
    14  H    0.219292  -0.000022
    15  H    0.235534  -0.000014
 Sum of Mulliken charges =   0.00000   1.00000

 Dipole moment (field-independent basis, Debye):
    X=              0.7073    Y=             -1.0084    Z=             -1.1333  Tot=              1.6737
 Quadrupole moment (field-independent basis, Debye-Ang):
   XX=            -28.7639   YY=            -47.7794   ZZ=            -53.3022
   XY=             -5.9777   XZ=              0.9070   YZ=              4.8518

  Exact polarizability:  83.720  -6.159  76.176  -3.964   5.645  59.429
 Approx polarizability:  82.471 -13.763  81.736  -9.239   4.109  74.919

 ******    1 imaginary frequencies (negative Signs) ******

                      1                      2                      3
                      A                      A                      A
 Frequencies --   -602.6501                47.2965                71.0286
 Red. masses --     11.7222                 4.4640                 3.4738
 Frc consts  --      2.5084                 0.0059                 0.0103
 IR Inten    --     72.9977                 5.2649                 4.5803

                      4                      5                      6
                      A                      A                      A
 Frequencies --    102.3383               157.8653               177.3585
 Red. masses --      4.0253                 3.9254                 2.9518
 Frc consts  --      0.0248                 0.0576                 0.0547
 IR Inten    --      0.4762                26.7608                 3.5981

                      7                      8                      9
                      A                      A                      A
 Frequencies --    195.6011               230.6074               275.9151
 Red. masses --      1.2463                 1.3903                 3.5133
 Frc consts  --      0.0281                 0.0436                 0.1576
 IR Inten    --     84.4769                 2.5098                 8.4347

                     10                     11                     12
                      A                      A                      A
 Frequencies --    323.0817               414.5689               565.9021
 Red. masses --      2.8996                 3.8248                 3.7597
 Frc consts  --      0.1783                 0.3873                 0.7094
 IR Inten    --     13.5049                 0.9079                 7.2190

                     13                     14                     15
                      A                      A                      A
 Frequencies --    613.7390               637.7249               739.6464
 Red. masses --      3.1092                 1.6327                 1.4142
 Frc consts  --      0.6900                 0.3912                 0.4558
 IR Inten    --     26.1170                25.2547                77.1148

                     16                     17                     18
                      A                      A                      A
 Frequencies --    748.3895               796.8160               813.4884
 Red. masses --      6.9136                 1.1571                 1.5049
 Frc consts  --      2.2815                 0.4328                 0.5868
 IR Inten    --     38.0141                93.4980                 8.5024

                     19                     20                     21
                      A                      A                      A
 Frequencies --    873.4821               929.3064              1071.3499
 Red. masses --      2.4387                 3.0200                 3.7044
 Frc consts  --      1.0963                 1.5367                 2.5052
 IR Inten    --     10.6832                 2.9283                24.9889

                     22                     23                     24
                      A                      A                      A
 Frequencies --   1146.5836              1220.4141              1286.0569
 Red. masses --      1.9701                 1.6971                 4.8574
 Frc consts  --      1.5260                 1.4893                 4.7335
 IR Inten    --     20.8786                 3.1574               571.6285

                     25                     26                     27
                      A                      A                      A
 Frequencies --   1341.8958              1428.3373              1458.2406
 Red. masses --      1.1903                 1.3323                 1.2405
 Frc consts  --      1.2629                 1.6015                 1.5542
 IR Inten    --     59.6363                12.7902                20.0775

                     28                     29                     30
                      A                      A                      A
 Frequencies --   1529.1606              1532.8218              1545.6254
 Red. masses --      1.0457                 1.0900                 1.0536
 Frc consts  --      1.4406                 1.5089                 1.4830
 IR Inten    --     17.7648                 6.5185                13.7757

                     31                     32                     33
                      A                      A                      A
 Frequencies --   1733.0530              2108.8362              3088.3084
 Red. masses --     10.9636                 6.5103                 1.0352
 Frc consts  --     19.4011                17.0583                 5.8174
 IR Inten    --    289.7491                90.7084                13.9299

                     34                     35                     36
                      A                      A                      A
 Frequencies --   3126.2643              3167.1358              3174.8099
 Red. masses --      1.0616                 1.0983                 1.1021
 Frc consts  --      6.1132                 6.4909                 6.5449
 IR Inten    --     12.7775                20.0898                 2.2013

                     37                     38                     39
                      A                      A                      A
 Frequencies --   3203.5808              3501.7604              3599.1982
 Red. masses --      1.1064                 1.1462                 1.0676
 Frc consts  --      6.6901                 8.2811                 8.1482
 IR Inten    --     14.3816                66.5548                19.3839

 - Thermochemistry -
 -------------------
 Temperature   298.150 Kelvin.  Pressure   1.00000 Atm.
 Atom     1 has atomic number  8 and mass  15.99491

 Molecular mass:   115.03952 amu.
 Principal axes and moments of inertia in atomic units:
                           1         2         3
     Eigenvalues --   453.823411557.557931636.41417
           X            0.99999  -0.00235   0.00423
           Y            0.00186   0.99364   0.11259
           Z           -0.00447  -0.11258   0.99363
 This molecule is an asymmetric top.
 Rotational symmetry number  1.
 Warning -- assumption of classical behavior for rotation
           may cause significant error
 Rotational temperatures (Kelvin)      0.19085     0.05561     0.05293
 Rotational constants (GHZ):           3.97675     1.15870     1.10286
    1 imaginary frequencies ignored.
 Zero-point vibrational energy     292951.0 (Joules/Mol)
                                   70.01698 (Kcal/Mol)
 Warning -- explicit consideration of  12 degrees of freedom as
           vibrations may cause significant error
 Vibrational temperatures:     68.05   102.19   147.24   227.13   255.18
          (Kelvin)            281.43   331.79   396.98   464.84   596.47
                              814.21   883.03   917.54  1064.19  1076.77
                             1146.44  1170.43  1256.75  1337.06  1541.43
                             1649.68  1755.90  1850.35  1930.69  2055.06
                             2098.08  2200.12  2205.39  2223.81  2493.48
                             3034.14  4443.39  4498.00  4556.80  4567.84
                             4609.24  5038.25  5178.44

 Zero-point correction=                           0.111579 (Hartree/Particle)
 Thermal correction to Energy=                    0.121261
 Thermal correction to Enthalpy=                  0.122205
 Thermal correction to Gibbs Free Energy=         0.075612
 Sum of electronic and zero-point Energies=           -419.844643
 Sum of electronic and thermal Energies=              -419.834961
 Sum of electronic and thermal Enthalpies=            -419.834017
 Sum of electronic and thermal Free Energies=         -419.880610

                     E (Thermal)             CV                S
                      KCal/Mol        Cal/Mol-Kelvin    Cal/Mol-Kelvin
 Total                   76.093             32.330             98.063
 Electronic               0.000              0.000              1.377
 Translational            0.889              2.981             40.136
 Rotational               0.889              2.981             28.538
 Vibrational             74.315             26.368             28.012
 Vibration     1          0.595              1.979              4.927
 Vibration     2          0.598              1.968              4.125
 Vibration     3          0.604              1.947              3.409
 Vibration     4          0.621              1.894              2.575
 Vibration     5          0.628              1.870              2.356
 Vibration     6          0.636              1.846              2.174
 Vibration     7          0.652              1.794              1.874
 Vibration     8          0.678              1.718              1.559
 Vibration     9          0.708              1.629              1.294
 Vibration    10          0.778              1.439              0.911
 Vibration    11          0.922              1.105              0.512
 Vibration    12          0.973              1.003              0.427

 Optimization completed.
    -- Stationary point found.
 Normal termination of Gaussian 16 at Sat Jun  7 12:13:51 2025.
