 Gaussian 16, Revision A.03,
 Gaussian 16:  ES64L-G16RevA.03 25-Dec-2016

 -----------------------
 # ccsd(t)/6-311++g** sp
 -----------------------

 -------------------
 Title Card Required
 -------------------
 Symbolic Z-matrix:
 Charge =  0 Multiplicity = 2

                         Standard orientation:
 ---------------------------------------------------------------------
 Center     Atomic      Atomic             Coordinates (Angstroms)
 Number     Number       Type             X           Y           Z
 ---------------------------------------------------------------------
      1          8           0        2.100506    1.375958    0.080528
      2          1           0        2.957453    1.271412    0.560693
      3          6           0        2.490718   -1.126703   -0.632268
      4          1           0        3.353641   -1.614346   -1.026432
      5          6           0        1.539713   -0.482949   -0.194001
      6          6           0        0.197283   -0.225769    0.320161
      7          8           0       -0.164412   -0.509610    1.458519
      8          8           0       -0.588677    0.345323   -0.615338
      9          6           0       -1.955575    0.718389   -0.214237
     10          6           0       -2.875372   -0.487907   -0.267930
     11          1           0       -2.228583    1.482524   -0.940350
     12          1           0       -1.908514    1.151440    0.787644
     13          1           0       -3.901728   -0.181085   -0.045355
     14          1           0       -2.857700   -0.936596   -1.264229
     15          1           0       -2.574505   -1.237088    0.468001
 ---------------------------------------------------------------------

 SCF Done:  E(UHF) =  -417.971388291     A.U. after   36 cycles
 E2 =    -0.1259226161D+01 EUMP2 =    -0.41923061445195D+03
 CCSD(T)= -0.41935208485D+03

 The electronic state is 2-A.
 Alpha  occ. eigenvalues --  -20.62359 -20.60629 -20.55305 -11.41663 -11.29749
 Alpha  occ. eigenvalues --  -11.27768 -11.27193 -11.22507  -1.45733  -1.37483
 Alpha  occ. eigenvalues --   -1.35398  -1.07950  -1.04021  -0.92379  -0.84067
 Alpha  occ. eigenvalues --   -0.75674  -0.72789  -0.69037  -0.67138  -0.64912
 Alpha  occ. eigenvalues --   -0.63983  -0.62500  -0.57560  -0.55083  -0.53391
 Alpha  occ. eigenvalues --   -0.53001  -0.50225  -0.47035  -0.45168  -0.43274
 Alpha  occ. eigenvalues --   -0.42418
 Alpha virt. eigenvalues --    0.03546   0.04579   0.05733   0.06630   0.07052
 Alpha virt. eigenvalues --    0.08296   0.09376   0.10463   0.11181   0.12353
 Alpha virt. eigenvalues --    0.13449   0.13786   0.14386   0.14907   0.16794

  Beta  occ. eigenvalues --  -20.60623 -20.58686 -20.55847 -11.41231 -11.29752
  Beta  occ. eigenvalues --  -11.29321 -11.25330 -11.22507  -1.45924  -1.36288
  Beta  occ. eigenvalues --   -1.24513  -1.07748  -1.03284  -0.91063  -0.83427
  Beta  occ. eigenvalues --   -0.75195  -0.71870  -0.68776  -0.65712  -0.63461
  Beta  occ. eigenvalues --   -0.62338  -0.57964  -0.54792  -0.53420  -0.50844
  Beta  occ. eigenvalues --   -0.50142  -0.48180  -0.46583  -0.44542  -0.42263
  Beta virt. eigenvalues --    0.03640   0.04422   0.04602   0.06547   0.07039
  Beta virt. eigenvalues --    0.07957   0.08688   0.09472   0.10407   0.11723
  Beta virt. eigenvalues --    0.13010   0.13732   0.14197   0.14873   0.15801

 Mulliken charges and spin densities:
               1          2
     1  O   -0.175214   0.867669
     2  H    0.255554  -0.036020
     3  C   -0.582531   1.173536
     4  H    0.221377  -0.091600
     5  C    0.716268  -1.054973
     6  C   -0.363052   0.250286
     7  O   -0.291778  -0.112765
     8  O   -0.061156   0.002467
     9  C   -0.150265   0.002713
    10  C   -0.382299  -0.002109
    11  H    0.171620   0.000244
    12  H    0.183025   0.000161
    13  H    0.129158   0.000016
    14  H    0.144538   0.000048
    15  H    0.184755   0.000327
 Sum of Mulliken charges =  -0.00000   1.00000

 Dipole moment (field-independent basis, Debye):
    X=              0.9963    Y=             -0.1792    Z=             -1.3060  Tot=              1.6524
 Quadrupole moment (field-independent basis, Debye-Ang):
   XX=            -28.9093   YY=            -46.6816   ZZ=            -52.8446
   XY=             -4.3257   XZ=              1.0488   YZ=              4.6554

 PMP3-0=-419.2768486\MP4SDQ=-419.2888256\CCSD=-419.2964548\CCSD(T)=-419
 Normal termination of Gaussian 16 at Sun Jun  8 04:57:53 2025.
