 Gaussian 16, Revision A.03,
 Gaussian 16:  ES64L-G16RevA.03 25-Dec-2016

 ----------------------------------------------------------------------
 # irc=(calcfc,maxpoints=10,maxcycle=900,stepsize=5) 6-311++g(d,p) m062
 x
 ----------------------------------------------------------------------

 -------------------
 Title Card Required
 -------------------
 Symbolic Z-matrix:
 Charge =  0 Multiplicity = 2

 SCF Done:  E(UM062X) =  -420.201692582     A.U. after   23 cycles
 SCF Done:  E(UM062X) =  -420.201865972     A.U. after   21 cycles
 SCF Done:  E(UM062X) =  -420.202313829     A.U. after   21 cycles
 SCF Done:  E(UM062X) =  -420.202940178     A.U. after   21 cycles
 SCF Done:  E(UM062X) =  -420.203668027     A.U. after   20 cycles
 SCF Done:  E(UM062X) =  -420.204433886     A.U. after   20 cycles
 SCF Done:  E(UM062X) =  -420.205190498     A.U. after   21 cycles
 SCF Done:  E(UM062X) =  -420.205910059     A.U. after   21 cycles
 SCF Done:  E(UM062X) =  -420.206574672     A.U. after   21 cycles
 SCF Done:  E(UM062X) =  -420.207100477     A.U. after   19 cycles
 SCF Done:  E(UM062X) =  -420.201900095     A.U. after   22 cycles
 SCF Done:  E(UM062X) =  -420.202578602     A.U. after   20 cycles
 SCF Done:  E(UM062X) =  -420.203790238     A.U. after   19 cycles
 SCF Done:  E(UM062X) =  -420.205557949     A.U. after   18 cycles
 SCF Done:  E(UM062X) =  -420.207868565     A.U. after   18 cycles
 SCF Done:  E(UM062X) =  -420.210685246     A.U. after   18 cycles
 SCF Done:  E(UM062X) =  -420.213954746     A.U. after   17 cycles
 SCF Done:  E(UM062X) =  -420.217608010     A.U. after   16 cycles
 SCF Done:  E(UM062X) =  -420.221559174     A.U. after   16 cycles
 SCF Done:  E(UM062X) =  -420.225706670     A.U. after   16 cycles

                          Input orientation:
 ---------------------------------------------------------------------
 Center     Atomic      Atomic             Coordinates (Angstroms)
 Number     Number       Type             X           Y           Z
 ---------------------------------------------------------------------
      1          8           0        2.060013    1.232594   -0.030124
      2          1           0        2.725990    1.170762    0.665683
      3          6           0        2.365628   -1.198516   -0.561634
      4          1           0        3.261169   -1.658212   -0.919410
      5          6           0        1.529307   -0.323840   -0.158714
      6          6           0        0.105696   -0.187519    0.316029
      7          8           0       -0.233493   -0.357562    1.452476
      8          8           0       -0.656254    0.280301   -0.663344
      9          6           0       -1.989593    0.690849   -0.293614
     10          6           0       -2.922979   -0.499643   -0.209059
     11          1           0       -2.282002    1.379160   -1.084417
     12          1           0       -1.934644    1.227065    0.654565
     13          1           0       -3.937446   -0.155045    0.000778
     14          1           0       -2.932253   -1.043840   -1.154688
     15          1           0       -2.615542   -1.173360    0.590827
 ---------------------------------------------------------------------

 Alpha  occ. eigenvalues --  -19.68250 -19.64592 -19.63204 -10.70197 -10.63472
 Alpha  occ. eigenvalues --  -10.60491 -10.59337 -10.53747  -1.25726  -1.16403
 Alpha  occ. eigenvalues --   -1.12283  -0.90967  -0.87671  -0.77988  -0.71180
 Alpha  occ. eigenvalues --   -0.64711  -0.61608  -0.59167  -0.57529  -0.54990
 Alpha  occ. eigenvalues --   -0.53344  -0.49890  -0.48574  -0.46087  -0.45179
 Alpha  occ. eigenvalues --   -0.42236  -0.40582  -0.39411  -0.38434  -0.35932
 Alpha  occ. eigenvalues --   -0.31201
 Alpha virt. eigenvalues --   -0.00294   0.00272   0.01268   0.01615   0.02057
 Alpha virt. eigenvalues --    0.02687   0.03070   0.04114   0.05461   0.06731
 Alpha virt. eigenvalues --    0.07162   0.07844   0.08420   0.09029   0.10556

  Beta  occ. eigenvalues --  -19.68246 -19.64136 -19.63205 -10.70140 -10.63627
  Beta  occ. eigenvalues --  -10.60490 -10.58657 -10.53747  -1.25686  -1.16391
  Beta  occ. eigenvalues --   -1.10677  -0.89923  -0.86411  -0.77296  -0.70274
  Beta  occ. eigenvalues --   -0.64417  -0.60668  -0.58755  -0.57144  -0.54558
  Beta  occ. eigenvalues --   -0.53104  -0.49425  -0.46775  -0.45123  -0.44817
  Beta  occ. eigenvalues --   -0.41980  -0.39640  -0.38777  -0.38359  -0.34503
  Beta virt. eigenvalues --   -0.08219  -0.00283   0.00340   0.01661   0.02103
  Beta virt. eigenvalues --    0.02404   0.02771   0.03313   0.04212   0.05502
  Beta virt. eigenvalues --    0.06361   0.07316   0.07830   0.08137   0.08999

 Mulliken charges and spin densities:
               1          2
     1  O   -0.278353   0.213519
     2  H    0.262522   0.001218
     3  C    0.100694   1.029498
     4  H    0.226951  -0.027382
     5  C   -0.135112  -0.291873
     6  C   -0.223086   0.066202
     7  O   -0.219124   0.001459
     8  O    0.046672   0.003585
     9  C   -0.266654   0.002694
    10  C   -0.431761   0.001666
    11  H    0.198446   0.000177
    12  H    0.199358  -0.000589
    13  H    0.161755   0.000711
    14  H    0.165371  -0.000276
    15  H    0.192321  -0.000606
 Sum of Mulliken charges =  -0.00000   1.00000

 Dipole moment (field-independent basis, Debye):
    X=              0.0680    Y=             -1.0535    Z=             -0.8191  Tot=              1.3362
 Quadrupole moment (field-independent basis, Debye-Ang):
   XX=            -32.8410   YY=            -47.5101   ZZ=            -51.9031
   XY=             -5.9512   XZ=              2.2275   YZ=              3.9143

  Exact polarizability:   0.000   0.000   0.000   0.000   0.000   0.000
 Approx polarizability:  80.904  -8.664  84.658  -4.299   3.204  77.843

 Normal termination of Gaussian 16 at Fri Jun 13 17:15:34 2025.
