 Gaussian 16, Revision A.03,
 Gaussian 16:  ES64L-G16RevA.03 25-Dec-2016

 -----------------------------------------------------
 # opt=(calcfc,tight,ts,noeigentest) freq 6-31+g m062x
 -----------------------------------------------------

 -------------------
 Title Card Required
 -------------------
 Symbolic Z-matrix:
 Charge =  0 Multiplicity = 2

 SCF Done:  E(UM062X) =  -419.943898523     A.U. after   21 cycles
 SCF Done:  E(UM062X) =  -419.958253604     A.U. after   21 cycles
 SCF Done:  E(UM062X) =  -419.961705101     A.U. after   22 cycles
 SCF Done:  E(UM062X) =  -419.962102874     A.U. after   23 cycles
 SCF Done:  E(UM062X) =  -419.961881843     A.U. after   22 cycles
 SCF Done:  E(UM062X) =  -419.961867166     A.U. after   20 cycles
 SCF Done:  E(UM062X) =  -419.961910470     A.U. after   19 cycles
 SCF Done:  E(UM062X) =  -419.961960804     A.U. after   19 cycles
 SCF Done:  E(UM062X) =  -419.961972264     A.U. after   19 cycles
 SCF Done:  E(UM062X) =  -419.961979455     A.U. after   19 cycles
 SCF Done:  E(UM062X) =  -419.961982067     A.U. after   16 cycles
 SCF Done:  E(UM062X) =  -419.961983377     A.U. after   16 cycles
 SCF Done:  E(UM062X) =  -419.961986313     A.U. after   18 cycles
 SCF Done:  E(UM062X) =  -419.961986490     A.U. after   16 cycles
 SCF Done:  E(UM062X) =  -419.961986548     A.U. after   16 cycles
 SCF Done:  E(UM062X) =  -419.961986559     A.U. after   15 cycles
 SCF Done:  E(UM062X) =  -419.961986553     A.U. after   12 cycles
 Optimization completed.
    -- Stationary point found.
 Normal termination of Gaussian 16 at Fri Jun  6 15:28:00 2025.

 ------------------------------------------------------------------
 #N Geom=AllCheck Guess=TCheck SCRF=Check GenChk UM062X/6-31+G Freq
 ------------------------------------------------------------------

 Structure from the checkpoint file:  "ethyl_propiolate.chk"
 -------------------
 Title Card Required
 -------------------
 Charge =  0 Multiplicity = 2

                         Standard orientation:
 ---------------------------------------------------------------------
 Center     Atomic      Atomic             Coordinates (Angstroms)
 Number     Number       Type             X           Y           Z
 ---------------------------------------------------------------------
      1          8           0        2.655611   -1.447864    0.004461
      2          1           0        1.707508   -1.666766   -0.181541
      3          6           0        2.575397    0.515621    0.263257
      4          1           0        3.625829    0.590141    0.441394
      5          6           0        1.392001    0.811110    0.114726
      6          6           0       -0.030013    0.822694   -0.109216
      7          8           0       -0.760938    1.808283   -0.095945
      8          8           0       -0.472128   -0.447313   -0.351515
      9          6           0       -1.916996   -0.628788   -0.587514
     10          6           0       -2.669356   -0.658616    0.730148
     11          1           0       -1.967292   -1.578469   -1.118227
     12          1           0       -2.258641    0.182324   -1.234385
     13          1           0       -3.726922   -0.870264    0.546804
     14          1           0       -2.269223   -1.439038    1.381885
     15          1           0       -2.597818    0.305100    1.239657
 ---------------------------------------------------------------------

 SCF Done:  E(UM062X) =  -419.961986553     A.U. after    1 cycles

 The electronic state is 2-A.
 Alpha  occ. eigenvalues --  -19.71911 -19.67882 -19.67696 -10.74407 -10.62892
 Alpha  occ. eigenvalues --  -10.62724 -10.60971 -10.55598  -1.27044  -1.18111
 Alpha  occ. eigenvalues --   -1.11776  -0.93029  -0.88772  -0.79670  -0.72708
 Alpha  occ. eigenvalues --   -0.65279  -0.63010  -0.58948  -0.57140  -0.55094
 Alpha  occ. eigenvalues --   -0.52599  -0.50361  -0.49334  -0.47935  -0.46028
 Alpha  occ. eigenvalues --   -0.43277  -0.41855  -0.39757  -0.39237  -0.37359
 Alpha  occ. eigenvalues --   -0.33839
 Alpha virt. eigenvalues --   -0.03763   0.01417   0.02730   0.03044   0.03586
 Alpha virt. eigenvalues --    0.04293   0.05058   0.06226   0.07101   0.07706
 Alpha virt. eigenvalues --    0.08040   0.08391   0.08766   0.10777   0.11728

  Beta  occ. eigenvalues --  -19.71891 -19.67645 -19.66491 -10.74439 -10.62888
  Beta  occ. eigenvalues --  -10.62830 -10.60643 -10.55599  -1.26953  -1.17988
  Beta  occ. eigenvalues --   -1.06409  -0.92154  -0.88439  -0.79511  -0.72419
  Beta  occ. eigenvalues --   -0.65149  -0.62690  -0.58762  -0.56951  -0.54961
  Beta  occ. eigenvalues --   -0.50606  -0.49779  -0.47816  -0.46146  -0.43194
  Beta  occ. eigenvalues --   -0.40599  -0.40319  -0.39386  -0.38376  -0.35329
  Beta virt. eigenvalues --   -0.09834  -0.03785   0.01465   0.02835   0.03067
  Beta virt. eigenvalues --    0.03904   0.04476   0.05805   0.06392   0.07142
  Beta virt. eigenvalues --    0.07821   0.08088   0.08532   0.09026   0.10974

 Mulliken charges and spin densities:
               1          2
     1  O   -0.498144   0.753238
     2  H    0.427983  -0.027433
     3  C   -0.295141  -0.215105
     4  H    0.308536   0.020166
     5  C    0.534934   0.441392
     6  C   -0.102442   0.013034
     7  O   -0.378817   0.014971
     8  O   -0.303127  -0.002095
     9  C   -0.256585  -0.000192
    10  C   -0.569166   0.001511
    11  H    0.224085   0.000384
    12  H    0.238203  -0.000108
    13  H    0.211393   0.000166
    14  H    0.221228   0.000014
    15  H    0.237061   0.000056
 Sum of Mulliken charges =  -0.00000   1.00000

 Dipole moment (field-independent basis, Debye):
    X=             -1.8355    Y=             -1.0978    Z=             -0.1687  Tot=              2.1454
 Quadrupole moment (field-independent basis, Debye-Ang):
   XX=            -43.3159   YY=            -54.0765   ZZ=            -47.7093
   XY=             10.5970   XZ=              1.9494   YZ=              1.1044

  Exact polarizability:  93.008 -10.549  81.283   3.261   2.350  46.501
 Approx polarizability: 102.270 -20.053  92.001   5.810   2.412  48.665

 ******    1 imaginary frequencies (negative Signs) ******

                      1                      2                      3
                      A                      A                      A
 Frequencies --   -633.7185                41.1605                48.6981
 Red. masses --     11.3274                 5.1920                 5.8423
 Frc consts  --      2.6802                 0.0052                 0.0082
 IR Inten    --     73.5121                 2.0597                 3.3238

                      4                      5                      6
                      A                      A                      A
 Frequencies --     83.1443               105.5061               203.2713
 Red. masses --      3.4214                 3.7044                 1.4056
 Frc consts  --      0.0139                 0.0243                 0.0342
 IR Inten    --      4.0675                 0.1860                 4.2479

                      7                      8                      9
                      A                      A                      A
 Frequencies --    252.6947               286.6337               324.5122
 Red. masses --      2.9982                 2.9757                 3.1912
 Frc consts  --      0.1128                 0.1440                 0.1980
 IR Inten    --      3.2702                 3.2889                 8.5392

                     10                     11                     12
                      A                      A                      A
 Frequencies --    341.3269               422.5053               572.2492
 Red. masses --      1.1522                 4.0082                 5.6412
 Frc consts  --      0.0791                 0.4216                 1.0884
 IR Inten    --    140.3353                 4.9681                 4.7648

                     13                     14                     15
                      A                      A                      A
 Frequencies --    597.4292               781.8850               805.5730
 Red. masses --      6.5941                 3.4234                 1.6121
 Frc consts  --      1.3867                 1.2331                 0.6164
 IR Inten    --      7.5527                65.4060                49.2523

                     16                     17                     18
                      A                      A                      A
 Frequencies --    809.7030               816.5597               864.7596
 Red. masses --      1.9199                 1.1316                 1.6604
 Frc consts  --      0.7416                 0.4446                 0.7316
 IR Inten    --     20.7503               161.3633                14.0954

                     19                     20                     21
                      A                      A                      A
 Frequencies --    888.8363               933.2827              1067.3293
 Red. masses --      1.2258                 3.0121                 3.6371
 Frc consts  --      0.5706                 1.5458                 2.4412
 IR Inten    --      6.4494                 2.8633                26.8994

                     22                     23                     24
                      A                      A                      A
 Frequencies --   1145.8564              1218.6440              1243.6398
 Red. masses --      1.9842                 1.7344                 6.6586
 Frc consts  --      1.5350                 1.5176                 6.0677
 IR Inten    --     26.9002                10.3045               515.6701

                     25                     26                     27
                      A                      A                      A
 Frequencies --   1339.6030              1424.5046              1460.5276
 Red. masses --      1.1313                 1.2868                 1.2345
 Frc consts  --      1.1961                 1.5385                 1.5515
 IR Inten    --     17.9353                 4.0363                21.5178

                     28                     29                     30
                      A                      A                      A
 Frequencies --   1529.2350              1531.8903              1544.5845
 Red. masses --      1.0490                 1.0830                 1.0527
 Frc consts  --      1.4454                 1.4974                 1.4797
 IR Inten    --     20.1964                 8.3964                14.8572

                     31                     32                     33
                      A                      A                      A
 Frequencies --   1741.5274              2124.2866              3090.2188
 Red. masses --     11.2937                 6.5105                 1.0353
 Frc consts  --     20.1812                17.3098                 5.8249
 IR Inten    --    336.1158               115.0388                11.6053

                     34                     35                     36
                      A                      A                      A
 Frequencies --   3127.8966              3169.7633              3176.1837
 Red. masses --      1.0608                 1.0985                 1.1026
 Frc consts  --      6.1151                 6.5027                 6.5533
 IR Inten    --     14.3705                17.9389                 1.9552

                     37                     38                     39
                      A                      A                      A
 Frequencies --   3203.6393              3481.9684              3559.8774
 Red. masses --      1.1070                 1.1452                 1.0679
 Frc consts  --      6.6940                 8.1805                 7.9732
 IR Inten    --     11.6343                63.0725                19.8628

 - Thermochemistry -
 -------------------
 Temperature   298.150 Kelvin.  Pressure   1.00000 Atm.
 Atom     1 has atomic number  8 and mass  15.99491

 Molecular mass:   115.03952 amu.
 Principal axes and moments of inertia in atomic units:
                           1         2         3
     Eigenvalues --   524.982841534.253051912.29228
           X            0.99959   0.02797  -0.00559
           Y           -0.02798   0.99961  -0.00065
           Z            0.00557   0.00080   0.99998
 This molecule is an asymmetric top.
 Rotational symmetry number  1.
 Warning -- assumption of classical behavior for rotation
           may cause significant error
 Rotational temperatures (Kelvin)      0.16498     0.05645     0.04529
 Rotational constants (GHZ):           3.43771     1.17630     0.94376
    1 imaginary frequencies ignored.
 Zero-point vibrational energy     295243.8 (Joules/Mol)
                                   70.56496 (Kcal/Mol)
 Warning -- explicit consideration of  12 degrees of freedom as
           vibrations may cause significant error
 Vibrational temperatures:     59.22    70.07   119.63   151.80   292.46
          (Kelvin)            363.57   412.40   466.90   491.09   607.89
                              823.34   859.57  1124.96  1159.04  1164.98
                             1174.85  1244.20  1278.84  1342.79  1535.65
                             1648.63  1753.36  1789.32  1927.39  2049.54
                             2101.37  2200.23  2204.05  2222.31  2505.67
                             3056.37  4446.14  4500.35  4560.58  4569.82
                             4609.32  5009.78  5121.87

 Zero-point correction=                           0.112452 (Hartree/Particle)
 Thermal correction to Energy=                    0.121921
 Thermal correction to Enthalpy=                  0.122865
 Thermal correction to Gibbs Free Energy=         0.075948
 Sum of electronic and zero-point Energies=           -419.849534
 Sum of electronic and thermal Energies=              -419.840066
 Sum of electronic and thermal Enthalpies=            -419.839121
 Sum of electronic and thermal Free Energies=         -419.886038

                     E (Thermal)             CV                S
                      KCal/Mol        Cal/Mol-Kelvin    Cal/Mol-Kelvin
 Total                   76.507             31.464             98.745
 Electronic               0.000              0.000              1.377
 Translational            0.889              2.981             40.136
 Rotational               0.889              2.981             28.823
 Vibrational             74.729             25.503             28.409
 Vibration     1          0.594              1.981              5.202
 Vibration     2          0.595              1.978              4.870
 Vibration     3          0.600              1.961              3.815
 Vibration     4          0.605              1.945              3.350
 Vibration     5          0.639              1.835              2.103
 Vibration     6          0.664              1.758              1.712
 Vibration     7          0.684              1.699              1.494
 Vibration     8          0.709              1.626              1.287
 Vibration     9          0.721              1.593              1.206
 Vibration    10          0.785              1.421              0.883
 Vibration    11          0.928              1.091              0.500
 Vibration    12          0.955              1.037              0.454

 Optimization completed.
    -- Stationary point found.
 Normal termination of Gaussian 16 at Fri Jun  6 15:28:33 2025.
