 Gaussian 16, Revision A.03,
 Gaussian 16:  ES64L-G16RevA.03 25-Dec-2016

 -----------------------
 # ccsd(t)/6-311++g** sp
 -----------------------

 -------------------
 Title Card Required
 -------------------
 Symbolic Z-matrix:
 Charge =  0 Multiplicity = 2

                         Standard orientation:
 ---------------------------------------------------------------------
 Center     Atomic      Atomic             Coordinates (Angstroms)
 Number     Number       Type             X           Y           Z
 ---------------------------------------------------------------------
      1          8           0        2.655611   -1.447865    0.004461
      2          1           0        1.707508   -1.666766   -0.181541
      3          6           0        2.575397    0.515620    0.263257
      4          1           0        3.625829    0.590140    0.441394
      5          6           0        1.392001    0.811110    0.114726
      6          6           0       -0.030013    0.822694   -0.109216
      7          8           0       -0.760938    1.808283   -0.095945
      8          8           0       -0.472128   -0.447313   -0.351515
      9          6           0       -1.916996   -0.628788   -0.587514
     10          6           0       -2.669356   -0.658616    0.730148
     11          1           0       -1.967292   -1.578469   -1.118227
     12          1           0       -2.258641    0.182324   -1.234385
     13          1           0       -3.726922   -0.870263    0.546804
     14          1           0       -2.269223   -1.439038    1.381885
     15          1           0       -2.597818    0.305100    1.239657
 ---------------------------------------------------------------------

 SCF Done:  E(UHF) =  -417.974657552     A.U. after   32 cycles
 E2 =    -0.1256246402D+01 EUMP2 =    -0.41923090395392D+03
 CCSD(T)= -0.41935351573D+03

 The electronic state is 2-A.
 Alpha  occ. eigenvalues --  -20.62036 -20.61764 -20.57556 -11.42393 -11.30899
 Alpha  occ. eigenvalues --  -11.27927 -11.27482 -11.23450  -1.46997  -1.37719
 Alpha  occ. eigenvalues --   -1.36790  -1.09976  -1.04340  -0.92416  -0.84896
 Alpha  occ. eigenvalues --   -0.76697  -0.73613  -0.69915  -0.66436  -0.65391
 Alpha  occ. eigenvalues --   -0.64474  -0.63584  -0.59212  -0.56267  -0.54695
 Alpha  occ. eigenvalues --   -0.54477  -0.51607  -0.49186  -0.48204  -0.43575
 Alpha  occ. eigenvalues --   -0.42634
 Alpha virt. eigenvalues --    0.03734   0.04667   0.05488   0.06052   0.07503
 Alpha virt. eigenvalues --    0.08349   0.08950   0.09324   0.11286   0.12232
 Alpha virt. eigenvalues --    0.12739   0.13460   0.14526   0.15228   0.16855

  Beta  occ. eigenvalues --  -20.62002 -20.58061 -20.56845 -11.42893 -11.30880
  Beta  occ. eigenvalues --  -11.29999 -11.25099 -11.23450  -1.46563  -1.36515
  Beta  occ. eigenvalues --   -1.23568  -1.07516  -1.04437  -0.93282  -0.84647
  Beta  occ. eigenvalues --   -0.76433  -0.73418  -0.69075  -0.65964  -0.63838
  Beta  occ. eigenvalues --   -0.61916  -0.58616  -0.55086  -0.54473  -0.51497
  Beta  occ. eigenvalues --   -0.50965  -0.48068  -0.46486  -0.44800  -0.42609
  Beta virt. eigenvalues --    0.03707   0.04601   0.05382   0.05697   0.07156
  Beta virt. eigenvalues --    0.07511   0.07741   0.08967   0.10247   0.11846
  Beta virt. eigenvalues --    0.12685   0.13303   0.13797   0.14068   0.15067

 Mulliken charges and spin densities:
               1          2
     1  O   -0.257851   0.882227
     2  H    0.277541  -0.031525
     3  C   -2.081073  -1.034998
     4  H    0.207536   0.082801
     5  C    1.970066   1.019403
     6  C    0.041672  -0.064329
     7  O   -0.283614   0.148239
     8  O   -0.159899  -0.006602
     9  C   -0.172297   0.002929
    10  C   -0.347292   0.001336
    11  H    0.167327   0.000316
    12  H    0.183143  -0.000386
    13  H    0.134826   0.000368
    14  H    0.144438  -0.000085
    15  H    0.175477   0.000305
 Sum of Mulliken charges =  -0.00000   1.00000

 Dipole moment (field-independent basis, Debye):
    X=             -1.1665    Y=             -1.9134    Z=             -0.2099  Tot=              2.2507
 Quadrupole moment (field-independent basis, Debye-Ang):
   XX=            -41.7330   YY=            -53.2561   ZZ=            -47.4289
   XY=              8.3864   XZ=              1.8996   YZ=              1.0517

 MP3-0=-419.2787\MP4SDQ=-419.289375\CCSD=-419.2979265\CCSD(T)=-419.3535
 Normal termination of Gaussian 16 at Sun Jun  8 07:58:59 2025.
