 Gaussian 16, Revision A.03,
 Gaussian 16:  ES64L-G16RevA.03 25-Dec-2016

 ----------------------------------------------------------------------
 # irc=(calcfc,maxpoints=10,maxcycle=900,stepsize=5) 6-311++g(d,p) m062
 x
 ----------------------------------------------------------------------

 -------------------
 Title Card Required
 -------------------
 Symbolic Z-matrix:
 Charge =  0 Multiplicity = 2

 SCF Done:  E(UM062X) =  -420.204590303     A.U. after   23 cycles
 SCF Done:  E(UM062X) =  -420.204810892     A.U. after   20 cycles
 SCF Done:  E(UM062X) =  -420.205553783     A.U. after   20 cycles
 SCF Done:  E(UM062X) =  -420.206920595     A.U. after   19 cycles
 SCF Done:  E(UM062X) =  -420.208965615     A.U. after   17 cycles
 SCF Done:  E(UM062X) =  -420.211689194     A.U. after   16 cycles
 SCF Done:  E(UM062X) =  -420.215050962     A.U. after   16 cycles
 SCF Done:  E(UM062X) =  -420.218985657     A.U. after   16 cycles
 SCF Done:  E(UM062X) =  -420.223411707     A.U. after   16 cycles
 SCF Done:  E(UM062X) =  -420.228234298     A.U. after   16 cycles
 SCF Done:  E(UM062X) =  -420.204767000     A.U. after   24 cycles
 SCF Done:  E(UM062X) =  -420.205213620     A.U. after   20 cycles
 SCF Done:  E(UM062X) =  -420.205824890     A.U. after   20 cycles
 SCF Done:  E(UM062X) =  -420.206517440     A.U. after   20 cycles
 SCF Done:  E(UM062X) =  -420.207230221     A.U. after   20 cycles
 SCF Done:  E(UM062X) =  -420.207887993     A.U. after   16 cycles
 SCF Done:  E(UM062X) =  -420.208535466     A.U. after   20 cycles
 SCF Done:  E(UM062X) =  -420.209125835     A.U. after   20 cycles
 SCF Done:  E(UM062X) =  -420.209652949     A.U. after   20 cycles
 SCF Done:  E(UM062X) =  -420.210115201     A.U. after   15 cycles

                          Input orientation:
 ---------------------------------------------------------------------
 Center     Atomic      Atomic             Coordinates (Angstroms)
 Number     Number       Type             X           Y           Z
 ---------------------------------------------------------------------
      1          8           0        2.729524   -1.590893    0.016514
      2          1           0        1.787306   -1.749392   -0.168830
      3          6           0        2.476768    0.729867    0.286208
      4          1           0        3.529574    0.730959    0.446923
      5          6           0        1.289812    0.764253    0.108940
      6          6           0       -0.146897    0.748022   -0.109525
      7          8           0       -0.849551    1.717331   -0.079033
      8          8           0       -0.562161   -0.501875   -0.353013
      9          6           0       -1.980977   -0.667338   -0.571741
     10          6           0       -2.735115   -0.688957    0.742841
     11          1           0       -2.058425   -1.616824   -1.098348
     12          1           0       -2.327478    0.137960   -1.220107
     13          1           0       -3.791724   -0.887325    0.553288
     14          1           0       -2.347420   -1.475019    1.392500
     15          1           0       -2.651904    0.271646    1.251347
 ---------------------------------------------------------------------

 Alpha  occ. eigenvalues --  -19.69439 -19.67090 -19.64150 -10.71552 -10.61485
 Alpha  occ. eigenvalues --  -10.58230 -10.57438 -10.54522  -1.26559  -1.17397
 Alpha  occ. eigenvalues --   -1.12710  -0.91435  -0.87791  -0.78899  -0.71382
 Alpha  occ. eigenvalues --   -0.65410  -0.61950  -0.59453  -0.57354  -0.54875
 Alpha  occ. eigenvalues --   -0.54327  -0.50281  -0.49648  -0.47672  -0.46191
 Alpha  occ. eigenvalues --   -0.43002  -0.42479  -0.40024  -0.39461  -0.37730
 Alpha  occ. eigenvalues --   -0.35854
 Alpha virt. eigenvalues --   -0.02261  -0.00768   0.00792   0.01330   0.01664
 Alpha virt. eigenvalues --    0.02912   0.04624   0.04774   0.05018   0.06299
 Alpha virt. eigenvalues --    0.06630   0.07065   0.08096   0.09047   0.10399

  Beta  occ. eigenvalues --  -19.69437 -19.65516 -19.64137 -10.71560 -10.61484
  Beta  occ. eigenvalues --  -10.58230 -10.57349 -10.54522  -1.26540  -1.17363
  Beta  occ. eigenvalues --   -1.04989  -0.91205  -0.87594  -0.78853  -0.71292
  Beta  occ. eigenvalues --   -0.65375  -0.61743  -0.59395  -0.57307  -0.54461
  Beta  occ. eigenvalues --   -0.51667  -0.50211  -0.47635  -0.46227  -0.42964
  Beta  occ. eigenvalues --   -0.40321  -0.39627  -0.39511  -0.37393  -0.36924
  Beta virt. eigenvalues --   -0.08395  -0.02223  -0.00632   0.00970   0.01367
  Beta virt. eigenvalues --    0.01820   0.02962   0.04878   0.05007   0.05208
  Beta virt. eigenvalues --    0.06563   0.06707   0.07105   0.08228   0.09197

 Mulliken charges and spin densities:
               1          2
     1  O   -0.278542   0.937788
     2  H    0.251162  -0.018023
     3  C   -0.462074  -0.038769
     4  H    0.218094   0.008874
     5  C    0.909210   0.099266
     6  C   -0.619019   0.009321
     7  O   -0.204297   0.002449
     8  O   -0.026862  -0.002138
     9  C   -0.299782   0.001411
    10  C   -0.396424  -0.000135
    11  H    0.193338   0.000127
    12  H    0.197964  -0.000135
    13  H    0.167419   0.000057
    14  H    0.165357  -0.000117
    15  H    0.184455   0.000025
 Sum of Mulliken charges =  -0.00000   1.00000

 Dipole moment (field-independent basis, Debye):
    X=             -1.6561    Y=             -1.5547    Z=             -0.2486  Tot=              2.2851
 Quadrupole moment (field-independent basis, Debye-Ang):
   XX=            -42.7104   YY=            -51.9823   ZZ=            -47.4956
   XY=              8.7141   XZ=              1.6440   YZ=              1.0441

  Exact polarizability:   0.000   0.000   0.000   0.000   0.000   0.000
 Approx polarizability: 104.162  -6.928  79.707   6.112   1.880  57.723

 Normal termination of Gaussian 16 at Fri Jun 13 16:48:25 2025.
