 Gaussian 16, Revision A.03,
 Gaussian 16:  ES64L-G16RevA.03 25-Dec-2016

 ------------------------------------------------------------
 # opt=(calcfc,tight,ts,noeigentest) freq 6-311++g(d,p) m062x
 ------------------------------------------------------------

 -------------------
 Title Card Required
 -------------------
 Symbolic Z-matrix:
 Charge =  0 Multiplicity = 2

 SCF Done:  E(UM062X) =  -420.201346616     A.U. after   21 cycles
 SCF Done:  E(UM062X) =  -420.204563587     A.U. after   21 cycles
 SCF Done:  E(UM062X) =  -420.204589492     A.U. after   18 cycles
 SCF Done:  E(UM062X) =  -420.204216916     A.U. after   21 cycles
 SCF Done:  E(UM062X) =  -420.204509801     A.U. after   20 cycles
 SCF Done:  E(UM062X) =  -420.204480987     A.U. after   21 cycles
 SCF Done:  E(UM062X) =  -420.204585884     A.U. after   20 cycles
 SCF Done:  E(UM062X) =  -420.204574383     A.U. after   20 cycles
 SCF Done:  E(UM062X) =  -420.204590241     A.U. after   20 cycles
 SCF Done:  E(UM062X) =  -420.204589487     A.U. after   17 cycles
 SCF Done:  E(UM062X) =  -420.203938112     A.U. after   23 cycles
 SCF Done:  E(UM062X) =  -420.204506939     A.U. after   24 cycles
 SCF Done:  E(UM062X) =  -420.204589178     A.U. after   19 cycles
 SCF Done:  E(UM062X) =  -420.204590311     A.U. after   19 cycles
 SCF Done:  E(UM062X) =  -420.204590299     A.U. after   17 cycles
 SCF Done:  E(UM062X) =  -420.204590303     A.U. after   12 cycles
 SCF Done:  E(UM062X) =  -420.204590304     A.U. after    6 cycles
 SCF Done:  E(UM062X) =  -420.204590301     A.U. after   11 cycles
 SCF Done:  E(UM062X) =  -420.204590303     A.U. after   11 cycles
 Optimization completed.
    -- Stationary point found.
 Normal termination of Gaussian 16 at Fri Jun  6 19:21:10 2025.

 ----------------------------------------------------------------------
 #N Geom=AllCheck Guess=TCheck SCRF=Check GenChk UM062X/6-311++G(d,p) F
 req
 ----------------------------------------------------------------------

 Structure from the checkpoint file:  "ethyl_propiolate.chk"
 -------------------
 Title Card Required
 -------------------
 Charge =  0 Multiplicity = 2

                         Standard orientation:
 ---------------------------------------------------------------------
 Center     Atomic      Atomic             Coordinates (Angstroms)
 Number     Number       Type             X           Y           Z
 ---------------------------------------------------------------------
      1          8           0        2.781441   -1.405952    0.024863
      2          1           0        1.865981   -1.667449   -0.167824
      3          6           0        2.543601    0.578022    0.252036
      4          1           0        3.586876    0.713687    0.430000
      5          6           0        1.356326    0.790905    0.098324
      6          6           0       -0.081704    0.784383   -0.118801
      7          8           0       -0.780077    1.757005   -0.087305
      8          8           0       -0.498316   -0.463501   -0.362160
      9          6           0       -1.917406   -0.629447   -0.581176
     10          6           0       -2.671010   -0.651324    0.733472
     11          1           0       -1.993360   -1.579180   -1.107396
     12          1           0       -2.263952    0.175451   -1.230026
     13          1           0       -3.727416   -0.850734    0.543962
     14          1           0       -2.282478   -1.436906    1.383144
     15          1           0       -2.588887    0.309489    1.241819
 ---------------------------------------------------------------------

 SCF Done:  E(UM062X) =  -420.204590303     A.U. after    1 cycles

 The electronic state is 2-A.
 Alpha  occ. eigenvalues --  -19.69617 -19.65215 -19.64433 -10.71855 -10.61602
 Alpha  occ. eigenvalues --  -10.60247 -10.58658 -10.54609  -1.26821  -1.17684
 Alpha  occ. eigenvalues --   -1.11233  -0.92166  -0.88248  -0.79212  -0.71872
 Alpha  occ. eigenvalues --   -0.65667  -0.62685  -0.59694  -0.57619  -0.54778
 Alpha  occ. eigenvalues --   -0.52995  -0.50439  -0.49392  -0.47842  -0.46238
 Alpha  occ. eigenvalues --   -0.43129  -0.41847  -0.40128  -0.39555  -0.37392
 Alpha  occ. eigenvalues --   -0.33883
 Alpha virt. eigenvalues --   -0.02649  -0.00729   0.00793   0.01281   0.01622
 Alpha virt. eigenvalues --    0.02756   0.04642   0.04958   0.05362   0.05969
 Alpha virt. eigenvalues --    0.06590   0.07025   0.08135   0.08839   0.10100

  Beta  occ. eigenvalues --  -19.69600 -19.64390 -19.63849 -10.71880 -10.61598
  Beta  occ. eigenvalues --  -10.60325 -10.58384 -10.54609  -1.26749  -1.17568
  Beta  occ. eigenvalues --   -1.05558  -0.91416  -0.87776  -0.79098  -0.71596
  Beta  occ. eigenvalues --   -0.65565  -0.62268  -0.59536  -0.57469  -0.54608
  Beta  occ. eigenvalues --   -0.50777  -0.50103  -0.47741  -0.46346  -0.43060
  Beta  occ. eigenvalues --   -0.40530  -0.40139  -0.39756  -0.38343  -0.35532
  Beta virt. eigenvalues --   -0.09600  -0.02593  -0.00639   0.00989   0.01322
  Beta virt. eigenvalues --    0.01776   0.02882   0.04911   0.05046   0.05800
  Beta virt. eigenvalues --    0.06397   0.06988   0.07172   0.08379   0.08961

 Mulliken charges and spin densities:
               1          2
     1  O   -0.303873   0.758994
     2  H    0.249229  -0.012834
     3  C   -1.925195  -0.197289
     4  H    0.201346   0.022474
     5  C    1.885558   0.311161
     6  C   -0.086006   0.107613
     7  O   -0.208614   0.009576
     8  O   -0.036517  -0.002518
     9  C   -0.296819   0.001726
    10  C   -0.392627   0.000802
    11  H    0.199830   0.000157
    12  H    0.196795  -0.000093
    13  H    0.167264   0.000170
    14  H    0.166128  -0.000148
    15  H    0.183501   0.000209
 Sum of Mulliken charges =  -0.00000   1.00000

 Dipole moment (field-independent basis, Debye):
    X=             -1.8604    Y=             -1.0883    Z=             -0.2072  Tot=              2.1653
 Quadrupole moment (field-independent basis, Debye-Ang):
   XX=            -43.5729   YY=            -52.3182   ZZ=            -47.4242
   XY=              9.6169   XZ=              1.7194   YZ=              1.0517

  Exact polarizability:  96.276 -10.289  81.613   2.417   2.107  50.216
 Approx polarizability: 104.972 -15.947  92.489   4.973   2.174  57.899

 ******    1 imaginary frequencies (negative Signs) ******

                      1                      2                      3
                      A                      A                      A
 Frequencies --   -602.7258                28.4697                50.3891
 Red. masses --     11.5885                 5.4600                 6.1556
 Frc consts  --      2.4804                 0.0026                 0.0092
 IR Inten    --     94.0668                 3.6636                 1.6374

                      4                      5                      6
                      A                      A                      A
 Frequencies --     83.8424               115.7738               207.1091
 Red. masses --      3.5064                 3.3404                 1.6058
 Frc consts  --      0.0145                 0.0264                 0.0406
 IR Inten    --      2.5480                 1.0673                 4.0960

                      7                      8                      9
                      A                      A                      A
 Frequencies --    225.2632               249.6211               267.3013
 Red. masses --      1.1473                 2.3528                 3.5093
 Frc consts  --      0.0343                 0.0864                 0.1477
 IR Inten    --     86.3760                 6.4362                14.9562

                     10                     11                     12
                      A                      A                      A
 Frequencies --    337.3995               422.6696               571.7836
 Red. masses --      2.9867                 3.9077                 5.0242
 Frc consts  --      0.2003                 0.4113                 0.9678
 IR Inten    --      8.5816                 2.1592                 1.8970

                     13                     14                     15
                      A                      A                      A
 Frequencies --    594.6312               772.6322               783.1760
 Red. masses --      7.5463                 2.0921                 2.5573
 Frc consts  --      1.5721                 0.7358                 0.9242
 IR Inten    --      7.3509                 1.7138                57.5489

                     16                     17                     18
                      A                      A                      A
 Frequencies --    791.5506               801.9623               841.9873
 Red. masses --      1.1464                 1.2153                 1.0694
 Frc consts  --      0.4232                 0.4605                 0.4467
 IR Inten    --    201.6335                 5.5115                 1.7415

                     19                     20                     21
                      A                      A                      A
 Frequencies --    892.7376               929.0269              1071.4353
 Red. masses --      2.9517                 2.8336                 4.0945
 Frc consts  --      1.3860                 1.4409                 2.7694
 IR Inten    --     12.5900                 3.8454                22.7439

                     22                     23                     24
                      A                      A                      A
 Frequencies --   1127.3540              1202.7064              1261.4676
 Red. masses --      2.0661                 1.7815                 5.5700
 Frc consts  --      1.5471                 1.5183                 5.2223
 IR Inten    --     21.7770                10.9185               576.6760

                     25                     26                     27
                      A                      A                      A
 Frequencies --   1345.8716              1402.1507              1431.2862
 Red. masses --      1.1559                 1.2534                 1.3536
 Frc consts  --      1.2336                 1.4519                 1.6338
 IR Inten    --     40.7976                15.3404                 8.3810

                     28                     29                     30
                      A                      A                      A
 Frequencies --   1493.6683              1502.9898              1514.9695
 Red. masses --      1.0404                 1.0621                 1.0804
 Frc consts  --      1.3675                 1.4136                 1.4610
 IR Inten    --     12.4661                 1.6589                17.1257

                     31                     32                     33
                      A                      A                      A
 Frequencies --   1846.0906              2125.9561              3075.6802
 Red. masses --     12.0601                 6.3595                 1.0354
 Frc consts  --     24.2163                16.9349                 5.7710
 IR Inten    --    398.9370                92.2130                 8.8803

                     34                     35                     36
                      A                      A                      A
 Frequencies --   3108.9156              3151.1039              3155.7550
 Red. masses --      1.0605                 1.1018                 1.1048
 Frc consts  --      6.0395                 6.4458                 6.4824
 IR Inten    --     16.3636                12.6756                 2.4737

                     37                     38                     39
                      A                      A                      A
 Frequencies --   3176.1353              3452.4437              3791.4537
 Red. masses --      1.1076                 1.1484                 1.0678
 Frc consts  --      6.5834                 8.0647                 9.0435
 IR Inten    --     11.6073                71.5379                34.0168

 - Thermochemistry -
 -------------------
 Temperature   298.150 Kelvin.  Pressure   1.00000 Atm.
 Atom     1 has atomic number  8 and mass  15.99491

 Molecular mass:   115.03952 amu.
 Principal axes and moments of inertia in atomic units:
                           1         2         3
     Eigenvalues --   507.384661567.363781928.19543
           X            0.99962   0.02708  -0.00561
           Y           -0.02708   0.99963  -0.00032
           Z            0.00560   0.00047   0.99998
 This molecule is an asymmetric top.
 Rotational symmetry number  1.
 Warning -- assumption of classical behavior for rotation
           may cause significant error
 Rotational temperatures (Kelvin)      0.17071     0.05526     0.04492
 Rotational constants (GHZ):           3.55695     1.15145     0.93597
    1 imaginary frequencies ignored.
 Zero-point vibrational energy     294309.8 (Joules/Mol)
                                   70.34174 (Kcal/Mol)
 Warning -- explicit consideration of  12 degrees of freedom as
           vibrations may cause significant error
 Vibrational temperatures:     40.96    72.50   120.63   166.57   297.98
          (Kelvin)            324.10   359.15   384.59   485.44   608.13
                              822.67   855.54  1111.65  1126.82  1138.86
                             1153.84  1211.43  1284.45  1336.66  1541.56
                             1622.01  1730.43  1814.97  1936.41  2017.38
                             2059.30  2149.06  2162.47  2179.70  2656.11
                             3058.78  4425.22  4473.04  4533.74  4540.43
                             4569.75  4967.30  5455.06

 Zero-point correction=                           0.112097 (Hartree/Particle)
 Thermal correction to Energy=                    0.121758
 Thermal correction to Enthalpy=                  0.122702
 Thermal correction to Gibbs Free Energy=         0.075168
 Sum of electronic and zero-point Energies=           -420.092494
 Sum of electronic and thermal Energies=              -420.082832
 Sum of electronic and thermal Enthalpies=            -420.081888
 Sum of electronic and thermal Free Energies=         -420.129422

                     E (Thermal)             CV                S
                      KCal/Mol        Cal/Mol-Kelvin    Cal/Mol-Kelvin
 Total                   76.404             31.862            100.044
 Electronic               0.000              0.000              1.377
 Translational            0.889              2.981             40.136
 Rotational               0.889              2.981             28.818
 Vibrational             74.627             25.900             29.712
 Vibration     1          0.593              1.984              5.933
 Vibration     2          0.595              1.977              4.802
 Vibration     3          0.601              1.960              3.799
 Vibration     4          0.608              1.936              3.170
 Vibration     5          0.641              1.830              2.069
 Vibration     6          0.650              1.803              1.916
 Vibration     7          0.662              1.763              1.733
 Vibration     8          0.672              1.733              1.614
 Vibration     9          0.718              1.601              1.224
 Vibration    10          0.785              1.421              0.883
 Vibration    11          0.928              1.092              0.501
 Vibration    12          0.952              1.043              0.459

 Optimization completed.
    -- Stationary point found.

 1\1\GINC-AJ\Freq\UM062X\6-311++G(d,p)\C5H7O3(2)\AAYUSH\06-Jun-2025\0\\
 #N Geom=AllCheck Guess=TCheck SCRF=Check GenChk UM062X/6-311++G(d,p) F
 req\\Title Card Required\\0,2\O,2.7640649654,-1.4538274281,0.025551557
 4\H,1.8461736582,-1.7022201758,-0.1728217397\C,2.5499213328,0.53083080
 7,0.2696851066\H,3.5941172135,0.6519531369,0.4526714704\C,1.3659568288
 ,0.7597841968,0.1135596018\C,-0.0712172802,0.7730340331,-0.1088658986\
 O,-0.7576235592,1.7539195082,-0.0711754013\O,-0.5023079437,-0.46736117
 2,-0.3649561141\C,-1.9225075311,-0.6137347665,-0.5906365825\C,-2.68126

 Normal termination of Gaussian 16 at Fri Jun  6 19:23:05 2025.
