 Gaussian 16, Revision A.03,
 Gaussian 16:  ES64L-G16RevA.03 25-Dec-2016

 ------------------------------------------------------------
 # opt=(calcfc,tight,ts,noeigentest) freq 6-311++g(d,p) m062x
 ------------------------------------------------------------

 -------------------
 Title Card Required
 -------------------
 Symbolic Z-matrix:
 Charge =  0 Multiplicity = 2

 SCF Done:  E(UM062X) =  -420.187250016     A.U. after   18 cycles
 SCF Done:  E(UM062X) =  -420.198481374     A.U. after   21 cycles
 SCF Done:  E(UM062X) =  -420.202485969     A.U. after   20 cycles
 SCF Done:  E(UM062X) =  -420.203787286     A.U. after   20 cycles
 SCF Done:  E(UM062X) =  -420.203708285     A.U. after   20 cycles
 SCF Done:  E(UM062X) =  -420.204197193     A.U. after   21 cycles
 SCF Done:  E(UM062X) =  -420.204104029     A.U. after   20 cycles
 SCF Done:  E(UM062X) =  -420.204574568     A.U. after   22 cycles
 SCF Done:  E(UM062X) =  -420.205001406     A.U. after   23 cycles
 SCF Done:  E(UM062X) =  -420.205152286     A.U. after   20 cycles
 SCF Done:  E(UM062X) =  -420.205240287     A.U. after   15 cycles
 SCF Done:  E(UM062X) =  -420.205240896     A.U. after   15 cycles
 SCF Done:  E(UM062X) =  -420.205241409     A.U. after   14 cycles
 SCF Done:  E(UM062X) =  -420.205242128     A.U. after   15 cycles
 SCF Done:  E(UM062X) =  -420.205242318     A.U. after   16 cycles
 SCF Done:  E(UM062X) =  -420.205242317     A.U. after   14 cycles
 SCF Done:  E(UM062X) =  -420.205242314     A.U. after   12 cycles
 SCF Done:  E(UM062X) =  -420.205242314     A.U. after   10 cycles
 SCF Done:  E(UM062X) =  -420.205242315     A.U. after   10 cycles
 Optimization completed.
    -- Stationary point found.
 Normal termination of Gaussian 16 at Fri Jun  6 19:40:05 2025.

 ----------------------------------------------------------------------
 #N Geom=AllCheck Guess=TCheck SCRF=Check GenChk UM062X/6-311++G(d,p) F
 req
 ----------------------------------------------------------------------

 Structure from the checkpoint file:  "ethyl_propiolate.chk"
 -------------------
 Title Card Required
 -------------------
 Charge =  0 Multiplicity = 2

                         Standard orientation:
 ---------------------------------------------------------------------
 Center     Atomic      Atomic             Coordinates (Angstroms)
 Number     Number       Type             X           Y           Z
 ---------------------------------------------------------------------
      1          8           0       -3.344925    0.787513   -0.107729
      2          1           0       -2.587578    1.364492    0.089508
      3          6           0       -2.408344   -0.985533   -0.271595
      4          1           0       -3.321203   -1.497999   -0.477614
      5          6           0       -1.231582   -0.746126   -0.074757
      6          6           0        0.011383   -0.045224    0.206344
      7          8           0        0.038523    1.141732    0.403267
      8          8           0        1.059655   -0.857448    0.220828
      9          6           0        2.341304   -0.241964    0.478031
     10          6           0        2.886698    0.419103   -0.772001
     11          1           0        2.968317   -1.069304    0.804502
     12          1           0        2.225867    0.473000    1.293243
     13          1           0        3.886511    0.808369   -0.570892
     14          1           0        2.954831   -0.303608   -1.586314
     15          1           0        2.250479    1.249146   -1.079499
 ---------------------------------------------------------------------

 SCF Done:  E(UM062X) =  -420.205242315     A.U. after    1 cycles

 The electronic state is 2-A.
 Alpha  occ. eigenvalues --  -19.69594 -19.64859 -19.64548 -10.71921 -10.61548
 Alpha  occ. eigenvalues --  -10.60100 -10.58427 -10.54579  -1.27008  -1.17722
 Alpha  occ. eigenvalues --   -1.10840  -0.91865  -0.88395  -0.79173  -0.71850
 Alpha  occ. eigenvalues --   -0.65734  -0.62288  -0.59797  -0.57738  -0.54540
 Alpha  occ. eigenvalues --   -0.52639  -0.50448  -0.49223  -0.47757  -0.46182
 Alpha  occ. eigenvalues --   -0.43041  -0.41524  -0.40454  -0.39683  -0.37173
 Alpha  occ. eigenvalues --   -0.33463
 Alpha virt. eigenvalues --   -0.02604  -0.00491   0.00841   0.01396   0.01891
 Alpha virt. eigenvalues --    0.02498   0.03930   0.05005   0.05313   0.06118
 Alpha virt. eigenvalues --    0.06620   0.07287   0.07999   0.08828   0.09949

  Beta  occ. eigenvalues --  -19.69579 -19.64495 -19.63493 -10.71946 -10.61546
  Beta  occ. eigenvalues --  -10.60177 -10.58151 -10.54579  -1.26940  -1.17583
  Beta  occ. eigenvalues --   -1.05132  -0.91165  -0.87899  -0.79056  -0.71624
  Beta  occ. eigenvalues --   -0.65653  -0.61905  -0.59626  -0.57584  -0.54431
  Beta  occ. eigenvalues --   -0.50306  -0.50127  -0.47667  -0.46226  -0.42999
  Beta  occ. eigenvalues --   -0.41163  -0.39978  -0.39608  -0.37829  -0.35265
  Beta virt. eigenvalues --   -0.09293  -0.02556  -0.00475   0.01011   0.01388
  Beta virt. eigenvalues --    0.02022   0.02742   0.04235   0.05206   0.05705
  Beta virt. eigenvalues --    0.06580   0.06881   0.07403   0.08280   0.08969

 Mulliken charges and spin densities:
               1          2
     1  O   -0.290610   0.764795
     2  H    0.251843  -0.015947
     3  C   -1.831629  -0.090981
     4  H    0.199906   0.022734
     5  C    1.896884   0.326972
     6  C   -0.255139  -0.026085
     7  O   -0.255405   0.014933
     8  O    0.032171   0.003158
     9  C   -0.264985  -0.001266
    10  C   -0.403915   0.001372
    11  H    0.200590   0.000062
    12  H    0.199903   0.000306
    13  H    0.167487   0.000090
    14  H    0.168511  -0.000014
    15  H    0.184387  -0.000130
 Sum of Mulliken charges =   0.00000   1.00000

 Dipole moment (field-independent basis, Debye):
    X=              3.0423    Y=             -1.4804    Z=             -0.0851  Tot=              3.3845
 Quadrupole moment (field-independent basis, Debye-Ang):
   XX=            -45.1731   YY=            -48.4613   ZZ=            -47.7116
   XY=              5.1458   XZ=              1.2157   YZ=              0.2107

  Exact polarizability: 107.292  -6.913  71.734   3.033   2.196  50.553
 Approx polarizability: 109.201  -3.592  87.077   6.070   4.551  58.508

 ******    1 imaginary frequencies (negative Signs) ******

                      1                      2                      3
                      A                      A                      A
 Frequencies --   -616.9804                28.0634                54.9477
 Red. masses --     11.6197                 6.9714                 6.5997
 Frc consts  --      2.6061                 0.0032                 0.0117
 IR Inten    --     92.9254                 0.3636                 0.0617

                      4                      5                      6
                      A                      A                      A
 Frequencies --     85.9172               119.1321               203.2632
 Red. masses --      3.4062                 3.4340                 1.9818
 Frc consts  --      0.0148                 0.0287                 0.0482
 IR Inten    --      3.4717                 1.4548                 5.0120

                      7                      8                      9
                      A                      A                      A
 Frequencies --    242.8275               269.4736               287.6980
 Red. masses --      1.9560                 3.5762                 1.0829
 Frc consts  --      0.0680                 0.1530                 0.0528
 IR Inten    --      3.7176                 0.2765               111.7841

                     10                     11                     12
                      A                      A                      A
 Frequencies --    340.5751               425.6685               555.0608
 Red. masses --      3.0415                 4.0489                 4.5907
 Frc consts  --      0.2079                 0.4322                 0.8333
 IR Inten    --     14.1757                 1.7307                 6.1655

                     13                     14                     15
                      A                      A                      A
 Frequencies --    622.0064               769.8831               781.5360
 Red. masses --      8.5790                 1.7133                 3.5809
 Frc consts  --      1.9556                 0.5983                 1.2886
 IR Inten    --     12.3780                 6.3798                53.5583

                     16                     17                     18
                      A                      A                      A
 Frequencies --    798.1364               802.4750               847.2677
 Red. masses --      1.1672                 1.1580                 1.0509
 Frc consts  --      0.4381                 0.4394                 0.4445
 IR Inten    --    128.1363                89.4361                14.3234

                     19                     20                     21
                      A                      A                      A
 Frequencies --    894.9169               932.0321              1074.1408
 Red. masses --      3.0489                 2.9120                 4.1277
 Frc consts  --      1.4387                 1.4904                 2.8059
 IR Inten    --     11.2669                 3.5732                24.8125

                     22                     23                     24
                      A                      A                      A
 Frequencies --   1127.9364              1204.0894              1303.9730
 Red. masses --      2.0731                 1.7682                 2.9315
 Frc consts  --      1.5540                 1.5104                 2.9369
 IR Inten    --     23.3433                 2.9181               641.9450

                     25                     26                     27
                      A                      A                      A
 Frequencies --   1350.4301              1403.3955              1432.3452
 Red. masses --      1.3227                 1.3035                 1.4018
 Frc consts  --      1.4212                 1.5126                 1.6945
 IR Inten    --    188.5919                50.4133                17.1109

                     28                     29                     30
                      A                      A                      A
 Frequencies --   1492.9534              1503.2851              1515.3973
 Red. masses --      1.0413                 1.0621                 1.0871
 Frc consts  --      1.3675                 1.4142                 1.4709
 IR Inten    --      9.6782                 3.4858                20.9626

                     31                     32                     33
                      A                      A                      A
 Frequencies --   1813.4493              2117.6187              3076.1558
 Red. masses --     11.7479                 6.3643                 1.0354
 Frc consts  --     22.7626                16.8150                 5.7728
 IR Inten    --    222.9277               103.6814                 9.2443

                     34                     35                     36
                      A                      A                      A
 Frequencies --   3109.6451              3151.7214              3156.2656
 Red. masses --      1.0608                 1.1013                 1.1049
 Frc consts  --      6.0437                 6.4456                 6.4854
 IR Inten    --     17.1902                14.0800                 1.3598

                     37                     38                     39
                      A                      A                      A
 Frequencies --   3177.3033              3454.4676              3773.8843
 Red. masses --      1.1076                 1.1477                 1.0679
 Frc consts  --      6.5880                 8.0692                 8.9610
 IR Inten    --     14.1217                71.0429                33.8532

 - Thermochemistry -
 -------------------
 Temperature   298.150 Kelvin.  Pressure   1.00000 Atm.
 Atom     1 has atomic number  8 and mass  15.99491

 Molecular mass:   115.03952 amu.
 Principal axes and moments of inertia in atomic units:
                           1         2         3
     Eigenvalues --   332.072871901.025272079.60693
           X            0.99993   0.00992  -0.00586
           Y           -0.01001   0.99983  -0.01542
           Z            0.00570   0.01548   0.99986
 This molecule is an asymmetric top.
 Rotational symmetry number  1.
 Rotational temperatures (Kelvin)      0.26083     0.04556     0.04165
 Rotational constants (GHZ):           5.43477     0.94935     0.86783
    1 imaginary frequencies ignored.
 Zero-point vibrational energy     294875.5 (Joules/Mol)
                                   70.47694 (Kcal/Mol)
 Warning -- explicit consideration of  11 degrees of freedom as
           vibrations may cause significant error
 Vibrational temperatures:     40.38    79.06   123.62   171.40   292.45
          (Kelvin)            349.37   387.71   413.93   490.01   612.44
                              798.61   894.93  1107.69  1124.46  1148.34
                             1154.58  1219.03  1287.59  1340.99  1545.45
                             1622.85  1732.42  1876.13  1942.97  2019.17
                             2060.83  2148.03  2162.89  2180.32  2609.15
                             3046.78  4425.90  4474.09  4534.62  4541.16
                             4571.43  4970.21  5429.78

 Zero-point correction=                           0.112312 (Hartree/Particle)
 Thermal correction to Energy=                    0.121864
 Thermal correction to Enthalpy=                  0.122809
 Thermal correction to Gibbs Free Energy=         0.075661
 Sum of electronic and zero-point Energies=           -420.092930
 Sum of electronic and thermal Energies=              -420.083378
 Sum of electronic and thermal Enthalpies=            -420.082434
 Sum of electronic and thermal Free Energies=         -420.129582

                     E (Thermal)             CV                S
                      KCal/Mol        Cal/Mol-Kelvin    Cal/Mol-Kelvin
 Total                   76.471             31.684             99.231
 Electronic               0.000              0.000              1.377
 Translational            0.889              2.981             40.136
 Rotational               0.889              2.981             28.664
 Vibrational             74.694             25.722             29.054
 Vibration     1          0.593              1.984              5.962
 Vibration     2          0.596              1.976              4.631
 Vibration     3          0.601              1.959              3.751
 Vibration     4          0.609              1.933              3.114
 Vibration     5          0.639              1.835              2.103
 Vibration     6          0.659              1.775              1.782
 Vibration     7          0.674              1.729              1.600
 Vibration     8          0.685              1.697              1.487
 Vibration     9          0.720              1.594              1.209
 Vibration    10          0.787              1.414              0.873
 Vibration    11          0.911              1.129              0.534

 Optimization completed.
    -- Stationary point found.

 1\1\GINC-AJ\Freq\UM062X\6-311++G(d,p)\C5H7O3(2)\AAYUSH\06-Jun-2025\0\\
 #N Geom=AllCheck Guess=TCheck SCRF=Check GenChk UM062X/6-311++G(d,p) F
 req\\Title Card Required\\0,2\O,2.2076150527,-0.2730243964,-0.54356012
 62\H,3.1536121475,-0.4713727452,-0.4380762567\C,1.5465342424,-0.696344
 0852,1.3088714075\H,0.5416587077,-0.4426335142,1.0554290074\C,2.531885
 4116,-1.0532572516,1.9273581055\C,3.9024642587,-1.3984277682,2.2703072
 275\O,4.7946216383,-1.3232945453,1.4660745178\O,4.0278133141,-1.783240
 6706,3.5332392762\C,5.3565360711,-2.1603240251,3.9573872665\C,5.690493

 Normal termination of Gaussian 16 at Fri Jun  6 19:41:57 2025.
