 Gaussian 16, Revision A.03,
 Gaussian 16:  ES64L-G16RevA.03 25-Dec-2016

 ----------------------------------------------------------------------
 # irc=(calcfc,maxpoints=10,maxcycle=900,stepsize=5) 6-311++g(d,p) m062
 x
 ----------------------------------------------------------------------

 -------------------
 Title Card Required
 -------------------
 Symbolic Z-matrix:
 Charge =  0 Multiplicity = 2

 SCF Done:  E(UM062X) =  -420.202229003     A.U. after   23 cycles
 SCF Done:  E(UM062X) =  -420.202401297     A.U. after   21 cycles
 SCF Done:  E(UM062X) =  -420.202847670     A.U. after   21 cycles
 SCF Done:  E(UM062X) =  -420.203473478     A.U. after   21 cycles
 SCF Done:  E(UM062X) =  -420.204201951     A.U. after   21 cycles
 SCF Done:  E(UM062X) =  -420.204969937     A.U. after   21 cycles
 SCF Done:  E(UM062X) =  -420.205730025     A.U. after   21 cycles
 SCF Done:  E(UM062X) =  -420.206453853     A.U. after   20 cycles
 SCF Done:  E(UM062X) =  -420.207064792     A.U. after   19 cycles
 SCF Done:  E(UM062X) =  -420.207668320     A.U. after   19 cycles
 SCF Done:  E(UM062X) =  -420.202434122     A.U. after   22 cycles
 SCF Done:  E(UM062X) =  -420.203103047     A.U. after   20 cycles
 SCF Done:  E(UM062X) =  -420.204295215     A.U. after   19 cycles
 SCF Done:  E(UM062X) =  -420.206033037     A.U. after   18 cycles
 SCF Done:  E(UM062X) =  -420.208303938     A.U. after   18 cycles
 SCF Done:  E(UM062X) =  -420.211071420     A.U. after   18 cycles
 SCF Done:  E(UM062X) =  -420.214282702     A.U. after   17 cycles
 SCF Done:  E(UM062X) =  -420.217870879     A.U. after   16 cycles
 SCF Done:  E(UM062X) =  -420.221753963     A.U. after   16 cycles
 SCF Done:  E(UM062X) =  -420.225834068     A.U. after   16 cycles

                          Input orientation:
 ---------------------------------------------------------------------
 Center     Atomic      Atomic             Coordinates (Angstroms)
 Number     Number       Type             X           Y           Z
 ---------------------------------------------------------------------
      1          6           0       -2.708730   -0.493715   -0.445595
      2          1           0       -3.739483   -0.535939   -0.722730
      3          6           0       -1.555528   -0.061244   -0.115622
      4          6           0       -0.167215   -0.533539    0.225655
      5          8           0        0.161920   -0.898748    1.317780
      6          8           0        0.637728   -0.341604   -0.810772
      7          6           0        2.053306   -0.426074   -0.539973
      8          6           0        2.540059    0.843110    0.131535
      9          1           0        2.502927   -0.563854   -1.521409
     10          1           0        2.241426   -1.306768    0.074789
     11          1           0        3.621891    0.792473    0.269341
     12          1           0        2.304001    1.711886   -0.484001
     13          1           0        2.072001    0.964429    1.108829
     14          8           0       -1.364039    1.565925    0.080945
     15          1           0       -1.973016    1.765605    0.802565
 ---------------------------------------------------------------------

 Alpha  occ. eigenvalues --  -19.68116 -19.64699 -19.63160 -10.70136 -10.63509
 Alpha  occ. eigenvalues --  -10.60357 -10.59379 -10.53388  -1.25644  -1.16354
 Alpha  occ. eigenvalues --   -1.12382  -0.90940  -0.87481  -0.78023  -0.70848
 Alpha  occ. eigenvalues --   -0.64566  -0.61712  -0.59211  -0.58112  -0.54354
 Alpha  occ. eigenvalues --   -0.52974  -0.49916  -0.48166  -0.46231  -0.45137
 Alpha  occ. eigenvalues --   -0.41730  -0.40763  -0.39424  -0.38333  -0.35919
 Alpha  occ. eigenvalues --   -0.31234
 Alpha virt. eigenvalues --   -0.00247   0.00394   0.01240   0.01317   0.02265
 Alpha virt. eigenvalues --    0.02718   0.03358   0.04418   0.05802   0.06164
 Alpha virt. eigenvalues --    0.07209   0.07767   0.08459   0.10067   0.10540

  Beta  occ. eigenvalues --  -19.68111 -19.64241 -19.63161 -10.70078 -10.63665
  Beta  occ. eigenvalues --  -10.60356 -10.58703 -10.53389  -1.25600  -1.16341
  Beta  occ. eigenvalues --   -1.10769  -0.89806  -0.86297  -0.77310  -0.69903
  Beta  occ. eigenvalues --   -0.64352  -0.60729  -0.58784  -0.57868  -0.53725
  Beta  occ. eigenvalues --   -0.52840  -0.48727  -0.47306  -0.45370  -0.44265
  Beta  occ. eigenvalues --   -0.41647  -0.39733  -0.38875  -0.38239  -0.34468
  Beta virt. eigenvalues --   -0.08296  -0.00246   0.00452   0.01489   0.02205
  Beta virt. eigenvalues --    0.02371   0.02767   0.03545   0.04475   0.05781
  Beta virt. eigenvalues --    0.05988   0.07306   0.07703   0.08491   0.09839

 Mulliken charges and spin densities:
               1          2
     1  C   -0.019824   1.044813
     2  H    0.220692  -0.027426
     3  C    0.085594  -0.299384
     4  C   -0.318230   0.058576
     5  O   -0.209991   0.000664
     6  O    0.047222   0.004210
     7  C   -0.280075   0.001896
     8  C   -0.421068   0.001283
     9  H    0.195177   0.000223
    10  H    0.189754  -0.000316
    11  H    0.166201  -0.000081
    12  H    0.173692  -0.000196
    13  H    0.189850  -0.000519
    14  O   -0.279627   0.215362
    15  H    0.260633   0.000896
 Sum of Mulliken charges =  -0.00000   1.00000

 Dipole moment (field-independent basis, Debye):
    X=             -0.6464    Y=             -0.2701    Z=             -0.7481  Tot=              1.0249
 Quadrupole moment (field-independent basis, Debye-Ang):
   XX=            -30.8029   YY=            -49.6639   ZZ=            -51.2215
   XY=              0.1789   XZ=             -1.7337   YZ=              4.8932

  Exact polarizability:   0.000   0.000   0.000   0.000   0.000   0.000
 Approx polarizability:  89.520   7.891  77.711   4.900  -0.088  76.602

 Normal termination of Gaussian 16 at Fri Jun 13 16:57:37 2025.
