 Gaussian 16, Revision A.03,
 Gaussian 16:  ES64L-G16RevA.03 25-Dec-2016

 -----------------------------------------------------
 # opt=(calcfc,tight,ts,noeigentest) freq 6-31+g m062x
 -----------------------------------------------------

 -------------------
 Title Card Required
 -------------------
 Symbolic Z-matrix:
 Charge =  0 Multiplicity = 2

 SCF Done:  E(UM062X) =  -419.935874430     A.U. after   20 cycles
 SCF Done:  E(UM062X) =  -419.953324152     A.U. after   21 cycles
 SCF Done:  E(UM062X) =  -419.958247829     A.U. after   20 cycles
 SCF Done:  E(UM062X) =  -419.959711529     A.U. after   21 cycles
 SCF Done:  E(UM062X) =  -419.959843859     A.U. after   22 cycles
 SCF Done:  E(UM062X) =  -419.960087709     A.U. after   22 cycles
 SCF Done:  E(UM062X) =  -419.960393389     A.U. after   22 cycles
 SCF Done:  E(UM062X) =  -419.961046238     A.U. after   22 cycles
 SCF Done:  E(UM062X) =  -419.961610412     A.U. after   22 cycles
 SCF Done:  E(UM062X) =  -419.961709515     A.U. after   20 cycles
 SCF Done:  E(UM062X) =  -419.961780805     A.U. after   18 cycles
 SCF Done:  E(UM062X) =  -419.961781586     A.U. after   17 cycles
 SCF Done:  E(UM062X) =  -419.961782975     A.U. after   18 cycles
 SCF Done:  E(UM062X) =  -419.961783421     A.U. after   16 cycles
 SCF Done:  E(UM062X) =  -419.961783471     A.U. after   15 cycles
 SCF Done:  E(UM062X) =  -419.961783475     A.U. after   14 cycles
 SCF Done:  E(UM062X) =  -419.961783473     A.U. after   13 cycles
 SCF Done:  E(UM062X) =  -419.961783473     A.U. after    8 cycles
 SCF Done:  E(UM062X) =  -419.961783473     A.U. after   10 cycles
 Optimization completed.
    -- Stationary point found.
 Normal termination of Gaussian 16 at Fri Jun  6 17:57:28 2025.

 ------------------------------------------------------------------
 #N Geom=AllCheck Guess=TCheck SCRF=Check GenChk UM062X/6-31+G Freq
 ------------------------------------------------------------------

 Structure from the checkpoint file:  "ethyl_propiolate.chk"
 -------------------
 Title Card Required
 -------------------
 Charge =  0 Multiplicity = 2

                         Standard orientation:
 ---------------------------------------------------------------------
 Center     Atomic      Atomic             Coordinates (Angstroms)
 Number     Number       Type             X           Y           Z
 ---------------------------------------------------------------------
      1          8           0       -3.411397    0.738734   -0.125629
      2          1           0       -2.691951    1.389032    0.075557
      3          6           0       -2.425903   -0.980826   -0.258746
      4          1           0       -3.323523   -1.522892   -0.460844
      5          6           0       -1.242473   -0.715122   -0.060906
      6          6           0       -0.004244   -0.031171    0.206816
      7          8           0        0.052408    1.187128    0.400616
      8          8           0        1.066546   -0.852346    0.229165
      9          6           0        2.385473   -0.243738    0.484215
     10          6           0        2.931784    0.388155   -0.783016
     11          1           0        2.986206   -1.086651    0.821941
     12          1           0        2.273290    0.486584    1.288695
     13          1           0        3.943699    0.762265   -0.601779
     14          1           0        2.975382   -0.348477   -1.588784
     15          1           0        2.308628    1.228230   -1.098179
 ---------------------------------------------------------------------

 SCF Done:  E(UM062X) =  -419.961783473     A.U. after    1 cycles

 The electronic state is 2-A.
 Alpha  occ. eigenvalues --  -19.71771 -19.67866 -19.67644 -10.74389 -10.62768
 Alpha  occ. eigenvalues --  -10.62524 -10.60848 -10.55504  -1.27197  -1.18044
 Alpha  occ. eigenvalues --   -1.11715  -0.92661  -0.88943  -0.79581  -0.72747
 Alpha  occ. eigenvalues --   -0.65312  -0.62661  -0.58946  -0.57193  -0.54869
 Alpha  occ. eigenvalues --   -0.52421  -0.50345  -0.49197  -0.47714  -0.45889
 Alpha  occ. eigenvalues --   -0.43072  -0.41741  -0.39999  -0.39166  -0.37310
 Alpha  occ. eigenvalues --   -0.33627
 Alpha virt. eigenvalues --   -0.03689   0.01609   0.02791   0.03121   0.03295
 Alpha virt. eigenvalues --    0.04463   0.05188   0.06222   0.06965   0.07777
 Alpha virt. eigenvalues --    0.08195   0.08593   0.09104   0.10557   0.11638

  Beta  occ. eigenvalues --  -19.71754 -19.67578 -19.66472 -10.74421 -10.62765
  Beta  occ. eigenvalues --  -10.62630 -10.60528 -10.55504  -1.27109  -1.17893
  Beta  occ. eigenvalues --   -1.06306  -0.91816  -0.88612  -0.79417  -0.72502
  Beta  occ. eigenvalues --   -0.65203  -0.62326  -0.58751  -0.56994  -0.54768
  Beta  occ. eigenvalues --   -0.50146  -0.49894  -0.47658  -0.45886  -0.43000
  Beta  occ. eigenvalues --   -0.41009  -0.40231  -0.39091  -0.37989  -0.35308
  Beta virt. eigenvalues --   -0.09806  -0.03708   0.01584   0.02819   0.03138
  Beta virt. eigenvalues --    0.03793   0.04596   0.05742   0.06321   0.07301
  Beta virt. eigenvalues --    0.07833   0.08259   0.08707   0.09389   0.10601

 Mulliken charges and spin densities:
               1          2
     1  O   -0.491901   0.755522
     2  H    0.409746  -0.027833
     3  C   -0.264684  -0.222906
     4  H    0.306068   0.020621
     5  C    0.075456   0.454121
     6  C    0.260605  -0.003565
     7  O   -0.412887   0.017822
     8  O   -0.220996   0.004626
     9  C   -0.231452   0.000283
    10  C   -0.562072   0.001153
    11  H    0.224546   0.000077
    12  H    0.237975  -0.000049
    13  H    0.210645   0.000121
    14  H    0.222456   0.000015
    15  H    0.236495  -0.000010
 Sum of Mulliken charges =  -0.00000   1.00000

 Dipole moment (field-independent basis, Debye):
    X=              3.0250    Y=             -1.3800    Z=             -0.0589  Tot=              3.3254
 Quadrupole moment (field-independent basis, Debye-Ang):
   XX=            -45.8831   YY=            -49.2481   ZZ=            -48.0764
   XY=              4.9967   XZ=              1.0285   YZ=              0.1337

  Exact polarizability: 107.587  -7.175  70.048   3.877   2.699  46.812
 Approx polarizability: 108.440  -3.226  84.460   7.188   5.514  49.257

 ******    1 imaginary frequencies (negative Signs) ******

                      1                      2                      3
                      A                      A                      A
 Frequencies --   -626.4222                31.7033                46.0561
 Red. masses --     11.0172                 6.5331                 6.6280
 Frc consts  --      2.5472                 0.0039                 0.0083
 IR Inten    --     93.2409                 0.3387                 0.1032

                      4                      5                      6
                      A                      A                      A
 Frequencies --     82.1992               107.9253               200.0553
 Red. masses --      3.1860                 3.7708                 1.8033
 Frc consts  --      0.0127                 0.0259                 0.0425
 IR Inten    --      2.4031                 2.9055                 6.3144

                      7                      8                      9
                      A                      A                      A
 Frequencies --    238.9252               286.6546               311.7755
 Red. masses --      2.1028                 2.3443                 1.3697
 Frc consts  --      0.0707                 0.1135                 0.0784
 IR Inten    --      4.2759                17.5378               122.8269

                     10                     11                     12
                      A                      A                      A
 Frequencies --    328.7608               424.4903               553.0905
 Red. masses --      2.6379                 4.1727                 4.6216
 Frc consts  --      0.1680                 0.4430                 0.8330
 IR Inten    --     34.8577                 1.4350                 6.6019

                     13                     14                     15
                      A                      A                      A
 Frequencies --    624.9755               779.4825               797.4365
 Red. masses --      8.6586                 3.8766                 1.1739
 Frc consts  --      1.9926                 1.3878                 0.4398
 IR Inten    --      9.7551                63.4688               211.6616

                     16                     17                     18
                      A                      A                      A
 Frequencies --    800.4833               814.1043               862.2943
 Red. masses --      1.7262                 1.4508                 1.1623
 Frc consts  --      0.6517                 0.5665                 0.5092
 IR Inten    --     11.6779                45.5542                 4.0247

                     19                     20                     21
                      A                      A                      A
 Frequencies --    872.3618               933.5118              1067.8262
 Red. masses --      2.0076                 2.9939                 3.6735
 Frc consts  --      0.9002                 1.5372                 2.4679
 IR Inten    --      9.4654                 3.2249                31.3145

                     22                     23                     24
                      A                      A                      A
 Frequencies --   1145.9503              1220.2905              1305.7534
 Red. masses --      1.9723                 1.6959                 3.4858
 Frc consts  --      1.5260                 1.4879                 3.5017
 IR Inten    --     26.5073                 3.0993               636.2419

                     25                     26                     27
                      A                      A                      A
 Frequencies --   1343.0303              1428.6343              1459.4362
 Red. masses --      1.2800                 1.3712                 1.2364
 Frc consts  --      1.3603                 1.6489                 1.5516
 IR Inten    --    142.6101                31.1379                20.0315

                     28                     29                     30
                      A                      A                      A
 Frequencies --   1528.6248              1531.4049              1545.2608
 Red. masses --      1.0562                 1.0865                 1.0526
 Frc consts  --      1.4541                 1.5013                 1.4808
 IR Inten    --     18.0138                11.7589                15.2798

                     31                     32                     33
                      A                      A                      A
 Frequencies --   1694.5635              2122.9286              3090.2385
 Red. masses --     10.3305                 6.5176                 1.0352
 Frc consts  --     17.4778                17.3065                 5.8246
 IR Inten    --    183.3938               110.1792                12.2218

                     34                     35                     36
                      A                      A                      A
 Frequencies --   3128.7686              3169.9433              3176.5471
 Red. masses --      1.0612                 1.0985                 1.1023
 Frc consts  --      6.1208                 6.5037                 6.5531
 IR Inten    --     15.1027                18.2259                 2.6483

                     37                     38                     39
                      A                      A                      A
 Frequencies --   3205.6164              3483.9630              3558.6261
 Red. masses --      1.1068                 1.1448                 1.0680
 Frc consts  --      6.7010                 8.1869                 7.9687
 IR Inten    --     13.7981                67.4502                18.2230

 - Thermochemistry -
 -------------------
 Temperature   298.150 Kelvin.  Pressure   1.00000 Atm.
 Atom     1 has atomic number  8 and mass  15.99491

 Molecular mass:   115.03952 amu.
 Principal axes and moments of inertia in atomic units:
                           1         2         3
     Eigenvalues --   331.580871959.931662135.52539
           X            0.99994   0.00868  -0.00608
           Y           -0.00878   0.99985  -0.01511
           Z            0.00595   0.01516   0.99987
 This molecule is an asymmetric top.
 Rotational symmetry number  1.
 Rotational temperatures (Kelvin)      0.26122     0.04419     0.04056
 Rotational constants (GHZ):           5.44284     0.92082     0.84510
    1 imaginary frequencies ignored.
 Zero-point vibrational energy     294901.6 (Joules/Mol)
                                   70.48317 (Kcal/Mol)
 Warning -- explicit consideration of  11 degrees of freedom as
           vibrations may cause significant error
 Vibrational temperatures:     45.61    66.26   118.27   155.28   287.83
          (Kelvin)            343.76   412.43   448.58   473.01   610.75
                              795.77   899.20  1121.50  1147.33  1151.72
                             1171.31  1240.65  1255.13  1343.12  1536.36
                             1648.77  1755.73  1878.69  1932.32  2055.49
                             2099.80  2199.35  2203.35  2223.29  2438.10
                             3054.42  4446.16  4501.60  4560.84  4570.34
                             4612.17  5012.65  5120.07

 Zero-point correction=                           0.112322 (Hartree/Particle)
 Thermal correction to Energy=                    0.121871
 Thermal correction to Enthalpy=                  0.122815
 Thermal correction to Gibbs Free Energy=         0.075535
 Sum of electronic and zero-point Energies=           -419.849461
 Sum of electronic and thermal Energies=              -419.839913
 Sum of electronic and thermal Enthalpies=            -419.838969
 Sum of electronic and thermal Free Energies=         -419.886248

                     E (Thermal)             CV                S
                      KCal/Mol        Cal/Mol-Kelvin    Cal/Mol-Kelvin
 Total                   76.475             31.556             99.509
 Electronic               0.000              0.000              1.377
 Translational            0.889              2.981             40.136
 Rotational               0.889              2.981             28.719
 Vibrational             74.698             25.594             29.277
 Vibration     1          0.594              1.983              5.720
 Vibration     2          0.595              1.979              4.980
 Vibration     3          0.600              1.961              3.838
 Vibration     4          0.606              1.943              3.306
 Vibration     5          0.638              1.840              2.133
 Vibration     6          0.657              1.781              1.811
 Vibration     7          0.684              1.698              1.494
 Vibration     8          0.700              1.651              1.353
 Vibration     9          0.712              1.618              1.266
 Vibration    10          0.786              1.417              0.877
 Vibration    11          0.908              1.133              0.538

                           ! Non-Optimized Parameters !
 Normal termination of Gaussian 16 at Fri Jun  6 17:58:01 2025.
