 Gaussian 16, Revision A.03,
 Gaussian 16:  ES64L-G16RevA.03 25-Dec-2016

 --------------------------------------------------
 # opt=(calcfc,tight,noeigentest) freq 6-31+g m062x
 --------------------------------------------------

 -------------------
 Title Card Required
 -------------------
 Symbolic Z-matrix:
 Charge =  0 Multiplicity = 2

 SCF Done:  E(UM062X) =  -419.953448037     A.U. after   23 cycles
 SCF Done:  E(UM062X) =  -419.959522702     A.U. after   23 cycles
 SCF Done:  E(UM062X) =  -419.930302929     A.U. after   25 cycles
 SCF Done:  E(UM062X) =  -419.965584284     A.U. after   25 cycles
 SCF Done:  E(UM062X) =  -419.965052073     A.U. after   22 cycles
 SCF Done:  E(UM062X) =  -419.966776027     A.U. after   22 cycles
 SCF Done:  E(UM062X) =  -419.966805712     A.U. after   19 cycles
 SCF Done:  E(UM062X) =  -419.968182949     A.U. after   24 cycles
 SCF Done:  E(UM062X) =  -419.968980287     A.U. after   24 cycles
 SCF Done:  E(UM062X) =  -419.969312530     A.U. after   21 cycles
 SCF Done:  E(UM062X) =  -419.974162904     A.U. after   23 cycles
 SCF Done:  E(UM062X) =  -419.974167415     A.U. after   22 cycles
 SCF Done:  E(UM062X) =  -419.974171298     A.U. after   21 cycles
 SCF Done:  E(UM062X) =  -419.974172982     A.U. after   21 cycles
 SCF Done:  E(UM062X) =  -419.974173726     A.U. after   21 cycles
 SCF Done:  E(UM062X) =  -419.974173738     A.U. after   12 cycles
 SCF Done:  E(UM062X) =  -419.974173753     A.U. after   11 cycles
 SCF Done:  E(UM062X) =  -419.974173755     A.U. after   10 cycles
 SCF Done:  E(UM062X) =  -419.974173756     A.U. after   11 cycles
 Optimization completed.
    -- Stationary point found.
 Normal termination of Gaussian 16 at Sat Jun  7 12:30:11 2025.

 ------------------------------------------------------------------
 #N Geom=AllCheck Guess=TCheck SCRF=Check GenChk UM062X/6-31+G Freq
 ------------------------------------------------------------------

 Structure from the checkpoint file:  "ethyl_propiolate_non_planar.chk"
 -------------------
 Title Card Required
 -------------------
 Charge =  0 Multiplicity = 2

                         Standard orientation:
 ---------------------------------------------------------------------
 Center     Atomic      Atomic             Coordinates (Angstroms)
 Number     Number       Type             X           Y           Z
 ---------------------------------------------------------------------
      1          6           0        2.260062    1.678001   -0.297385
      2          1           0        3.159529    2.219488   -0.486197
      3          6           0        1.252634    1.046724   -0.083078
      4          6           0        0.117767    0.200785    0.171879
      5          8           0        0.199023   -1.030748    0.286771
      6          8           0       -1.040555    0.875834    0.280056
      7          6           0       -2.268288    0.094779    0.529698
      8          6           0       -2.779805   -0.513436   -0.763067
      9          1           0       -2.951207    0.835862    0.941640
     10          1           0       -2.038647   -0.666892    1.277819
     11          1           0       -3.733209   -1.017615   -0.580006
     12          1           0       -2.939392    0.263801   -1.514139
     13          1           0       -2.073547   -1.249963   -1.152801
     14          8           0        2.977470   -1.567971   -0.058180
     15          1           0        1.994747   -1.642721    0.096224
 ---------------------------------------------------------------------

 SCF Done:  E(UM062X) =  -419.974173756     A.U. after    1 cycles

 The electronic state is 2-A.
 Alpha  occ. eigenvalues --  -19.72346 -19.68377 -19.67777 -10.75105 -10.63114
 Alpha  occ. eigenvalues --  -10.60453 -10.59844 -10.55768  -1.27859  -1.18536
 Alpha  occ. eigenvalues --   -1.11038  -0.92204  -0.88738  -0.79660  -0.72758
 Alpha  occ. eigenvalues --   -0.65631  -0.62433  -0.59960  -0.57776  -0.55508
 Alpha  occ. eigenvalues --   -0.51912  -0.50555  -0.48054  -0.46735  -0.46150
 Alpha  occ. eigenvalues --   -0.43362  -0.40719  -0.40225  -0.39602  -0.38515
 Alpha  occ. eigenvalues --   -0.37775
 Alpha virt. eigenvalues --   -0.04136   0.01456   0.02409   0.02926   0.03061
 Alpha virt. eigenvalues --    0.04018   0.04484   0.06131   0.07129   0.07550
 Alpha virt. eigenvalues --    0.08142   0.08440   0.09142   0.11081   0.11704

  Beta  occ. eigenvalues --  -19.72346 -19.68387 -19.66126 -10.75105 -10.63114
  Beta  occ. eigenvalues --  -10.60442 -10.59838 -10.55768  -1.27864  -1.18536
  Beta  occ. eigenvalues --   -1.03066  -0.92187  -0.88717  -0.79650  -0.72750
  Beta  occ. eigenvalues --   -0.65611  -0.62410  -0.59908  -0.57763  -0.55424
  Beta  occ. eigenvalues --   -0.50583  -0.49038  -0.48033  -0.46127  -0.43361
  Beta  occ. eigenvalues --   -0.40687  -0.39822  -0.38515  -0.37886  -0.36247
  Beta virt. eigenvalues --   -0.06910  -0.04126   0.01474   0.02458   0.02940
  Beta virt. eigenvalues --    0.03064   0.04089   0.04516   0.06182   0.07189
  Beta virt. eigenvalues --    0.07587   0.08164   0.08468   0.09192   0.11111

 Mulliken charges and spin densities:
               1          2
     1  C   -0.259187   0.144413
     2  H    0.357009  -0.000511
     3  C    0.077717   0.079437
     4  C    0.125921  -0.217893
     5  O   -0.443477   0.011288
     6  O   -0.203322  -0.000353
     7  C   -0.232064  -0.002607
     8  C   -0.554894   0.000426
     9  H    0.225975  -0.000008
    10  H    0.238520  -0.000018
    11  H    0.212655  -0.000000
    12  H    0.223914  -0.000003
    13  H    0.238007  -0.000004
    14  O   -0.458086   1.025587
    15  H    0.451310  -0.039754
 Sum of Mulliken charges =  -0.00000   1.00000

 Dipole moment (field-independent basis, Debye):
    X=             -3.5113    Y=              2.0761    Z=              0.0318  Tot=              4.0792
 Quadrupole moment (field-independent basis, Debye-Ang):
   XX=            -46.2882   YY=            -49.0178   ZZ=            -47.8433
   XY=             11.3651   XZ=             -1.5546   YZ=             -1.0265

  Exact polarizability:  87.527  10.714  64.276  -4.462  -2.904  45.892
 Approx polarizability:  90.921  13.987  79.722  -7.654  -5.713  47.741

                      1                      2                      3
                      A                      A                      A
 Frequencies --     36.1048                52.3436                79.3533
 Red. masses --      6.0061                 8.5036                 3.5277
 Frc consts  --      0.0046                 0.0137                 0.0131
 IR Inten    --      1.1394                 5.8957                 2.1592

                      4                      5                      6
                      A                      A                      A
 Frequencies --    105.0211               158.5963               164.9445
 Red. masses --      4.1367                 3.5945                 3.4819
 Frc consts  --      0.0269                 0.0533                 0.0558
 IR Inten    --      4.1518                 1.1641                 1.7016

                      7                      8                      9
                      A                      A                      A
 Frequencies --    230.2307               306.5033               344.3375
 Red. masses --      1.2990                 3.4541                 3.5435
 Frc consts  --      0.0406                 0.1912                 0.2475
 IR Inten    --      1.7548                 8.1714                18.7117

                     10                     11                     12
                      A                      A                      A
 Frequencies --    428.1876               484.0245               485.6345
 Red. masses --      4.1245                 1.0405                 1.0504
 Frc consts  --      0.4455                 0.1436                 0.1460
 IR Inten    --      5.5097               335.7252               178.8320

                     13                     14                     15
                      A                      A                      A
 Frequencies --    562.0651               639.7917               794.6601
 Red. masses --      4.0575                 5.5532                 2.8874
 Frc consts  --      0.7552                 1.3393                 1.0743
 IR Inten    --      1.7773                12.0847                73.0021

                     16                     17                     18
                      A                      A                      A
 Frequencies --    800.4725               818.6845               868.5801
 Red. masses --      1.4850                 1.4239                 1.9534
 Frc consts  --      0.5606                 0.5623                 0.8683
 IR Inten    --     56.8063                 1.7345                12.6317

                     19                     20                     21
                      A                      A                      A
 Frequencies --    876.7511               935.9311              1067.4772
 Red. masses --      2.7545                 3.1099                 3.6927
 Frc consts  --      1.2475                 1.6050                 2.4792
 IR Inten    --      9.2489                 0.7957                33.5251

                     22                     23                     24
                      A                      A                      A
 Frequencies --   1146.2438              1220.3451              1318.1485
 Red. masses --      1.9785                 1.6985                 2.3101
 Frc consts  --      1.5316                 1.4904                 2.3648
 IR Inten    --     25.9026                 4.1905               407.3222

                     25                     26                     27
                      A                      A                      A
 Frequencies --   1346.6746              1431.1981              1459.4702
 Red. masses --      1.4954                 1.4316                 1.2373
 Frc consts  --      1.5979                 1.7277                 1.5528
 IR Inten    --    230.6108                44.5554                19.6536

                     28                     29                     30
                      A                      A                      A
 Frequencies --   1528.4522              1531.0975              1544.9275
 Red. masses --      1.0575                 1.0891                 1.0525
 Frc consts  --      1.4556                 1.5043                 1.4801
 IR Inten    --     22.4655                11.5594                15.9499

                     31                     32                     33
                      A                      A                      A
 Frequencies --   1691.4301              2285.3716              3091.1734
 Red. masses --     10.2034                 5.7825                 1.0353
 Frc consts  --     17.1991                17.7944                 5.8285
 IR Inten    --    320.3005               113.1498                11.5265

                     34                     35                     36
                      A                      A                      A
 Frequencies --   3130.1951              3170.8098              3178.1057
 Red. masses --      1.0612                 1.0984                 1.1024
 Frc consts  --      6.1262                 6.5067                 6.5602
 IR Inten    --     14.1273                17.4786                 2.2478

                     37                     38                     39
                      A                      A                      A
 Frequencies --   3207.2998              3443.4187              3515.7658
 Red. masses --      1.1070                 1.0671                 1.1712
 Frc consts  --      6.7091                 7.4548                 8.5294
 IR Inten    --     12.4810               201.6953                61.3289

 - Thermochemistry -
 -------------------
 Temperature   298.150 Kelvin.  Pressure   1.00000 Atm.
 Atom     1 has atomic number  6 and mass  12.00000

 Molecular mass:   115.03952 amu.
 Principal axes and moments of inertia in atomic units:
                           1         2         3
     Eigenvalues --   542.079491676.454702066.97115
           X            0.99965   0.02593   0.00560
           Y           -0.02595   0.99966   0.00355
           Z           -0.00551  -0.00369   0.99998
 This molecule is an asymmetric top.
 Rotational symmetry number  1.
 Warning -- assumption of classical behavior for rotation
           may cause significant error
 Rotational temperatures (Kelvin)      0.15978     0.05166     0.04190
 Rotational constants (GHZ):           3.32929     1.07652     0.87313
 Zero-point vibrational energy     295955.1 (Joules/Mol)
                                   70.73496 (Kcal/Mol)
 Warning -- explicit consideration of  13 degrees of freedom as
           vibrations may cause significant error
 Vibrational temperatures:     51.95    75.31   114.17   151.10   228.18
          (Kelvin)            237.32   331.25   440.99   495.42   616.07
                              696.40   698.72   808.69   920.52  1143.34
                             1151.70  1177.90  1249.69  1261.45  1346.60
                             1535.86  1649.19  1755.80  1896.52  1937.56
                             2059.17  2099.85  2199.10  2202.91  2222.81
                             2433.59  3288.14  4447.51  4503.65  4562.09
                             4572.59  4614.59  4954.31  5058.40

 Zero-point correction=                           0.112723 (Hartree/Particle)
 Thermal correction to Energy=                    0.122876
 Thermal correction to Enthalpy=                  0.123821
 Thermal correction to Gibbs Free Energy=         0.075367
 Sum of electronic and zero-point Energies=           -419.861450
 Sum of electronic and thermal Energies=              -419.851297
 Sum of electronic and thermal Enthalpies=            -419.850353
 Sum of electronic and thermal Free Energies=         -419.898807

                     E (Thermal)             CV                S
                      KCal/Mol        Cal/Mol-Kelvin    Cal/Mol-Kelvin
 Total                   77.106             33.581            101.979
 Electronic               0.000              0.000              1.377
 Translational            0.889              2.981             40.136
 Rotational               0.889              2.981             29.020
 Vibrational             75.329             27.619             31.446
 Vibration     1          0.594              1.982              5.462
 Vibration     2          0.596              1.977              4.727
 Vibration     3          0.600              1.963              3.907
 Vibration     4          0.605              1.945              3.359
 Vibration     5          0.621              1.893              2.566
 Vibration     6          0.623              1.886              2.492
 Vibration     7          0.652              1.795              1.877
 Vibration     8          0.697              1.661              1.381
 Vibration     9          0.723              1.587              1.192
 Vibration    10          0.790              1.409              0.865
 Vibration    11          0.840              1.285              0.699
 Vibration    12          0.842              1.282              0.695
 Vibration    13          0.918              1.113              0.520

                           ! Non-Optimized Parameters !
 Normal termination of Gaussian 16 at Sat Jun  7 12:30:43 2025.
