 Gaussian 16, Revision A.03,
 Gaussian 16:  ES64L-G16RevA.03 25-Dec-2016

 ----------------------------------------------------------------------
 # irc=(calcfc,maxpoints=10,maxcycle=900,stepsize=5) 6-311++g(d,p) m062
 x
 ----------------------------------------------------------------------

 -------------------
 Title Card Required
 -------------------
 Symbolic Z-matrix:
 Charge =  0 Multiplicity = 2

 SCF Done:  E(UM062X) =  -420.201852325     A.U. after   23 cycles
 SCF Done:  E(UM062X) =  -420.202028641     A.U. after   21 cycles
 SCF Done:  E(UM062X) =  -420.202484167     A.U. after   21 cycles
 SCF Done:  E(UM062X) =  -420.203121634     A.U. after   21 cycles
 SCF Done:  E(UM062X) =  -420.203862932     A.U. after   20 cycles
 SCF Done:  E(UM062X) =  -420.204643848     A.U. after   22 cycles
 SCF Done:  E(UM062X) =  -420.205416765     A.U. after   22 cycles
 SCF Done:  E(UM062X) =  -420.206105043     A.U. after   19 cycles
 SCF Done:  E(UM062X) =  -420.206787170     A.U. after   19 cycles
 SCF Done:  E(UM062X) =  -420.207402209     A.U. after   19 cycles
 SCF Done:  E(UM062X) =  -420.202063164     A.U. after   22 cycles
 SCF Done:  E(UM062X) =  -420.202752240     A.U. after   20 cycles
 SCF Done:  E(UM062X) =  -420.203982419     A.U. after   19 cycles
 SCF Done:  E(UM062X) =  -420.205777397     A.U. after   18 cycles
 SCF Done:  E(UM062X) =  -420.208124721     A.U. after   18 cycles
 SCF Done:  E(UM062X) =  -420.210986886     A.U. after   18 cycles
 SCF Done:  E(UM062X) =  -420.214307991     A.U. after   17 cycles
 SCF Done:  E(UM062X) =  -420.218016147     A.U. after   16 cycles
 SCF Done:  E(UM062X) =  -420.222023182     A.U. after   16 cycles
 SCF Done:  E(UM062X) =  -420.226224519     A.U. after   15 cycles

                          Input orientation:
 ---------------------------------------------------------------------
 Center     Atomic      Atomic             Coordinates (Angstroms)
 Number     Number       Type             X           Y           Z
 ---------------------------------------------------------------------
      1          6           0        2.725616   -0.439691    0.416622
      2          1           0        3.773302   -0.440486    0.626260
      3          6           0        1.559911   -0.045501    0.079524
      4          6           0        0.163099   -0.566199   -0.143398
      5          8           0       -0.196505   -1.152042   -1.122298
      6          8           0       -0.622198   -0.155028    0.850240
      7          6           0       -2.042097   -0.304807    0.639767
      8          6           0       -2.563109    0.783907   -0.277968
      9          1           0       -2.468089   -0.231814    1.638721
     10          1           0       -2.233507   -1.298788    0.234365
     11          1           0       -3.645709    0.687845   -0.381190
     12          1           0       -2.337678    1.768977    0.132719
     13          1           0       -2.112797    0.701436   -1.267491
     14          8           0        1.411207    1.535958   -0.356822
     15          1           0        1.485289    1.994339    0.489335
 ---------------------------------------------------------------------

 Alpha  occ. eigenvalues --  -19.68254 -19.64593 -19.63375 -10.70222 -10.63461
 Alpha  occ. eigenvalues --  -10.60574 -10.59413 -10.53637  -1.25717  -1.16489
 Alpha  occ. eigenvalues --   -1.12326  -0.90954  -0.87627  -0.78124  -0.70879
 Alpha  occ. eigenvalues --   -0.64732  -0.61635  -0.59461  -0.57718  -0.55098
 Alpha  occ. eigenvalues --   -0.53079  -0.49457  -0.48503  -0.46371  -0.45266
 Alpha  occ. eigenvalues --   -0.42257  -0.41671  -0.38529  -0.37494  -0.36911
 Alpha  occ. eigenvalues --   -0.31239
 Alpha virt. eigenvalues --   -0.00568   0.00329   0.00575   0.01471   0.02219
 Alpha virt. eigenvalues --    0.03075   0.03197   0.04416   0.05530   0.06063
 Alpha virt. eigenvalues --    0.07223   0.07823   0.08190   0.10156   0.10328

  Beta  occ. eigenvalues --  -19.68250 -19.64140 -19.63378 -10.70167 -10.63615
  Beta  occ. eigenvalues --  -10.60574 -10.58725 -10.53637  -1.25680  -1.16482
  Beta  occ. eigenvalues --   -1.10739  -0.89878  -0.86392  -0.77435  -0.69920
  Beta  occ. eigenvalues --   -0.64513  -0.60631  -0.59123  -0.57381  -0.54521
  Beta  occ. eigenvalues --   -0.52787  -0.48775  -0.47183  -0.45311  -0.45199
  Beta  occ. eigenvalues --   -0.41912  -0.40649  -0.38477  -0.36856  -0.35394
  Beta virt. eigenvalues --   -0.08125  -0.00569   0.00476   0.01203   0.01722
  Beta virt. eigenvalues --    0.02382   0.03110   0.03463   0.04593   0.05525
  Beta virt. eigenvalues --    0.05954   0.07232   0.07775   0.08105   0.10231

 Mulliken charges and spin densities:
               1          2
     1  C    0.086447   1.070931
     2  H    0.227614  -0.026448
     3  C   -0.075165  -0.311647
     4  C   -0.219127   0.051742
     5  O   -0.196351   0.000417
     6  O    0.004226   0.002094
     7  C   -0.289144   0.001781
     8  C   -0.423366   0.001085
     9  H    0.191031   0.000227
    10  H    0.194278  -0.000191
    11  H    0.165463  -0.000072
    12  H    0.163484  -0.000069
    13  H    0.195453  -0.000708
    14  O   -0.277648   0.209034
    15  H    0.252804   0.001824
 Sum of Mulliken charges =  -0.00000   1.00000

 Dipole moment (field-independent basis, Debye):
    X=             -0.1304    Y=              0.3979    Z=              3.0900  Tot=              3.1182
 Quadrupole moment (field-independent basis, Debye-Ang):
   XX=            -33.7904   YY=            -48.8384   ZZ=            -51.2555
   XY=             -1.3547   XZ=              2.9770   YZ=              0.5356

  Exact polarizability:   0.000   0.000   0.000   0.000   0.000   0.000
 Approx polarizability:  88.729  -6.915  79.304   6.636   2.538  75.049

 Normal termination of Gaussian 16 at Fri Jun 13 17:24:50 2025.
