 Gaussian 16, Revision A.03,
 Gaussian 16:  ES64L-G16RevA.03 25-Dec-2016

 -----------------------
 # ccsd(t)/6-311++g** sp
 -----------------------

 -------------------
 Title Card Required
 -------------------
 Symbolic Z-matrix:
 Charge =  0 Multiplicity = 2

                         Standard orientation:
 ---------------------------------------------------------------------
 Center     Atomic      Atomic             Coordinates (Angstroms)
 Number     Number       Type             X           Y           Z
 ---------------------------------------------------------------------
      1          6           0        2.861639   -0.379524    0.300656
      2          1           0        3.917901   -0.393091    0.449317
      3          6           0        1.658896   -0.233884    0.091510
      4          6           0        0.262726   -0.622820   -0.054793
      5          8           0       -0.140193   -1.491494   -0.820364
      6          8           0       -0.536030    0.080496    0.789508
      7          6           0       -1.986875   -0.155867    0.697207
      8          6           0       -2.565843    0.598548   -0.485969
      9          1           0       -2.362999    0.210280    1.651408
     10          1           0       -2.153173   -1.232391    0.615770
     11          1           0       -3.652650    0.475098   -0.508812
     12          1           0       -2.338755    1.664504   -0.408499
     13          1           0       -2.157402    0.217747   -1.424915
     14          8           0        1.456791    1.639721   -0.475699
     15          1           0        1.119278    1.989358    0.386513
 ---------------------------------------------------------------------

 SCF Done:  E(UHF) =  -417.970211073     A.U. after   38 cycles
 E2 =    -0.1257757490D+01 EUMP2 =    -0.41922796856335D+03
 CCSD(T)= -0.41935185538D+03

 The electronic state is 2-A.
 Alpha  occ. eigenvalues --  -20.61835 -20.61220 -20.55976 -11.42073 -11.30323
 Alpha  occ. eigenvalues --  -11.27908 -11.26880 -11.22900  -1.46147  -1.36944
 Alpha  occ. eigenvalues --   -1.35892  -1.08048  -1.04422  -0.92802  -0.84210
 Alpha  occ. eigenvalues --   -0.75987  -0.72939  -0.68602  -0.67666  -0.65767
 Alpha  occ. eigenvalues --   -0.63275  -0.62884  -0.57965  -0.55094  -0.53916
 Alpha  occ. eigenvalues --   -0.53116  -0.50807  -0.47334  -0.45631  -0.43568
 Alpha  occ. eigenvalues --   -0.42270
 Alpha virt. eigenvalues --    0.03786   0.04317   0.05787   0.05970   0.07525
 Alpha virt. eigenvalues --    0.08926   0.09344   0.09745   0.10843   0.11787
 Alpha virt. eigenvalues --    0.13104   0.13611   0.13824   0.16132   0.16323

  Beta  occ. eigenvalues --  -20.61208 -20.58160 -20.56635 -11.41606 -11.30325
  Beta  occ. eigenvalues --  -11.29072 -11.25364 -11.22901  -1.46398  -1.36974
  Beta  occ. eigenvalues --   -1.24089  -1.07896  -1.03603  -0.91443  -0.83555
  Beta  occ. eigenvalues --   -0.75603  -0.71810  -0.69145  -0.66219  -0.63397
  Beta  occ. eigenvalues --   -0.62823  -0.58385  -0.55577  -0.53989  -0.50975
  Beta  occ. eigenvalues --   -0.50344  -0.48620  -0.47278  -0.44118  -0.42814
  Beta virt. eigenvalues --    0.03803   0.04312   0.04982   0.05973   0.07006
  Beta virt. eigenvalues --    0.07979   0.09136   0.09375   0.10227   0.11951
  Beta virt. eigenvalues --    0.12136   0.13488   0.13911   0.14985   0.16319

 Mulliken charges and spin densities:
               1          2
     1  C   -0.443006   1.241784
     2  H    0.227748  -0.091388
     3  C    1.131540  -1.088963
     4  C   -0.821248   0.243738
     5  O   -0.286293  -0.137193
     6  O   -0.139674  -0.000119
     7  C   -0.170462   0.003007
     8  C   -0.376377   0.000758
     9  H    0.164147  -0.000115
    10  H    0.180352  -0.000190
    11  H    0.139392  -0.000091
    12  H    0.135673  -0.000260
    13  H    0.192288  -0.000710
    14  O   -0.181329   0.858962
    15  H    0.247251  -0.029219
 Sum of Mulliken charges =  -0.00000   1.00000

 Dipole moment (field-independent basis, Debye):
    X=             -0.4839    Y=              1.3956    Z=              2.7680  Tot=              3.1375
 Quadrupole moment (field-independent basis, Debye-Ang):
   XX=            -33.8798   YY=            -50.3727   ZZ=            -50.1787
   XY=             -2.3916   XZ=              1.9518   YZ=             -0.4908

 419.2768626\MP4SDQ=-419.287061\CCSD=-419.2959495\CCSD(T)=-419.3518554\
 Normal termination of Gaussian 16 at Sun Jun  8 05:46:23 2025.
