 Gaussian 16, Revision A.03,
 Gaussian 16:  ES64L-G16RevA.03 25-Dec-2016

 --------------------------------------------------
 # opt=(calcfc,tight,noeigentest) freq 6-31+g m062x
 --------------------------------------------------

 -------------------
 Title Card Required
 -------------------
 Symbolic Z-matrix:
 Charge =  0 Multiplicity = 2

 SCF Done:  E(UM062X) =  -419.934754773     A.U. after   22 cycles
 SCF Done:  E(UM062X) =  -419.962463805     A.U. after   22 cycles
 SCF Done:  E(UM062X) =  -419.947742495     A.U. after   22 cycles
 SCF Done:  E(UM062X) =  -419.996437139     A.U. after   19 cycles
 SCF Done:  E(UM062X) =  -419.986396126     A.U. after   20 cycles
 SCF Done:  E(UM062X) =  -420.004368272     A.U. after   18 cycles
 SCF Done:  E(UM062X) =  -420.014041364     A.U. after   18 cycles
 SCF Done:  E(UM062X) =  -419.998096434     A.U. after   19 cycles
 SCF Done:  E(UM062X) =  -420.014177450     A.U. after   17 cycles
 SCF Done:  E(UM062X) =  -420.016447337     A.U. after   15 cycles
 SCF Done:  E(UM062X) =  -420.018029820     A.U. after   14 cycles
 SCF Done:  E(UM062X) =  -420.018022128     A.U. after   16 cycles
 SCF Done:  E(UM062X) =  -420.018078850     A.U. after   15 cycles
 SCF Done:  E(UM062X) =  -420.018113937     A.U. after   14 cycles
 SCF Done:  E(UM062X) =  -420.018180081     A.U. after   14 cycles
 SCF Done:  E(UM062X) =  -420.018215309     A.U. after   13 cycles
 SCF Done:  E(UM062X) =  -420.018227063     A.U. after   13 cycles
 SCF Done:  E(UM062X) =  -420.018228813     A.U. after   12 cycles
 SCF Done:  E(UM062X) =  -420.018228818     A.U. after    8 cycles
 Optimization completed.
    -- Stationary point found.
 Normal termination of Gaussian 16 at Sat Jun  7 12:17:29 2025.

 ------------------------------------------------------------------
 #N Geom=AllCheck Guess=TCheck SCRF=Check GenChk UM062X/6-31+G Freq
 ------------------------------------------------------------------

 Structure from the checkpoint file:  "ethyl_propiolate_non_planar.chk"
 -------------------
 Title Card Required
 -------------------
 Charge =  0 Multiplicity = 2

                         Standard orientation:
 ---------------------------------------------------------------------
 Center     Atomic      Atomic             Coordinates (Angstroms)
 Number     Number       Type             X           Y           Z
 ---------------------------------------------------------------------
      1          6           0        1.916274   -1.550234    0.155940
      2          1           0        2.800105   -2.142805    0.323614
      3          6           0        1.610396   -0.267125    0.069096
      4          6           0        0.235967    0.231988   -0.178639
      5          8           0       -0.001119    1.444907   -0.250002
      6          8           0       -0.691078   -0.730913   -0.319358
      7          6           0       -2.085304   -0.315750   -0.551926
      8          6           0       -2.746490    0.072921    0.757597
      9          1           0       -2.537665   -1.198887   -1.000176
     10          1           0       -2.079962    0.509977   -1.267069
     11          1           0       -3.801943    0.303275    0.584970
     12          1           0       -2.684971   -0.749152    1.474684
     13          1           0       -2.269177    0.957807    1.185055
     14          8           0        2.550032    0.744215    0.204581
     15          1           0        2.125870    1.623317    0.104744
 ---------------------------------------------------------------------

 SCF Done:  E(UM062X) =  -420.018228818     A.U. after    1 cycles

 The electronic state is 2-A.
 Alpha  occ. eigenvalues --  -19.71275 -19.67834 -19.67130 -10.72565 -10.64488
 Alpha  occ. eigenvalues --  -10.62511 -10.60125 -10.55267  -1.26896  -1.19924
 Alpha  occ. eigenvalues --   -1.16964  -0.91854  -0.87763  -0.77963  -0.72211
 Alpha  occ. eigenvalues --   -0.66235  -0.64552  -0.59296  -0.57700  -0.56094
 Alpha  occ. eigenvalues --   -0.54655  -0.50340  -0.48112  -0.46860  -0.45738
 Alpha  occ. eigenvalues --   -0.44064  -0.42369  -0.39805  -0.38725  -0.33560
 Alpha  occ. eigenvalues --   -0.32855
 Alpha virt. eigenvalues --   -0.03214   0.01613   0.03070   0.03286   0.03745
 Alpha virt. eigenvalues --    0.05298   0.06129   0.06613   0.07682   0.08392
 Alpha virt. eigenvalues --    0.09413   0.09912   0.10500   0.11009   0.11337

  Beta  occ. eigenvalues --  -19.71263 -19.67785 -19.67155 -10.72516 -10.64599
  Beta  occ. eigenvalues --  -10.62511 -10.59066 -10.55268  -1.26889  -1.19774
  Beta  occ. eigenvalues --   -1.16946  -0.91015  -0.86676  -0.77296  -0.71373
  Beta  occ. eigenvalues --   -0.64984  -0.64060  -0.58695  -0.57392  -0.55807
  Beta  occ. eigenvalues --   -0.54361  -0.50416  -0.48116  -0.46780  -0.45878
  Beta  occ. eigenvalues --   -0.44004  -0.42305  -0.39216  -0.38700  -0.30946
  Beta virt. eigenvalues --   -0.06059  -0.02238   0.01418   0.02868   0.03298
  Beta virt. eigenvalues --    0.03970   0.05308   0.06278   0.06644   0.07585
  Beta virt. eigenvalues --    0.08180   0.08981   0.09689   0.10057   0.10930

 Mulliken charges and spin densities:
               1          2
     1  C   -0.110671   1.155206
     2  H    0.235407  -0.007503
     3  C    0.129751  -0.156975
     4  C    0.277099   0.013866
     5  O   -0.479672  -0.015708
     6  O   -0.273722   0.005595
     7  C   -0.188591  -0.001392
     8  C   -0.582838   0.002179
     9  H    0.225252   0.000120
    10  H    0.236083   0.000049
    11  H    0.208980  -0.000037
    12  H    0.222400  -0.000045
    13  H    0.235209   0.000030
    14  O   -0.597583  -0.005884
    15  H    0.462896   0.010497
 Sum of Mulliken charges =  -0.00000   1.00000

 Dipole moment (field-independent basis, Debye):
    X=             -2.3384    Y=             -1.0486    Z=             -0.1280  Tot=              2.5659
 Quadrupole moment (field-independent basis, Debye-Ang):
   XX=            -44.5066   YY=            -48.8343   ZZ=            -48.0390
   XY=             -1.5019   XZ=              0.5645   YZ=              0.0126

  Exact polarizability:  75.931  -6.336  78.476   2.478  -1.845  46.779
 Approx polarizability:  70.376  -6.574 104.366   3.529  -2.845  49.738

                      1                      2                      3
                      A                      A                      A
 Frequencies --     70.4625                87.9101               116.4084
 Red. masses --      2.9280                 5.0450                 6.4878
 Frc consts  --      0.0086                 0.0230                 0.0518
 IR Inten    --      0.8104                 1.1091                 0.7209

                      4                      5                      6
                      A                      A                      A
 Frequencies --    185.2583               243.7097               323.0896
 Red. masses --      1.8186                 1.5696                 2.9530
 Frc consts  --      0.0368                 0.0549                 0.1816
 IR Inten    --      0.9287                 1.8131                 9.7507

                      7                      8                      9
                      A                      A                      A
 Frequencies --    375.2568               402.0772               439.1950
 Red. masses --      5.0819                 3.3264                 1.4173
 Frc consts  --      0.4216                 0.3168                 0.1611
 IR Inten    --     32.3739                 3.2036               134.2751

                     10                     11                     12
                      A                      A                      A
 Frequencies --    457.9608               517.7052               626.5150
 Red. masses --      2.0839                 3.8859                 3.6258
 Frc consts  --      0.2575                 0.6136                 0.8385
 IR Inten    --     30.3662                 1.4691                18.9949

                     13                     14                     15
                      A                      A                      A
 Frequencies --    745.9244               776.4688               808.3186
 Red. masses --      1.8897                 3.3164                 1.5915
 Frc consts  --      0.6195                 1.1781                 0.6127
 IR Inten    --     18.9383                78.6783                 2.9324

                     16                     17                     18
                      A                      A                      A
 Frequencies --    865.1377               879.1845               923.2608
 Red. masses --      1.6773                 2.7138                 3.2515
 Frc consts  --      0.7397                 1.2359                 1.6330
 IR Inten    --      3.9958                13.4568                 3.8239

                     19                     20                     21
                      A                      A                      A
 Frequencies --   1056.9968              1145.7072              1183.6854
 Red. masses --      3.2998                 2.0088                 4.9627
 Frc consts  --      2.1722                 1.5536                 4.0968
 IR Inten    --     23.4002                13.7774               197.2901

                     22                     23                     24
                      A                      A                      A
 Frequencies --   1225.2253              1272.3877              1337.0225
 Red. masses --      1.9149                 1.2871                 1.1632
 Frc consts  --      1.6937                 1.2277                 1.2251
 IR Inten    --     57.0673               366.6789                11.2979

                     25                     26                     27
                      A                      A                      A
 Frequencies --   1373.3267              1437.1542              1459.3773
 Red. masses --      2.7560                 1.6399                 1.2447
 Frc consts  --      3.0625                 1.9956                 1.5619
 IR Inten    --    181.7331                58.7306                17.7165

                     28                     29                     30
                      A                      A                      A
 Frequencies --   1528.9644              1532.3438              1545.6115
 Red. masses --      1.0517                 1.0936                 1.0539
 Frc consts  --      1.4486                 1.5130                 1.4834
 IR Inten    --     22.5254                10.4326                16.3700

                     31                     32                     33
                      A                      A                      A
 Frequencies --   1713.2092              1743.5227              3089.8809
 Red. masses --     10.1199                 6.6675                 1.0352
 Frc consts  --     17.5004                11.9417                 5.8232
 IR Inten    --    288.2705                24.2545                11.9706

                     34                     35                     36
                      A                      A                      A
 Frequencies --   3128.0402              3169.5147              3175.8839
 Red. masses --      1.0612                 1.0986                 1.1022
 Frc consts  --      6.1177                 6.5023                 6.5499
 IR Inten    --     15.2487                18.2759                 2.8580

                     37                     38                     39
                      A                      A                      A
 Frequencies --   3204.5298              3346.4172              3635.6299
 Red. masses --      1.1069                 1.1040                 1.0649
 Frc consts  --      6.6968                 7.2845                 8.2930
 IR Inten    --     13.0952                 7.4568               103.0655

 - Thermochemistry -
 -------------------
 Temperature   298.150 Kelvin.  Pressure   1.00000 Atm.
 Atom     1 has atomic number  6 and mass  12.00000

 Molecular mass:   115.03952 amu.
 Principal axes and moments of inertia in atomic units:
                           1         2         3
     Eigenvalues --   407.792701432.664801688.80933
           X            0.99995  -0.00626  -0.00740
           Y            0.00629   0.99997   0.00335
           Z            0.00738  -0.00340   0.99997
 This molecule is an asymmetric top.
 Rotational symmetry number  1.
 Rotational temperatures (Kelvin)      0.21240     0.06046     0.05129
 Rotational constants (GHZ):           4.42563     1.25971     1.06865
 Zero-point vibrational energy     305934.6 (Joules/Mol)
                                   73.12013 (Kcal/Mol)
 Warning -- explicit consideration of  11 degrees of freedom as
           vibrations may cause significant error
 Vibrational temperatures:    101.38   126.48   167.49   266.55   350.64
          (Kelvin)            464.85   539.91   578.50   631.90   658.90
                              744.86   901.42  1073.22  1117.17  1162.99
                             1244.74  1264.95  1328.37  1520.78  1648.42
                             1703.06  1762.83  1830.68  1923.68  1975.91
                             2067.74  2099.72  2199.84  2204.70  2223.79
                             2464.93  2508.54  4445.65  4500.55  4560.22
                             4569.39  4610.60  4814.75  5230.86

 Zero-point correction=                           0.116524 (Hartree/Particle)
 Thermal correction to Energy=                    0.125181
 Thermal correction to Enthalpy=                  0.126125
 Thermal correction to Gibbs Free Energy=         0.082245
 Sum of electronic and zero-point Energies=           -419.901704
 Sum of electronic and thermal Energies=              -419.893048
 Sum of electronic and thermal Enthalpies=            -419.892104
 Sum of electronic and thermal Free Energies=         -419.935984

                     E (Thermal)             CV                S
                      KCal/Mol        Cal/Mol-Kelvin    Cal/Mol-Kelvin
 Total                   78.552             30.428             92.353
 Electronic               0.000              0.000              1.377
 Translational            0.889              2.981             40.136
 Rotational               0.889              2.981             28.380
 Vibrational             76.775             24.466             22.460
 Vibration     1          0.598              1.968              4.140
 Vibration     2          0.601              1.958              3.706
 Vibration     3          0.608              1.936              3.159
 Vibration     4          0.631              1.860              2.275
 Vibration     5          0.659              1.773              1.776
 Vibration     6          0.708              1.629              1.294
 Vibration     7          0.746              1.523              1.058
 Vibration     8          0.768              1.466              0.955
 Vibration     9          0.799              1.385              0.829
 Vibration    10          0.816              1.343              0.772
 Vibration    11          0.873              1.211              0.615

 Optimization completed.
    -- Stationary point found.
 Normal termination of Gaussian 16 at Sat Jun  7 12:18:02 2025.
