 Gaussian 16, Revision A.03,
 Gaussian 16:  ES64L-G16RevA.03 25-Dec-2016

 -----------------------
 # ccsd(t)/6-311++g** sp
 -----------------------

 -------------------
 Title Card Required
 -------------------
 Symbolic Z-matrix:
 Charge =  0 Multiplicity = 2

                         Standard orientation:
 ---------------------------------------------------------------------
 Center     Atomic      Atomic             Coordinates (Angstroms)
 Number     Number       Type             X           Y           Z
 ---------------------------------------------------------------------
      1          6           0       -2.440444   -1.290250   -0.154186
      2          1           0       -3.317158   -1.875849   -0.318076
      3          6           0       -1.520036   -0.488021   -0.009866
      4          6           0       -0.189303   -0.025830    0.362468
      5          8           0        0.034943    0.999425    1.004030
      6          8           0        0.768780   -0.888026   -0.045121
      7          6           0        2.168597   -0.540593    0.262265
      8          6           0        2.687990    0.483870   -0.729853
      9          1           0        2.684522   -1.496217    0.183397
     10          1           0        2.210278   -0.171757    1.289546
     11          1           0        3.746719    0.680913   -0.537066
     12          1           0        2.585345    0.111540   -1.751801
     13          1           0        2.141673    1.425272   -0.636532
     14          8           0       -2.310726    1.239909   -0.574443
     15          1           0       -2.236178    1.680579    0.309834
 ---------------------------------------------------------------------

 SCF Done:  E(UHF) =  -417.970752165     A.U. after   37 cycles
 E2 =    -0.1255506493D+01 EUMP2 =    -0.41922625865770D+03
 CCSD(T)= -0.41935084449D+03

 The electronic state is 2-A.
 Alpha  occ. eigenvalues --  -20.61316 -20.60971 -20.56084 -11.42320 -11.30277
 Alpha  occ. eigenvalues --  -11.27985 -11.26655 -11.22869  -1.46283  -1.36648
 Alpha  occ. eigenvalues --   -1.35478  -1.08174  -1.04256  -0.92596  -0.84356
 Alpha  occ. eigenvalues --   -0.76013  -0.73155  -0.68895  -0.66406  -0.65283
 Alpha  occ. eigenvalues --   -0.63776  -0.62158  -0.57969  -0.55012  -0.54022
 Alpha  occ. eigenvalues --   -0.52382  -0.50780  -0.47916  -0.45794  -0.43420
 Alpha  occ. eigenvalues --   -0.42255
 Alpha virt. eigenvalues --    0.03885   0.04482   0.05925   0.06464   0.07161
 Alpha virt. eigenvalues --    0.08403   0.08722   0.09589   0.11199   0.11965
 Alpha virt. eigenvalues --    0.12811   0.13735   0.14506   0.14873   0.16148

  Beta  occ. eigenvalues --  -20.61355 -20.57281 -20.56620 -11.41899 -11.30290
  Beta  occ. eigenvalues --  -11.28917 -11.25404 -11.22870  -1.46583  -1.37003
  Beta  occ. eigenvalues --   -1.23010  -1.08175  -1.03456  -0.91219  -0.83827
  Beta  occ. eigenvalues --   -0.75725  -0.71964  -0.69158  -0.65963  -0.63531
  Beta  occ. eigenvalues --   -0.62092  -0.58384  -0.55592  -0.54163  -0.50923
  Beta  occ. eigenvalues --   -0.49050  -0.48401  -0.47196  -0.44589  -0.42775
  Beta virt. eigenvalues --    0.03941   0.04524   0.05407   0.06096   0.06905
  Beta virt. eigenvalues --    0.07902   0.08444   0.09387   0.10087   0.12058
  Beta virt. eigenvalues --    0.12617   0.13545   0.13982   0.14760   0.15428

 Mulliken charges and spin densities:
               1          2
     1  C   -0.707300   1.226776
     2  H    0.223456  -0.090401
     3  C    0.950943  -1.105194
     4  C   -0.400521   0.235012
     5  O   -0.331692  -0.116517
     6  O   -0.112860   0.005373
     7  C   -0.125786   0.000364
     8  C   -0.379274  -0.001035
     9  H    0.171300   0.000121
    10  H    0.176883   0.000307
    11  H    0.137211  -0.000367
    12  H    0.144517  -0.000077
    13  H    0.184980  -0.000050
    14  O   -0.186970   0.873276
    15  H    0.255112  -0.027588
 Sum of Mulliken charges =  -0.00000   1.00000

 Dipole moment (field-independent basis, Debye):
    X=              0.8274    Y=             -1.8297    Z=              0.4173  Tot=              2.0510
 Quadrupole moment (field-independent basis, Debye-Ang):
   XX=            -36.4872   YY=            -46.7479   ZZ=            -50.1028
   XY=              3.4319   XZ=             -2.3415   YZ=              0.0320

 -419.2762152\MP4SDQ=-419.2855039\CCSD=-419.2949801\CCSD(T)=-419.350844
 Normal termination of Gaussian 16 at Sun Jun  8 07:17:40 2025.
