 Gaussian 16, Revision A.03,
 Gaussian 16:  ES64L-G16RevA.03 25-Dec-2016

 -----------------------------------------------------
 # opt=(calcfc,tight,ts,noeigentest) freq 6-31+g m062x
 -----------------------------------------------------

 -------------------
 Title Card Required
 -------------------
 Symbolic Z-matrix:
 Charge =  0 Multiplicity = 2

 SCF Done:  E(UM062X) =  -419.934754773     A.U. after   22 cycles
 SCF Done:  E(UM062X) =  -419.946034900     A.U. after   25 cycles
 SCF Done:  E(UM062X) =  -419.954421715     A.U. after   24 cycles
 SCF Done:  E(UM062X) =  -419.954998766     A.U. after   21 cycles
 SCF Done:  E(UM062X) =  -419.955763825     A.U. after   24 cycles
 SCF Done:  E(UM062X) =  -419.956075196     A.U. after   20 cycles
 SCF Done:  E(UM062X) =  -419.956046998     A.U. after   22 cycles
 SCF Done:  E(UM062X) =  -419.956134763     A.U. after   20 cycles
 SCF Done:  E(UM062X) =  -419.956140008     A.U. after   19 cycles
 SCF Done:  E(UM062X) =  -419.956139436     A.U. after   19 cycles
 SCF Done:  E(UM062X) =  -419.956144670     A.U. after   14 cycles
 SCF Done:  E(UM062X) =  -419.956144674     A.U. after   12 cycles
 SCF Done:  E(UM062X) =  -419.956144673     A.U. after   15 cycles
 SCF Done:  E(UM062X) =  -419.956144641     A.U. after   16 cycles
 SCF Done:  E(UM062X) =  -419.956144637     A.U. after   15 cycles
 SCF Done:  E(UM062X) =  -419.956144634     A.U. after   14 cycles
 SCF Done:  E(UM062X) =  -419.956144636     A.U. after   12 cycles
 SCF Done:  E(UM062X) =  -419.956144642     A.U. after   14 cycles
 SCF Done:  E(UM062X) =  -419.956144643     A.U. after   11 cycles
 Optimization completed.
    -- Stationary point found.
 Normal termination of Gaussian 16 at Sat Jun  7 14:00:22 2025.

 ------------------------------------------------------------------
 #N Geom=AllCheck Guess=TCheck SCRF=Check GenChk UM062X/6-31+G Freq
 ------------------------------------------------------------------

 Structure from the checkpoint file:  "ethyl_propiolate_non_planar.chk"
 -------------------
 Title Card Required
 -------------------
 Charge =  0 Multiplicity = 2

                         Standard orientation:
 ---------------------------------------------------------------------
 Center     Atomic      Atomic             Coordinates (Angstroms)
 Number     Number       Type             X           Y           Z
 ---------------------------------------------------------------------
      1          6           0        2.440444   -1.290250    0.154186
      2          1           0        3.317158   -1.875849    0.318076
      3          6           0        1.520036   -0.488021    0.009866
      4          6           0        0.189303   -0.025830   -0.362468
      5          8           0       -0.034943    0.999425   -1.004030
      6          8           0       -0.768780   -0.888026    0.045121
      7          6           0       -2.168597   -0.540593   -0.262265
      8          6           0       -2.687990    0.483870    0.729853
      9          1           0       -2.684522   -1.496217   -0.183397
     10          1           0       -2.210278   -0.171757   -1.289546
     11          1           0       -3.746719    0.680914    0.537066
     12          1           0       -2.585345    0.111540    1.751801
     13          1           0       -2.141673    1.425272    0.636532
     14          8           0        2.310726    1.239909    0.574443
     15          1           0        2.236178    1.680579   -0.309834
 ---------------------------------------------------------------------

 SCF Done:  E(UM062X) =  -419.956144643     A.U. after    1 cycles

 The electronic state is 2-A.
 Alpha  occ. eigenvalues --  -19.71205 -19.67195 -19.66926 -10.73758 -10.62304
 Alpha  occ. eigenvalues --  -10.61970 -10.61083 -10.54998  -1.26631  -1.17477
 Alpha  occ. eigenvalues --   -1.11179  -0.92202  -0.88276  -0.78802  -0.72079
 Alpha  occ. eigenvalues --   -0.64725  -0.62708  -0.58449  -0.56533  -0.54446
 Alpha  occ. eigenvalues --   -0.53127  -0.49662  -0.47974  -0.47054  -0.45121
 Alpha  occ. eigenvalues --   -0.42514  -0.40006  -0.39397  -0.38296  -0.37732
 Alpha  occ. eigenvalues --   -0.33109
 Alpha virt. eigenvalues --   -0.02934   0.01740   0.02375   0.03230   0.03464
 Alpha virt. eigenvalues --    0.03966   0.04987   0.06458   0.07356   0.08035
 Alpha virt. eigenvalues --    0.08386   0.08659   0.09425   0.11038   0.12279

  Beta  occ. eigenvalues --  -19.71216 -19.66949 -19.65829 -10.73726 -10.62306
  Beta  occ. eigenvalues --  -10.62085 -10.60744 -10.54998  -1.26654  -1.17505
  Beta  occ. eigenvalues --   -1.06048  -0.91616  -0.87816  -0.78504  -0.71865
  Beta  occ. eigenvalues --   -0.64542  -0.62092  -0.58349  -0.56565  -0.54417
  Beta  occ. eigenvalues --   -0.50490  -0.49272  -0.47109  -0.45582  -0.42516
  Beta  occ. eigenvalues --   -0.40171  -0.39005  -0.38231  -0.37694  -0.35512
  Beta virt. eigenvalues --   -0.09265  -0.02379   0.01784   0.02485   0.03429
  Beta virt. eigenvalues --    0.03932   0.04370   0.04981   0.06463   0.07463
  Beta virt. eigenvalues --    0.08052   0.08429   0.08699   0.09430   0.11579

 Mulliken charges and spin densities:
               1          2
     1  C   -0.014120   0.525770
     2  H    0.319873  -0.018818
     3  C   -0.106840  -0.261534
     4  C    0.188820   0.061634
     5  O   -0.434447  -0.011978
     6  O   -0.236018   0.002022
     7  C   -0.250849  -0.000582
     8  C   -0.564223  -0.000365
     9  H    0.223590   0.000011
    10  H    0.236032  -0.000035
    11  H    0.208163  -0.000179
    12  H    0.222906   0.000001
    13  H    0.239409  -0.000014
    14  O   -0.430298   0.729342
    15  H    0.398003  -0.025275
 Sum of Mulliken charges =   0.00000   1.00000

 Dipole moment (field-independent basis, Debye):
    X=             -1.2871    Y=             -2.2702    Z=             -0.8525  Tot=              2.7454
 Quadrupole moment (field-independent basis, Debye-Ang):
   XX=            -37.0808   YY=            -47.5913   ZZ=            -50.7477
   XY=             -5.1502   XZ=             -3.2000   YZ=             -0.3751

  Exact polarizability:  84.064  -3.907  83.404   3.051  -0.898  52.078
 Approx polarizability:  81.859 -11.999 100.133   4.752  -9.060  59.135

 ******    1 imaginary frequencies (negative Signs) ******

                      1                      2                      3
                      A                      A                      A
 Frequencies --   -641.0577                21.7936                76.6428
 Red. masses --     12.9295                 6.4028                 3.3230
 Frc consts  --      3.1306                 0.0018                 0.0115
 IR Inten    --     59.0365                 8.9867                 3.2995

                      4                      5                      6
                      A                      A                      A
 Frequencies --    101.2037               151.3298               186.4574
 Red. masses --      3.4117                 2.0051                 2.0132
 Frc consts  --      0.0206                 0.0271                 0.0412
 IR Inten    --      4.2892                25.2721                27.9842

                      7                      8                      9
                      A                      A                      A
 Frequencies --    227.4762               260.7071               295.2521
 Red. masses --      1.4593                 3.1845                 2.1336
 Frc consts  --      0.0445                 0.1275                 0.1096
 IR Inten    --      2.0890                59.5000                55.2713

                     10                     11                     12
                      A                      A                      A
 Frequencies --    331.0022               400.6934               534.8195
 Red. masses --      3.1872                 3.9234                 3.9733
 Frc consts  --      0.2057                 0.3711                 0.6696
 IR Inten    --      4.2985                 2.8621                 1.4187

                     13                     14                     15
                      A                      A                      A
 Frequencies --    596.5443               630.1650               759.4131
 Red. masses --      2.8180                 1.7761                 1.8728
 Frc consts  --      0.5908                 0.4155                 0.6364
 IR Inten    --     18.9928                35.7074                80.1251

                     16                     17                     18
                      A                      A                      A
 Frequencies --    766.9783               803.6521               813.5001
 Red. masses --      2.1038                 1.3494                 1.5396
 Frc consts  --      0.7291                 0.5135                 0.6003
 IR Inten    --     70.6383                76.7197                 9.0865

                     19                     20                     21
                      A                      A                      A
 Frequencies --    872.5698               927.8829              1065.9115
 Red. masses --      2.3998                 3.0750                 3.5943
 Frc consts  --      1.0765                 1.5598                 2.4061
 IR Inten    --     11.9937                 2.2101                24.7043

                     22                     23                     24
                      A                      A                      A
 Frequencies --   1147.0991              1219.9164              1282.1926
 Red. masses --      1.9740                 1.6944                 5.3141
 Frc consts  --      1.5304                 1.4857                 5.1474
 IR Inten    --     23.2551                 2.4957               602.4145

                     25                     26                     27
                      A                      A                      A
 Frequencies --   1340.7613              1426.8822              1461.1404
 Red. masses --      1.1736                 1.3250                 1.2340
 Frc consts  --      1.2430                 1.5895                 1.5522
 IR Inten    --     49.1075                12.4334                20.6702

                     28                     29                     30
                      A                      A                      A
 Frequencies --   1528.2045              1531.3638              1544.6760
 Red. masses --      1.0495                 1.0873                 1.0527
 Frc consts  --      1.4441                 1.5023                 1.4799
 IR Inten    --     18.0687                10.1919                14.8140

                     31                     32                     33
                      A                      A                      A
 Frequencies --   1724.0056              2103.5805              3090.1164
 Red. masses --     10.8535                 6.5013                 1.0353
 Frc consts  --     19.0063                16.9500                 5.8246
 IR Inten    --    203.9270               116.9762                12.1012

                     34                     35                     36
                      A                      A                      A
 Frequencies --   3128.3815              3169.9904              3177.1502
 Red. masses --      1.0612                 1.0985                 1.1022
 Frc consts  --      6.1193                 6.5040                 6.5555
 IR Inten    --     15.6893                17.8992                 2.7483

                     37                     38                     39
                      A                      A                      A
 Frequencies --   3205.4181              3499.2264              3559.8041
 Red. masses --      1.1067                 1.1459                 1.0670
 Frc consts  --      6.6997                 8.2667                 7.9667
 IR Inten    --     13.5872                66.9746                31.9538

 - Thermochemistry -
 -------------------
 Temperature   298.150 Kelvin.  Pressure   1.00000 Atm.
 Atom     1 has atomic number  6 and mass  12.00000

 Molecular mass:   115.03952 amu.
 Principal axes and moments of inertia in atomic units:
                           1         2         3
     Eigenvalues --   462.949001525.473491730.35812
           X            0.99984  -0.01300  -0.01217
           Y            0.01319   0.99979   0.01552
           Z            0.01196  -0.01567   0.99981
 This molecule is an asymmetric top.
 Rotational symmetry number  1.
 Warning -- assumption of classical behavior for rotation
           may cause significant error
 Rotational temperatures (Kelvin)      0.18709     0.05678     0.05006
 Rotational constants (GHZ):           3.89836     1.18307     1.04299
    1 imaginary frequencies ignored.
 Zero-point vibrational energy     292869.2 (Joules/Mol)
                                   69.99742 (Kcal/Mol)
 Warning -- explicit consideration of  12 degrees of freedom as
           vibrations may cause significant error
 Vibrational temperatures:     31.36   110.27   145.61   217.73   268.27
          (Kelvin)            327.29   375.10   424.80   476.24   576.51
                              769.49   858.29   906.67  1092.63  1103.51
                             1156.28  1170.45  1255.43  1335.02  1533.61
                             1650.42  1755.19  1844.79  1929.06  2052.97
                             2102.26  2198.75  2203.29  2222.44  2480.46
                             3026.58  4445.99  4501.04  4560.91  4571.21
                             4611.88  5034.61  5121.76

 Zero-point correction=                           0.111548 (Hartree/Particle)
 Thermal correction to Energy=                    0.121179
 Thermal correction to Enthalpy=                  0.122123
 Thermal correction to Gibbs Free Energy=         0.075094
 Sum of electronic and zero-point Energies=           -419.844597
 Sum of electronic and thermal Energies=              -419.834966
 Sum of electronic and thermal Enthalpies=            -419.834021
 Sum of electronic and thermal Free Energies=         -419.881051

                     E (Thermal)             CV                S
                      KCal/Mol        Cal/Mol-Kelvin    Cal/Mol-Kelvin
 Total                   76.041             32.265             98.981
 Electronic               0.000              0.000              1.377
 Translational            0.889              2.981             40.136
 Rotational               0.889              2.981             28.593
 Vibrational             74.264             26.303             28.875
 Vibration     1          0.593              1.985              6.464
 Vibration     2          0.599              1.965              3.975
 Vibration     3          0.604              1.948              3.431
 Vibration     4          0.619              1.901              2.655
 Vibration     5          0.632              1.858              2.263
 Vibration     6          0.651              1.799              1.899
 Vibration     7          0.669              1.745              1.657
 Vibration     8          0.689              1.683              1.444
 Vibration     9          0.713              1.614              1.255
 Vibration    10          0.767              1.469              0.960
 Vibration    11          0.890              1.173              0.577
 Vibration    12          0.954              1.039              0.456

 Optimization completed.
    -- Stationary point found.
 Normal termination of Gaussian 16 at Sat Jun  7 14:00:54 2025.
