 Gaussian 16, Revision A.03,
 Gaussian 16:  ES64L-G16RevA.03 25-Dec-2016

 -----------------------------------------------------
 # opt=(calcfc,tight,ts,noeigentest) freq 6-31+g m062x
 -----------------------------------------------------

 -------------------
 Title Card Required
 -------------------
 Symbolic Z-matrix:
 Charge =  0 Multiplicity = 2

 SCF Done:  E(UM062X) =  -419.934709405     A.U. after   24 cycles
 SCF Done:  E(UM062X) =  -419.949800011     A.U. after   24 cycles
 SCF Done:  E(UM062X) =  -419.957022481     A.U. after   21 cycles
 SCF Done:  E(UM062X) =  -419.957790164     A.U. after   23 cycles
 SCF Done:  E(UM062X) =  -419.953704022     A.U. after   23 cycles
 SCF Done:  E(UM062X) =  -419.953647807     A.U. after   23 cycles
 SCF Done:  E(UM062X) =  -419.953754557     A.U. after   21 cycles
 SCF Done:  E(UM062X) =  -419.954206301     A.U. after   21 cycles
 SCF Done:  E(UM062X) =  -419.954796565     A.U. after   23 cycles
 SCF Done:  E(UM062X) =  -419.955496142     A.U. after   22 cycles
 SCF Done:  E(UM062X) =  -419.956970089     A.U. after   12 cycles
 SCF Done:  E(UM062X) =  -419.956970089     A.U. after    5 cycles
 SCF Done:  E(UM062X) =  -419.956872985     A.U. after   20 cycles
 SCF Done:  E(UM062X) =  -419.956959460     A.U. after   19 cycles
 SCF Done:  E(UM062X) =  -419.956931197     A.U. after   19 cycles
 SCF Done:  E(UM062X) =  -419.956969786     A.U. after   19 cycles
 SCF Done:  E(UM062X) =  -419.956970079     A.U. after   16 cycles
 SCF Done:  E(UM062X) =  -419.956970089     A.U. after   15 cycles
 SCF Done:  E(UM062X) =  -419.956970089     A.U. after   12 cycles
 Optimization completed.
    -- Stationary point found.
 Normal termination of Gaussian 16 at Sat Jun  7 14:20:53 2025.

 ------------------------------------------------------------------
 #N Geom=AllCheck Guess=TCheck SCRF=Check GenChk UM062X/6-31+G Freq
 ------------------------------------------------------------------

 Structure from the checkpoint file:  "ethyl_propiolate_non_planar.chk"
 -------------------
 Title Card Required
 -------------------
 Charge =  0 Multiplicity = 2

                         Standard orientation:
 ---------------------------------------------------------------------
 Center     Atomic      Atomic             Coordinates (Angstroms)
 Number     Number       Type             X           Y           Z
 ---------------------------------------------------------------------
      1          6           0       -2.861639   -0.379524   -0.300656
      2          1           0       -3.917901   -0.393091   -0.449317
      3          6           0       -1.658896   -0.233884   -0.091510
      4          6           0       -0.262726   -0.622820    0.054793
      5          8           0        0.140193   -1.491494    0.820364
      6          8           0        0.536030    0.080496   -0.789508
      7          6           0        1.986875   -0.155867   -0.697207
      8          6           0        2.565843    0.598548    0.485969
      9          1           0        2.362999    0.210280   -1.651408
     10          1           0        2.153173   -1.232391   -0.615770
     11          1           0        3.652650    0.475098    0.508812
     12          1           0        2.338755    1.664504    0.408499
     13          1           0        2.157402    0.217747    1.424915
     14          8           0       -1.456791    1.639721    0.475699
     15          1           0       -1.119278    1.989358   -0.386513
 ---------------------------------------------------------------------

 SCF Done:  E(UM062X) =  -419.956970089     A.U. after    1 cycles

 The electronic state is 2-A.
 Alpha  occ. eigenvalues --  -19.70955 -19.67718 -19.66871 -10.73593 -10.62227
 Alpha  occ. eigenvalues --  -10.62132 -10.61126 -10.54904  -1.26375  -1.17329
 Alpha  occ. eigenvalues --   -1.11789  -0.92046  -0.88396  -0.78904  -0.71833
 Alpha  occ. eigenvalues --   -0.64704  -0.62567  -0.58230  -0.56830  -0.54206
 Alpha  occ. eigenvalues --   -0.53493  -0.49618  -0.48475  -0.46572  -0.45343
 Alpha  occ. eigenvalues --   -0.42490  -0.40641  -0.39288  -0.38282  -0.37195
 Alpha  occ. eigenvalues --   -0.33425
 Alpha virt. eigenvalues --   -0.02252   0.01736   0.02125   0.02688   0.03534
 Alpha virt. eigenvalues --    0.03865   0.04977   0.06634   0.07296   0.07889
 Alpha virt. eigenvalues --    0.08291   0.08970   0.09383   0.11279   0.12102

  Beta  occ. eigenvalues --  -19.70960 -19.66910 -19.66362 -10.73555 -10.62242
  Beta  occ. eigenvalues --  -10.62227 -10.60788 -10.54905  -1.26393  -1.17389
  Beta  occ. eigenvalues --   -1.06778  -0.91347  -0.87959  -0.78604  -0.71584
  Beta  occ. eigenvalues --   -0.64480  -0.61986  -0.58219  -0.56524  -0.54164
  Beta  occ. eigenvalues --   -0.51042  -0.49358  -0.47006  -0.45298  -0.42494
  Beta  occ. eigenvalues --   -0.41144  -0.38892  -0.37996  -0.37423  -0.35942
  Beta virt. eigenvalues --   -0.09743  -0.01398   0.01704   0.02301   0.03097
  Beta virt. eigenvalues --    0.03557   0.04201   0.04856   0.06632   0.07299
  Beta virt. eigenvalues --    0.07871   0.08379   0.08954   0.09404   0.11651

 Mulliken charges and spin densities:
               1          2
     1  C    0.154770   0.529375
     2  H    0.318287  -0.019352
     3  C    0.050556  -0.206953
     4  C   -0.184057   0.031436
     5  O   -0.351267  -0.016537
     6  O   -0.270967  -0.005300
     7  C   -0.267841   0.000061
     8  C   -0.548890   0.000493
     9  H    0.221091  -0.000003
    10  H    0.237232  -0.000199
    11  H    0.207947  -0.000010
    12  H    0.220404  -0.000030
    13  H    0.241982  -0.000012
    14  O   -0.432506   0.712342
    15  H    0.403259  -0.025311
 Sum of Mulliken charges =  -0.00000   1.00000

 Dipole moment (field-independent basis, Debye):
    X=              0.5877    Y=              0.5376    Z=             -2.9512  Tot=              3.0568
 Quadrupole moment (field-independent basis, Debye-Ang):
   XX=            -32.9912   YY=            -51.6691   ZZ=            -50.9336
   XY=              3.7169   XZ=              2.6120   YZ=              0.0617

  Exact polarizability:  90.471   8.031  73.921   4.261   0.907  54.235
 Approx polarizability:  95.803   7.808  80.327   7.302  -5.514  64.372

 ******    1 imaginary frequencies (negative Signs) ******

                      1                      2                      3
                      A                      A                      A
 Frequencies --   -631.5213                45.2102                68.2542
 Red. masses --     12.7548                 4.3667                 4.5119
 Frc consts  --      2.9971                 0.0053                 0.0124
 IR Inten    --     55.9215                 3.9579                 3.7296

                      4                      5                      6
                      A                      A                      A
 Frequencies --    102.8506               161.6989               191.2507
 Red. masses --      3.4943                 2.5689                 2.2309
 Frc consts  --      0.0218                 0.0396                 0.0481
 IR Inten    --      2.6703                 7.7972                 7.4750

                      7                      8                      9
                      A                      A                      A
 Frequencies --    226.9662               258.7418               309.5868
 Red. masses --      1.7355                 3.6460                 1.3985
 Frc consts  --      0.0527                 0.1438                 0.0790
 IR Inten    --      0.8973                 8.3466                91.4267

                     10                     11                     12
                      A                      A                      A
 Frequencies --    324.1542               427.5219               547.8411
 Red. masses --      2.5250                 3.9272                 3.9701
 Frc consts  --      0.1563                 0.4229                 0.7020
 IR Inten    --     45.9880                 1.7984                 7.0134

                     13                     14                     15
                      A                      A                      A
 Frequencies --    603.9240               630.8580               746.9360
 Red. masses --      5.0078                 1.3501                 4.7326
 Frc consts  --      1.0761                 0.3166                 1.5557
 IR Inten    --     11.9714                39.1334                70.9152

                     16                     17                     18
                      A                      A                      A
 Frequencies --    759.2090               802.7924               818.4162
 Red. masses --      1.3678                 1.3262                 1.4582
 Frc consts  --      0.4645                 0.5036                 0.5755
 IR Inten    --     60.9859                45.3593                33.5896

                     19                     20                     21
                      A                      A                      A
 Frequencies --    873.7764               927.9508              1068.5463
 Red. masses --      2.3767                 2.9533                 3.7436
 Frc consts  --      1.0691                 1.4983                 2.5184
 IR Inten    --      8.9908                 3.8769                25.4456

                     22                     23                     24
                      A                      A                      A
 Frequencies --   1146.6234              1220.2604              1265.0730
 Red. masses --      1.9722                 1.7070                 6.2351
 Frc consts  --      1.5277                 1.4976                 5.8793
 IR Inten    --     25.5490                 5.3944               541.4432

                     25                     26                     27
                      A                      A                      A
 Frequencies --   1338.6767              1425.2594              1461.6786
 Red. masses --      1.1477                 1.3102                 1.2334
 Frc consts  --      1.2118                 1.5681                 1.5527
 IR Inten    --     28.3979                 8.6739                21.9080

                     28                     29                     30
                      A                      A                      A
 Frequencies --   1528.0833              1533.5172              1542.7395
 Red. masses --      1.0446                 1.0851                 1.0564
 Frc consts  --      1.4372                 1.5035                 1.4813
 IR Inten    --     18.5986                 8.6650                18.0429

                     31                     32                     33
                      A                      A                      A
 Frequencies --   1742.2019              2107.2802              3090.2871
 Red. masses --     11.1995                 6.5322                 1.0354
 Frc consts  --     20.0284                17.0905                 5.8258
 IR Inten    --    290.2471               104.6795                11.8105

                     34                     35                     36
                      A                      A                      A
 Frequencies --   3127.7283              3169.6859              3176.2490
 Red. masses --      1.0609                 1.0984                 1.1024
 Frc consts  --      6.1147                 6.5019                 6.5528
 IR Inten    --     16.7473                19.9408                 1.4077

                     37                     38                     39
                      A                      A                      A
 Frequencies --   3202.8027              3501.0433              3578.7973
 Red. masses --      1.1067                 1.1459                 1.0671
 Frc consts  --      6.6889                 8.2752                 8.0522
 IR Inten    --     14.0492                68.4499                25.8255

 - Thermochemistry -
 -------------------
 Temperature   298.150 Kelvin.  Pressure   1.00000 Atm.
 Atom     1 has atomic number  6 and mass  12.00000

 Molecular mass:   115.03952 amu.
 Principal axes and moments of inertia in atomic units:
                           1         2         3
     Eigenvalues --   496.950241384.712871594.88084
           X            0.99987   0.01351   0.00923
           Y           -0.01367   0.99975   0.01788
           Z           -0.00898  -0.01800   0.99980
 This molecule is an asymmetric top.
 Rotational symmetry number  1.
 Warning -- assumption of classical behavior for rotation
           may cause significant error
 Rotational temperatures (Kelvin)      0.17429     0.06255     0.05431
 Rotational constants (GHZ):           3.63163     1.30333     1.13158
    1 imaginary frequencies ignored.
 Zero-point vibrational energy     293410.9 (Joules/Mol)
                                   70.12689 (Kcal/Mol)
 Warning -- explicit consideration of  12 degrees of freedom as
           vibrations may cause significant error
 Vibrational temperatures:     65.05    98.20   147.98   232.65   275.17
          (Kelvin)            326.55   372.27   445.43   466.39   615.11
                              788.22   868.91   907.66  1074.67  1092.33
                             1155.04  1177.52  1257.17  1335.11  1537.40
                             1649.74  1755.68  1820.16  1926.06  2050.63
                             2103.03  2198.57  2206.39  2219.66  2506.64
                             3031.91  4446.23  4500.10  4560.47  4569.91
                             4608.12  5037.22  5149.09

 Zero-point correction=                           0.111754 (Hartree/Particle)
 Thermal correction to Energy=                    0.121285
 Thermal correction to Enthalpy=                  0.122229
 Thermal correction to Gibbs Free Energy=         0.075996
 Sum of electronic and zero-point Energies=           -419.845216
 Sum of electronic and thermal Energies=              -419.835685
 Sum of electronic and thermal Enthalpies=            -419.834741
 Sum of electronic and thermal Free Energies=         -419.880974

                     E (Thermal)             CV                S
                      KCal/Mol        Cal/Mol-Kelvin    Cal/Mol-Kelvin
 Total                   76.107             32.164             97.305
 Electronic               0.000              0.000              1.377
 Translational            0.889              2.981             40.136
 Rotational               0.889              2.981             28.486
 Vibrational             74.330             26.202             27.306
 Vibration     1          0.595              1.979              5.017
 Vibration     2          0.598              1.969              4.203
 Vibration     3          0.605              1.947              3.400
 Vibration     4          0.622              1.889              2.530
 Vibration     5          0.634              1.852              2.216
 Vibration     6          0.651              1.800              1.903
 Vibration     7          0.668              1.748              1.670
 Vibration     8          0.699              1.655              1.365
 Vibration     9          0.709              1.627              1.289
 Vibration    10          0.789              1.410              0.867
 Vibration    11          0.903              1.144              0.549
 Vibration    12          0.962              1.023              0.443

 Optimization completed.
    -- Stationary point found.
 Normal termination of Gaussian 16 at Sat Jun  7 14:21:27 2025.
