 Gaussian 16, Revision A.03,
 Gaussian 16:  ES64L-G16RevA.03 25-Dec-2016

 --------------------------------------------------
 # opt=(calcfc,tight,noeigentest) freq 6-31+g m062x
 --------------------------------------------------

 -------------------
 Title Card Required
 -------------------
 Symbolic Z-matrix:
 Charge =  0 Multiplicity = 2

 SCF Done:  E(UM062X) =  -419.951663129     A.U. after   22 cycles
 SCF Done:  E(UM062X) =  -419.974421214     A.U. after   19 cycles
 SCF Done:  E(UM062X) =  -419.993725992     A.U. after   19 cycles
 SCF Done:  E(UM062X) =  -420.001297076     A.U. after   22 cycles
 SCF Done:  E(UM062X) =  -420.009241437     A.U. after   22 cycles
 SCF Done:  E(UM062X) =  -420.012378629     A.U. after   21 cycles
 SCF Done:  E(UM062X) =  -420.015360379     A.U. after   21 cycles
 SCF Done:  E(UM062X) =  -419.580436108     A.U. after   25 cycles
 SCF Done:  E(UM062X) =  -419.959968609     A.U. after   22 cycles
 SCF Done:  E(UM062X) =  -420.015380154     A.U. after   13 cycles
 SCF Done:  E(UM062X) =  -420.026071666     A.U. after   13 cycles
 SCF Done:  E(UM062X) =  -420.026074425     A.U. after   13 cycles
 SCF Done:  E(UM062X) =  -420.026075461     A.U. after   12 cycles
 SCF Done:  E(UM062X) =  -420.026076122     A.U. after   12 cycles
 SCF Done:  E(UM062X) =  -420.026076393     A.U. after   12 cycles
 SCF Done:  E(UM062X) =  -420.026076493     A.U. after   11 cycles
 SCF Done:  E(UM062X) =  -420.026076508     A.U. after   10 cycles
 SCF Done:  E(UM062X) =  -420.026076392     A.U. after   12 cycles
 SCF Done:  E(UM062X) =  -420.026076509     A.U. after   11 cycles
 Optimization completed.
    -- Stationary point found.
 Normal termination of Gaussian 16 at Sat Jun  7 12:22:49 2025.

 ------------------------------------------------------------------
 #N Geom=AllCheck Guess=TCheck SCRF=Check GenChk UM062X/6-31+G Freq
 ------------------------------------------------------------------

 Structure from the checkpoint file:  "ethyl_propiolate_non_planar.chk"
 -------------------
 Title Card Required
 -------------------
 Charge =  0 Multiplicity = 2

                         Standard orientation:
 ---------------------------------------------------------------------
 Center     Atomic      Atomic             Coordinates (Angstroms)
 Number     Number       Type             X           Y           Z
 ---------------------------------------------------------------------
      1          6           0       -2.521568   -0.518652   -0.278905
      2          1           0       -3.371863   -1.129433   -0.549881
      3          6           0       -1.270500   -0.986041   -0.202547
      4          6           0       -0.092866   -0.238647    0.148732
      5          8           0       -0.157539    0.981545    0.428528
      6          8           0        1.059707   -0.934788    0.159074
      7          6           0        2.297915   -0.212082    0.497042
      8          6           0        2.814973    0.547246   -0.711295
      9          1           0        2.974137   -1.006844    0.808043
     10          1           0        2.087543    0.454204    1.336471
     11          1           0        3.776680    1.011448   -0.473409
     12          1           0        2.958381   -0.131621   -1.555429
     13          1           0        2.116154    1.335679   -1.000073
     14          8           0       -2.878461    0.776730   -0.025956
     15          1           0       -2.098410    1.327733    0.222953
 ---------------------------------------------------------------------

 SCF Done:  E(UM062X) =  -420.026076509     A.U. after    1 cycles

 The electronic state is 2-A.
 Alpha  occ. eigenvalues --  -19.70847 -19.69352 -19.66656 -10.72539 -10.65568
 Alpha  occ. eigenvalues --  -10.62154 -10.60389 -10.55022  -1.26134  -1.21254
 Alpha  occ. eigenvalues --   -1.16672  -0.91931  -0.88101  -0.78678  -0.73786
 Alpha  occ. eigenvalues --   -0.67126  -0.62970  -0.58877  -0.57026  -0.56134
 Alpha  occ. eigenvalues --   -0.53904  -0.50371  -0.49096  -0.47963  -0.46524
 Alpha  occ. eigenvalues --   -0.45122  -0.42294  -0.39848  -0.38598  -0.34024
 Alpha  occ. eigenvalues --   -0.33341
 Alpha virt. eigenvalues --   -0.02682   0.01809   0.02857   0.03373   0.04285
 Alpha virt. eigenvalues --    0.04964   0.06049   0.06345   0.07842   0.07964
 Alpha virt. eigenvalues --    0.08785   0.09224   0.10182   0.10899   0.11437

  Beta  occ. eigenvalues --  -19.70838 -19.69296 -19.66484 -10.72538 -10.65626
  Beta  occ. eigenvalues --  -10.62154 -10.59344 -10.55022  -1.25934  -1.21009
  Beta  occ. eigenvalues --   -1.16297  -0.90328  -0.87278  -0.78319  -0.73328
  Beta  occ. eigenvalues --   -0.66695  -0.62414  -0.58275  -0.56437  -0.55706
  Beta  occ. eigenvalues --   -0.53416  -0.50161  -0.48469  -0.47205  -0.46453
  Beta  occ. eigenvalues --   -0.45020  -0.42075  -0.38504  -0.37755  -0.31523
  Beta virt. eigenvalues --   -0.07919  -0.02713   0.01672   0.02707   0.03360
  Beta virt. eigenvalues --    0.04227   0.05117   0.06349   0.06365   0.07698
  Beta virt. eigenvalues --    0.07858   0.08906   0.09295   0.09917   0.10623

 Mulliken charges and spin densities:
               1          2
     1  C   -0.163411  -0.072095
     2  H    0.238473   0.022725
     3  C    0.193348   0.966366
     4  C    0.204113   0.010974
     5  O   -0.511748   0.050859
     6  O   -0.252153   0.005646
     7  C   -0.201001  -0.004377
     8  C   -0.570906   0.001488
     9  H    0.222099   0.000104
    10  H    0.236751   0.000131
    11  H    0.207391  -0.000006
    12  H    0.221106  -0.000029
    13  H    0.235418  -0.000095
    14  O   -0.550916   0.019108
    15  H    0.491438  -0.000800
 Sum of Mulliken charges =  -0.00000   1.00000

 Dipole moment (field-independent basis, Debye):
    X=              1.9524    Y=             -0.6996    Z=             -0.1156  Tot=              2.0772
 Quadrupole moment (field-independent basis, Debye-Ang):
   XX=            -42.9050   YY=            -51.1916   ZZ=            -47.9946
   XY=              4.9362   XZ=              1.8007   YZ=             -0.2336

  Exact polarizability:  97.403  -2.191  61.940   3.781   2.912  48.071
 Approx polarizability:  97.614  -8.250  80.879   4.810   6.505  51.512

                      1                      2                      3
                      A                      A                      A
 Frequencies --     70.4910                84.3344               139.0604
 Red. masses --      4.4734                 3.6488                 5.5907
 Frc consts  --      0.0131                 0.0153                 0.0637
 IR Inten    --      1.1712                 1.9631                 1.0558

                      4                      5                      6
                      A                      A                      A
 Frequencies --    164.5494               228.0415               314.5393
 Red. masses --      2.4903                 1.3774                 3.6922
 Frc consts  --      0.0397                 0.0422                 0.2152
 IR Inten    --      0.5275                 2.1685                14.4890

                      7                      8                      9
                      A                      A                      A
 Frequencies --    333.1939               370.6965               454.2908
 Red. masses --      3.1743                 4.0659                 3.9193
 Frc consts  --      0.2076                 0.3292                 0.4766
 IR Inten    --      5.6122                11.8739                 9.9825

                     10                     11                     12
                      A                      A                      A
 Frequencies --    592.6815               730.7591               764.3278
 Red. masses --      4.3892                 1.2439                 3.5262
 Frc consts  --      0.9084                 0.3914                 1.2137
 IR Inten    --      7.2847               115.3566                 2.1283

                     13                     14                     15
                      A                      A                      A
 Frequencies --    777.3434               843.4625               892.3355
 Red. masses --      7.4250                 1.3435                 3.4708
 Frc consts  --      2.6435                 0.5631                 1.6283
 IR Inten    --     89.8770                 4.1365                 8.9346

                     16                     17                     18
                      A                      A                      A
 Frequencies --    953.7774               975.1827              1066.1654
 Red. masses --      3.9596                 1.3918                 3.5932
 Frc consts  --      2.1223                 0.7798                 2.4065
 IR Inten    --      0.3164                41.2943                28.9342

                     19                     20                     21
                      A                      A                      A
 Frequencies --   1133.2145              1146.2761              1220.8799
 Red. masses --      4.4651                 1.9738                 1.6888
 Frc consts  --      3.3783                 1.5280                 1.4832
 IR Inten    --    436.1308                27.8304                21.3135

                     22                     23                     24
                      A                      A                      A
 Frequencies --   1299.3184              1332.7762              1351.7153
 Red. masses --      1.3699                 1.4519                 1.6692
 Frc consts  --      1.3626                 1.5195                 1.7970
 IR Inten    --     65.9074                97.1967               253.1168

                     25                     26                     27
                      A                      A                      A
 Frequencies --   1418.7528              1454.0526              1459.5019
 Red. masses --      1.2427                 1.6372                 1.3944
 Frc consts  --      1.4738                 2.0395                 1.7501
 IR Inten    --     18.3357               162.8900                34.6949

                     28                     29                     30
                      A                      A                      A
 Frequencies --   1527.5555              1532.5867              1545.5381
 Red. masses --      1.0620                 1.1146                 1.0564
 Frc consts  --      1.4600                 1.5425                 1.4868
 IR Inten    --     22.6896                17.1511                18.2363

                     31                     32                     33
                      A                      A                      A
 Frequencies --   1629.2104              1694.6856              3090.0379
 Red. masses --      6.9637                 6.9865                 1.0352
 Frc consts  --     10.8904                11.8219                 5.8240
 IR Inten    --    163.5566               423.2935                13.5892

                     34                     35                     36
                      A                      A                      A
 Frequencies --   3129.3364              3169.1370              3176.4029
 Red. masses --      1.0610                 1.0983                 1.1023
 Frc consts  --      6.1217                 6.4990                 6.5528
 IR Inten    --     16.0691                20.6113                 1.8843

                     37                     38                     39
                      A                      A                      A
 Frequencies --   3204.5312              3278.8286              3535.2752
 Red. masses --      1.1069                 1.0926                 1.0654
 Frc consts  --      6.6972                 6.9204                 7.8450
 IR Inten    --     15.6733                 1.3970                88.9415

 - Thermochemistry -
 -------------------
 Temperature   298.150 Kelvin.  Pressure   1.00000 Atm.
 Atom     1 has atomic number  6 and mass  12.00000

 Molecular mass:   115.03952 amu.
 Principal axes and moments of inertia in atomic units:
                           1         2         3
     Eigenvalues --   308.289431721.323821883.02684
           X            0.99990   0.01331  -0.00478
           Y           -0.01341   0.99970  -0.02064
           Z            0.00450   0.02070   0.99978
 This molecule is an asymmetric top.
 Rotational symmetry number  1.
 Rotational temperatures (Kelvin)      0.28095     0.05032     0.04600
 Rotational constants (GHZ):           5.85405     1.04846     0.95843
 Zero-point vibrational energy     311536.6 (Joules/Mol)
                                   74.45902 (Kcal/Mol)
 Warning -- explicit consideration of  10 degrees of freedom as
           vibrations may cause significant error
 Vibrational temperatures:    101.42   121.34   200.08   236.75   328.10
          (Kelvin)            452.55   479.39   533.35   653.62   852.74
                             1051.40  1099.70  1118.42  1213.55  1283.87
                             1372.27  1403.07  1533.97  1630.44  1649.24
                             1756.57  1869.43  1917.57  1944.82  2041.27
                             2092.06  2099.90  2197.81  2205.05  2223.68
                             2344.07  2438.27  4445.88  4502.42  4559.68
                             4570.14  4610.61  4717.50  5086.47

 Zero-point correction=                           0.118658 (Hartree/Particle)
 Thermal correction to Energy=                    0.127028
 Thermal correction to Enthalpy=                  0.127973
 Thermal correction to Gibbs Free Energy=         0.084454
 Sum of electronic and zero-point Energies=           -419.907418
 Sum of electronic and thermal Energies=              -419.899048
 Sum of electronic and thermal Enthalpies=            -419.898104
 Sum of electronic and thermal Free Energies=         -419.941623

                     E (Thermal)             CV                S
                      KCal/Mol        Cal/Mol-Kelvin    Cal/Mol-Kelvin
 Total                   79.712             28.735             91.593
 Electronic               0.000              0.000              1.377
 Translational            0.889              2.981             40.136
 Rotational               0.889              2.981             28.393
 Vibrational             77.934             22.773             21.687
 Vibration     1          0.598              1.968              4.140
 Vibration     2          0.601              1.960              3.787
 Vibration     3          0.615              1.914              2.817
 Vibration     4          0.623              1.886              2.497
 Vibration     5          0.651              1.798              1.894
 Vibration     6          0.702              1.646              1.338
 Vibration     7          0.715              1.609              1.245
 Vibration     8          0.743              1.532              1.077
 Vibration     9          0.813              1.351              0.783
 Vibration    10          0.950              1.047              0.462

 Optimization completed.
    -- Stationary point found.
 Normal termination of Gaussian 16 at Sat Jun  7 12:23:22 2025.
