 Gaussian 16, Revision A.03,
 Gaussian 16:  ES64L-G16RevA.03 25-Dec-2016

 --------------------------
 # ccsd(t)/6-311++g(d,p) sp
 --------------------------

 -------------------
 Title Card Required
 -------------------
 Symbolic Z-matrix:
 Charge =  0 Multiplicity = 2

                         Standard orientation:
 ---------------------------------------------------------------------
 Center     Atomic      Atomic             Coordinates (Angstroms)
 Number     Number       Type             X           Y           Z
 ---------------------------------------------------------------------
      1          6           0       -1.826849   -0.157145    0.894680
      2          1           0       -2.581946   -0.537649    1.550322
      3          6           0       -0.828028    0.483949    0.570612
      4          6           0        0.306270    1.199799   -0.013066
      5          8           0        0.368629    2.394570    0.029342
      6          8           0        1.250401    0.461846   -0.593278
      7          6           0        1.173583   -0.980512   -0.594943
      8          6           0        1.742564   -1.549874    0.689107
      9          1           0        0.141878   -1.295357   -0.767161
     10          1           0        1.774709   -1.269830   -1.455303
     11          1           0        2.764240   -1.198930    0.840485
     12          1           0        1.139653   -1.259300    1.551539
     13          1           0        1.752249   -2.640143    0.634487
     14          8           0       -2.350026   -1.044168   -0.729697
     15          1           0       -2.548057   -0.274079   -1.283655
 ---------------------------------------------------------------------

 SCF Done:  E(UHF) =  -417.968886543     A.U. after   34 cycles
 E2 =    -0.1256121613D+01 EUMP2 =    -0.41922500815617D+03
 CCSD(T)= -0.41934877493D+03

 The electronic state is 2-A.
 Alpha  occ. eigenvalues --  -20.62943 -20.61043 -20.56737 -11.41209 -11.30323
 Alpha  occ. eigenvalues --  -11.28734 -11.28337 -11.23436  -1.48035  -1.39192
 Alpha  occ. eigenvalues --   -1.38609  -1.09664  -1.05090  -0.91610  -0.87639
 Alpha  occ. eigenvalues --   -0.76063  -0.73653  -0.70332  -0.67879  -0.67126
 Alpha  occ. eigenvalues --   -0.64827  -0.63626  -0.59201  -0.56599  -0.55465
 Alpha  occ. eigenvalues --   -0.54958  -0.51163  -0.49074  -0.47424  -0.44393
 Alpha  occ. eigenvalues --   -0.43036
 Alpha virt. eigenvalues --    0.03563   0.04585   0.05006   0.06645   0.06927
 Alpha virt. eigenvalues --    0.08225   0.09533   0.10668   0.10958   0.12048
 Alpha virt. eigenvalues --    0.13189   0.14093   0.14460   0.15150   0.15646

  Beta  occ. eigenvalues --  -20.61139 -20.59446 -20.55718 -11.41833 -11.30534
  Beta  occ. eigenvalues --  -11.30310 -11.26128 -11.23435  -1.47653  -1.37678
  Beta  occ. eigenvalues --   -1.26576  -1.06925  -1.05074  -0.92061  -0.87750
  Beta  occ. eigenvalues --   -0.75673  -0.73475  -0.69347  -0.66697  -0.64776
  Beta  occ. eigenvalues --   -0.63193  -0.58339  -0.55133  -0.54804  -0.52095
  Beta  occ. eigenvalues --   -0.50435  -0.47528  -0.46984  -0.44238  -0.43674
  Beta virt. eigenvalues --    0.03103   0.04022   0.04578   0.05868   0.06677
  Beta virt. eigenvalues --    0.07112   0.08496   0.10047   0.10639   0.12158
  Beta virt. eigenvalues --    0.12324   0.13358   0.14220   0.14485   0.15338

 Mulliken charges and spin densities:
               1          2
     1  C   -0.859078  -0.993688
     2  H    0.279666   0.070373
     3  C    1.056294   1.163272
     4  C   -0.114580  -0.232046
     5  O   -0.315238   0.217813
     6  O   -0.151048  -0.002539
     7  C   -0.252794  -0.004692
     8  C   -0.435480   0.007045
     9  H    0.191085  -0.000480
    10  H    0.177890   0.000079
    11  H    0.173296  -0.000425
    12  H    0.116527  -0.003212
    13  H    0.135428   0.000375
    14  O   -0.239768   0.803449
    15  H    0.237799  -0.025324
 Sum of Mulliken charges =  -0.00000   1.00000

 Dipole moment (field-independent basis, Debye):
    X=             -1.3547    Y=             -3.5265    Z=              0.3396  Tot=              3.7930
 Quadrupole moment (field-independent basis, Debye-Ang):
   XX=            -43.6666   YY=            -58.1539   ZZ=            -43.6097
   XY=             -6.4873   XZ=             -0.0347   YZ=             -1.0881

 2\PMP3-0=-419.2760838\MP4SDQ=-419.2842694\CCSD=-419.2933821\CCSD(T)=-4
 Normal termination of Gaussian 16 at Sun May 11 12:27:34 2025.
