 Gaussian 16, Revision A.03,
 Gaussian 16:  ES64L-G16RevA.03 25-Dec-2016

 --------------------------
 # ccsd(t)/6-311++g(d,p) sp
 --------------------------

 -------------------
 Title Card Required
 -------------------
 Symbolic Z-matrix:
 Charge =  0 Multiplicity = 2

                         Standard orientation:
 ---------------------------------------------------------------------
 Center     Atomic      Atomic             Coordinates (Angstroms)
 Number     Number       Type             X           Y           Z
 ---------------------------------------------------------------------
      1          6           0       -1.753915    0.029244    1.121998
      2          1           0       -2.581220   -0.403208    1.634702
      3          6           0       -0.804788    0.527004    0.576262
      4          6           0        0.339009    1.192240   -0.056750
      5          8           0        0.436151    2.383611   -0.061256
      6          8           0        1.252102    0.407784   -0.628457
      7          6           0        1.139474   -1.029803   -0.575484
      8          6           0        1.712268   -1.570396    0.719312
      9          1           0        0.097868   -1.324489   -0.719403
     10          1           0        1.718456   -1.366381   -1.434022
     11          1           0        2.744937   -1.241749    0.843871
     12          1           0        1.129309   -1.234224    1.578506
     13          1           0        1.693177   -2.661861    0.701399
     14          8           0       -2.436383   -1.090689   -0.813287
     15          1           0       -2.609768   -0.263475   -1.293081
 ---------------------------------------------------------------------

 SCF Done:  E(UHF) =  -417.982805119     A.U. after   37 cycles
 E2 =    -0.1262832801D+01 EUMP2 =    -0.41924563791942D+03
 CCSD(T)= -0.41935049900D+03

 The electronic state is 2-A.
 Alpha  occ. eigenvalues --  -20.64566 -20.61149 -20.55939 -11.41524 -11.30287
 Alpha  occ. eigenvalues --  -11.27510 -11.27127 -11.23310  -1.47806  -1.40066
 Alpha  occ. eigenvalues --   -1.38597  -1.08357  -1.05014  -0.91565  -0.87427
 Alpha  occ. eigenvalues --   -0.75867  -0.73367  -0.69840  -0.69155  -0.67507
 Alpha  occ. eigenvalues --   -0.66425  -0.63398  -0.58747  -0.57196  -0.55898
 Alpha  occ. eigenvalues --   -0.54826  -0.50978  -0.48484  -0.46811  -0.43645
 Alpha  occ. eigenvalues --   -0.42687
 Alpha virt. eigenvalues --    0.03428   0.04553   0.04974   0.06596   0.06948
 Alpha virt. eigenvalues --    0.07924   0.09595   0.09938   0.10835   0.11727
 Alpha virt. eigenvalues --    0.13120   0.14100   0.14330   0.15152   0.15745

  Beta  occ. eigenvalues --  -20.61191 -20.60467 -20.55522 -11.41780 -11.30284
  Beta  occ. eigenvalues --  -11.28222 -11.26231 -11.23310  -1.47673  -1.37979
  Beta  occ. eigenvalues --   -1.24634  -1.07445  -1.05012  -0.91796  -0.87549
  Beta  occ. eigenvalues --   -0.75770  -0.73405  -0.69361  -0.66664  -0.64846
  Beta  occ. eigenvalues --   -0.63185  -0.58386  -0.55364  -0.54781  -0.52453
  Beta  occ. eigenvalues --   -0.50575  -0.47787  -0.46358  -0.43467  -0.43187
  Beta virt. eigenvalues --    0.03285   0.04527   0.04571   0.06481   0.06736
  Beta virt. eigenvalues --    0.07513   0.08186   0.09832   0.10285   0.11464
  Beta virt. eigenvalues --    0.11953   0.13248   0.14118   0.14641   0.15361

 Mulliken charges and spin densities:
               1          2
     1  C   -2.471975  -0.369889
     2  H    0.236473   0.038508
     3  C    2.351603   0.401238
     4  C    0.225761  -0.106426
     5  O   -0.334153   0.088392
     6  O   -0.146100  -0.001777
     7  C   -0.244712   0.003103
     8  C   -0.441598   0.002248
     9  H    0.190950  -0.003388
    10  H    0.178624   0.000152
    11  H    0.169557  -0.000234
    12  H    0.122904  -0.001877
    13  H    0.134795   0.000209
    14  O   -0.209368   0.982524
    15  H    0.237240  -0.032783
 Sum of Mulliken charges =  -0.00000   1.00000

 Dipole moment (field-independent basis, Debye):
    X=             -1.8452    Y=             -3.7964    Z=              0.1891  Tot=              4.2253
 Quadrupole moment (field-independent basis, Debye-Ang):
   XX=            -42.2781   YY=            -58.1269   ZZ=            -43.7168
   XY=             -6.2123   XZ=              0.6687   YZ=             -0.6714

 MP3-0=-419.2773574\MP4SDQ=-419.2971658\CCSD=-419.2975043\CCSD(T)=-419.
 Normal termination of Gaussian 16 at Sun May 11 19:03:16 2025.
