 Gaussian 16, Revision A.03,
 Gaussian 16:  ES64L-G16RevA.03 25-Dec-2016

 --------------------------
 # freq 6-311++g(d,p) m062x
 --------------------------

 -------------------
 Title Card Required
 -------------------
 Symbolic Z-matrix:
 Charge =  0 Multiplicity = 2

                         Standard orientation:
 ---------------------------------------------------------------------
 Center     Atomic      Atomic             Coordinates (Angstroms)
 Number     Number       Type             X           Y           Z
 ---------------------------------------------------------------------
      1          6           0       -1.826849   -0.157145    0.894680
      2          1           0       -2.581946   -0.537649    1.550322
      3          6           0       -0.828028    0.483949    0.570612
      4          6           0        0.306270    1.199799   -0.013066
      5          8           0        0.368629    2.394570    0.029342
      6          8           0        1.250401    0.461846   -0.593278
      7          6           0        1.173583   -0.980512   -0.594943
      8          6           0        1.742564   -1.549874    0.689107
      9          1           0        0.141878   -1.295357   -0.767161
     10          1           0        1.774709   -1.269830   -1.455303
     11          1           0        2.764240   -1.198930    0.840485
     12          1           0        1.139653   -1.259300    1.551539
     13          1           0        1.752249   -2.640143    0.634487
     14          8           0       -2.350026   -1.044168   -0.729697
     15          1           0       -2.548057   -0.274079   -1.283655
 ---------------------------------------------------------------------

 SCF Done:  E(UM062X) =  -420.199713787     A.U. after   20 cycles

 The electronic state is 2-A.
 Alpha  occ. eigenvalues --  -19.68649 -19.66148 -19.63638 -10.71515 -10.62304
 Alpha  occ. eigenvalues --  -10.61207 -10.60570 -10.54657  -1.25827  -1.17357
 Alpha  occ. eigenvalues --   -1.12180  -0.92027  -0.88735  -0.78321  -0.74809
 Alpha  occ. eigenvalues --   -0.64799  -0.63107  -0.58897  -0.57543  -0.54930
 Alpha  occ. eigenvalues --   -0.53577  -0.50991  -0.49088  -0.47676  -0.46290
 Alpha  occ. eigenvalues --   -0.42945  -0.41948  -0.39911  -0.38903  -0.37742
 Alpha  occ. eigenvalues --   -0.33800
 Alpha virt. eigenvalues --   -0.02259  -0.00767   0.00555   0.00736   0.01816
 Alpha virt. eigenvalues --    0.02358   0.03694   0.04295   0.05555   0.05962
 Alpha virt. eigenvalues --    0.06539   0.07867   0.08334   0.08937   0.09298

  Beta  occ. eigenvalues --  -19.68647 -19.65015 -19.63476 -10.71568 -10.62423
  Beta  occ. eigenvalues --  -10.61205 -10.60192 -10.54656  -1.25690  -1.17036
  Beta  occ. eigenvalues --   -1.07953  -0.90400  -0.88719  -0.78084  -0.74558
  Beta  occ. eigenvalues --   -0.64552  -0.62770  -0.58643  -0.57030  -0.53449
  Beta  occ. eigenvalues --   -0.52658  -0.49856  -0.47477  -0.46267  -0.42665
  Beta  occ. eigenvalues --   -0.42191  -0.40314  -0.38639  -0.37569  -0.36939
  Beta virt. eigenvalues --   -0.11953  -0.01072  -0.00620   0.00649   0.01089
  Beta virt. eigenvalues --    0.02324   0.02457   0.04230   0.04533   0.05812
  Beta virt. eigenvalues --    0.06157   0.06468   0.08001   0.08511   0.09062

 Mulliken charges and spin densities:
               1          2
     1  C   -0.630999  -0.192891
     2  H    0.260369   0.018316
     3  C    0.833369   0.527299
     4  C   -0.187780  -0.019350
     5  O   -0.242837   0.079423
     6  O   -0.036217   0.005072
     7  C   -0.375671  -0.010187
     8  C   -0.433547   0.005321
     9  H    0.209677   0.005513
    10  H    0.204271   0.000452
    11  H    0.191327  -0.000003
    12  H    0.131500  -0.001197
    13  H    0.166008  -0.000234
    14  O   -0.324152   0.592728
    15  H    0.234682  -0.010264
 Sum of Mulliken charges =  -0.00000   1.00000

 Dipole moment (field-independent basis, Debye):
    X=             -0.6866    Y=             -2.8566    Z=              0.8693  Tot=              3.0638
 Quadrupole moment (field-independent basis, Debye-Ang):
   XX=            -44.7728   YY=            -57.3209   ZZ=            -43.8110
   XY=             -7.1235   XZ=             -1.5042   YZ=             -1.5200

  Exact polarizability:  83.053  11.509  81.449   3.158   6.541  64.232
 Approx polarizability:  90.835  18.827  99.321  -0.297   6.662  74.427

 ******    1 imaginary frequencies (negative Signs) ******

                      1                      2                      3
                      A                      A                      A
 Frequencies --   -735.6288                77.3959                92.6632
 Red. masses --     10.8645                 3.7612                 6.3467
 Frc consts  --      3.4640                 0.0133                 0.0321
 IR Inten    --     50.5524                 1.4079                 1.6573

                      4                      5                      6
                      A                      A                      A
 Frequencies --    118.5692               129.2526               207.5656
 Red. masses --      8.5088                 3.1986                 1.7138
 Frc consts  --      0.0705                 0.0315                 0.0435
 IR Inten    --      7.5159                 4.7041                 1.9407

                      7                      8                      9
                      A                      A                      A
 Frequencies --    230.5058               253.4418               331.3468
 Red. masses --      1.5815                 1.3025                 3.5055
 Frc consts  --      0.0495                 0.0493                 0.2268
 IR Inten    --      3.4215                82.9412                 8.1715

                     10                     11                     12
                      A                      A                      A
 Frequencies --    361.5498               409.6377               554.7599
 Red. masses --      2.9095                 3.6272                 5.2850
 Frc consts  --      0.2241                 0.3586                 0.9583
 IR Inten    --      1.8680                 3.8270                18.1966

                     13                     14                     15
                      A                      A                      A
 Frequencies --    622.5995               735.0932               743.0674
 Red. masses --      6.4595                 1.3032                 9.5031
 Frc consts  --      1.4752                 0.4149                 3.0915
 IR Inten    --      1.1338                42.9775                17.0505

                     16                     17                     18
                      A                      A                      A
 Frequencies --    754.5634               818.2310               861.9025
 Red. masses --      4.5835                 1.1395                 1.1733
 Frc consts  --      1.5376                 0.4495                 0.5135
 IR Inten    --      2.7989                 6.1668               117.9844

                     19                     20                     21
                      A                      A                      A
 Frequencies --    900.4126               950.6522              1101.2829
 Red. masses --      1.0898                 2.2555                 3.9456
 Frc consts  --      0.5206                 1.2010                 2.8194
 IR Inten    --      2.9647                10.0109                59.0072

                     22                     23                     24
                      A                      A                      A
 Frequencies --   1126.5772              1178.9709              1260.5585
 Red. masses --      2.3933                 1.9189                 2.9006
 Frc consts  --      1.7896                 1.5715                 2.7156
 IR Inten    --     39.3165                67.7833               341.6830

                     25                     26                     27
                      A                      A                      A
 Frequencies --   1358.0506              1407.1583              1437.3771
 Red. masses --      1.2615                 1.2560                 1.3479
 Frc consts  --      1.3708                 1.4653                 1.6408
 IR Inten    --    106.5535                20.3411                16.1929

                     28                     29                     30
                      A                      A                      A
 Frequencies --   1492.4097              1502.3590              1536.7515
 Red. masses --      1.0403                 1.0488                 1.0943
 Frc consts  --      1.3651                 1.3947                 1.5227
 IR Inten    --      4.2417                 2.4302                 9.7236

                     31                     32                     33
                      A                      A                      A
 Frequencies --   1835.0559              2012.9562              3072.0909
 Red. masses --     12.9408                 6.6096                 1.0356
 Frc consts  --     25.6749                15.7796                 5.7583
 IR Inten    --    474.1362                70.1072                 7.0493

                     34                     35                     36
                      A                      A                      A
 Frequencies --   3097.9262              3142.8399              3152.8246
 Red. masses --      1.0636                 1.1037                 1.1014
 Frc consts  --      6.0139                 6.4229                 6.4507
 IR Inten    --     11.2856                 4.0775                11.1886

                     37                     38                     39
                      A                      A                      A
 Frequencies --   3166.7017              3409.1480              3821.9983
 Red. masses --      1.1062                 1.1364                 1.0678
 Frc consts  --      6.5360                 7.7817                 9.1904
 IR Inten    --     16.4604                53.2811                68.1775

 - Thermochemistry -
 -------------------
 Temperature   298.150 Kelvin.  Pressure   1.00000 Atm.
 Atom     1 has atomic number  6 and mass  12.00000

 Molecular mass:   115.03952 amu.
 Principal axes and moments of inertia in atomic units:
                           1         2         3
     Eigenvalues --   831.493641056.582841545.91971
           X            0.98755  -0.15701   0.00990
           Y            0.15717   0.98742  -0.01754
           Z           -0.00702   0.01887   0.99980
 This molecule is an asymmetric top.
 Rotational symmetry number  1.
 Warning -- assumption of classical behavior for rotation
           may cause significant error
 Rotational temperatures (Kelvin)      0.10417     0.08198     0.05603
 Rotational constants (GHZ):           2.17048     1.70809     1.16742
    1 imaginary frequencies ignored.
 Zero-point vibrational energy     294677.6 (Joules/Mol)
                                   70.42964 (Kcal/Mol)
 Warning -- explicit consideration of  11 degrees of freedom as
           vibrations may cause significant error
 Vibrational temperatures:    111.36   133.32   170.59   185.97   298.64
          (Kelvin)            331.65   364.65   476.73   520.19   589.38
                              798.18   895.78  1057.64  1069.11  1085.65
                             1177.25  1240.09  1295.49  1367.78  1584.50
                             1620.89  1696.28  1813.66  1953.93  2024.59
                             2068.07  2147.24  2161.56  2211.04  2640.24
                             2896.20  4420.05  4457.22  4521.85  4536.21
                             4556.18  4905.00  5499.00

 Zero-point correction=                           0.112237 (Hartree/Particle)
 Thermal correction to Energy=                    0.121527
 Thermal correction to Enthalpy=                  0.122471
 Thermal correction to Gibbs Free Energy=         0.077139
 Sum of electronic and zero-point Energies=           -420.087477
 Sum of electronic and thermal Energies=              -420.078187
 Sum of electronic and thermal Enthalpies=            -420.077243
 Sum of electronic and thermal Free Energies=         -420.122575

                     E (Thermal)             CV                S
                      KCal/Mol        Cal/Mol-Kelvin    Cal/Mol-Kelvin
 Total                   76.259             31.690             95.410
 Electronic               0.000              0.000              1.377
 Translational            0.889              2.981             40.136
 Rotational               0.889              2.981             28.698
 Vibrational             74.482             25.729             25.200
 Vibration     1          0.599              1.964              3.956
 Vibration     2          0.602              1.954              3.603
 Vibration     3          0.609              1.934              3.124
 Vibration     4          0.612              1.924              2.957
 Vibration     5          0.641              1.829              2.065
 Vibration     6          0.652              1.794              1.875
 Vibration     7          0.665              1.757              1.707
 Vibration     8          0.714              1.613              1.254
 Vibration     9          0.736              1.551              1.115
 Vibration    10          0.774              1.449              0.928
 Vibration    11          0.910              1.129              0.534

 Normal termination of Gaussian 16 at Fri Mar 28 23:03:20 2025.
