 Gaussian 16, Revision A.03,
 Gaussian 16:  ES64L-G16RevA.03 25-Dec-2016

 --------------------------
 # ccsd(t)/6-311++g(d,p) sp
 --------------------------

 -------------------
 Title Card Required
 -------------------
 Symbolic Z-matrix:
 Charge =  0 Multiplicity = 2

                         Standard orientation:
 ---------------------------------------------------------------------
 Center     Atomic      Atomic             Coordinates (Angstroms)
 Number     Number       Type             X           Y           Z
 ---------------------------------------------------------------------
      1          6           0       -1.839293   -0.184171    0.854306
      2          1           0       -2.569405   -0.542228    1.553816
      3          6           0       -0.827767    0.481607    0.574723
      4          6           0        0.302317    1.199988   -0.007857
      5          8           0        0.361576    2.395653    0.039614
      6          8           0        1.250324    0.467548   -0.589322
      7          6           0        1.176928   -0.974871   -0.597264
      8          6           0        1.745519   -1.548068    0.685301
      9          1           0        0.146169   -1.291698   -0.772775
     10          1           0        1.780032   -1.259292   -1.457869
     11          1           0        2.765947   -1.194844    0.839713
     12          1           0        1.140711   -1.262759    1.548241
     13          1           0        1.758271   -2.638067    0.626361
     14          8           0       -2.340016   -1.036262   -0.714962
     15          1           0       -2.543019   -0.273539   -1.275385
 ---------------------------------------------------------------------

 SCF Done:  E(UHF) =  -417.969567010     A.U. after   30 cycles
 E2 =    -0.1257020281D+01 EUMP2 =    -0.41922658729082D+03
 CCSD(T)= -0.41935234439D+03

 The electronic state is 2-A.
 Alpha  occ. eigenvalues --  -20.62266 -20.61065 -20.57034 -11.41201 -11.30363
 Alpha  occ. eigenvalues --  -11.29418 -11.29103 -11.23497  -1.48147  -1.39371
 Alpha  occ. eigenvalues --   -1.37833  -1.10102  -1.05137  -0.91745  -0.87823
 Alpha  occ. eigenvalues --   -0.76122  -0.73699  -0.70502  -0.67660  -0.66957
 Alpha  occ. eigenvalues --   -0.64188  -0.63443  -0.59308  -0.56724  -0.55102
 Alpha  occ. eigenvalues --   -0.54731  -0.51260  -0.49257  -0.47591  -0.44630
 Alpha  occ. eigenvalues --   -0.43255
 Alpha virt. eigenvalues --    0.03583   0.04587   0.05045   0.06656   0.06919
 Alpha virt. eigenvalues --    0.08223   0.09523   0.10693   0.10959   0.12097
 Alpha virt. eigenvalues --    0.13109   0.14097   0.14495   0.15124   0.15740

  Beta  occ. eigenvalues --  -20.61170 -20.59103 -20.55896 -11.41893 -11.31585
  Beta  occ. eigenvalues --  -11.30347 -11.26405 -11.23496  -1.47696  -1.37679
  Beta  occ. eigenvalues --   -1.27339  -1.06749  -1.05115  -0.92204  -0.87872
  Beta  occ. eigenvalues --   -0.75652  -0.73464  -0.69416  -0.66750  -0.64743
  Beta  occ. eigenvalues --   -0.63253  -0.58388  -0.55140  -0.54851  -0.51986
  Beta  occ. eigenvalues --   -0.50454  -0.47978  -0.47280  -0.44535  -0.43675
  Beta virt. eigenvalues --    0.03026   0.03834   0.04583   0.05740   0.06684
  Beta virt. eigenvalues --    0.07083   0.08515   0.10071   0.10624   0.12136
  Beta virt. eigenvalues --    0.12416   0.13268   0.14248   0.14458   0.15328

 Mulliken charges and spin densities:
               1          2
     1  C   -0.718981  -1.047853
     2  H    0.274691   0.073365
     3  C    0.963792   1.289836
     4  C   -0.140758  -0.250845
     5  O   -0.310569   0.244699
     6  O   -0.152020  -0.002373
     7  C   -0.251854  -0.008107
     8  C   -0.434228   0.008836
     9  H    0.191155   0.000015
    10  H    0.178478  -0.000142
    11  H    0.173639  -0.000461
    12  H    0.116182  -0.003359
    13  H    0.135973   0.000389
    14  O   -0.264821   0.718381
    15  H    0.239322  -0.022380
 Sum of Mulliken charges =  -0.00000   1.00000

 Dipole moment (field-independent basis, Debye):
    X=             -1.1846    Y=             -3.3573    Z=              0.4991  Tot=              3.5950
 Quadrupole moment (field-independent basis, Debye-Ang):
   XX=            -44.2730   YY=            -58.2256   ZZ=            -43.6013
   XY=             -6.8666   XZ=             -0.3984   YZ=             -1.2027

 PMP3-0=-419.2803274\MP4SDQ=-419.2866024\CCSD=-419.2966652\CCSD(T)=-419
 Normal termination of Gaussian 16 at Sun May 11 02:14:25 2025.
