 Gaussian 16, Revision A.03,
 Gaussian 16:  ES64L-G16RevA.03 25-Dec-2016

 --------------------------
 # freq 6-311++g(d,p) m062x
 --------------------------

 -------------------
 Title Card Required
 -------------------
 Symbolic Z-matrix:
 Charge =  0 Multiplicity = 2

                         Standard orientation:
 ---------------------------------------------------------------------
 Center     Atomic      Atomic             Coordinates (Angstroms)
 Number     Number       Type             X           Y           Z
 ---------------------------------------------------------------------
      1          6           0       -1.772023   -0.021029    1.070085
      2          1           0       -2.593537   -0.461090    1.585487
      3          6           0       -0.815319    0.510990    0.568296
      4          6           0        0.327939    1.195054   -0.043973
      5          8           0        0.414256    2.387328   -0.033081
      6          8           0        1.252004    0.425118   -0.617566
      7          6           0        1.151341   -1.014199   -0.581484
      8          6           0        1.722301   -1.563358    0.710482
      9          1           0        0.113210   -1.316286   -0.734274
     10          1           0        1.738061   -1.335994   -1.440419
     11          1           0        2.751492   -1.227258    0.843603
     12          1           0        1.132356   -1.241006    1.570264
     13          1           0        1.712556   -2.654697    0.681418
     14          8           0       -2.410568   -1.079966   -0.792977
     15          1           0       -2.585100   -0.268257   -1.297529
 ---------------------------------------------------------------------

 SCF Done:  E(UM062X) =  -420.200522172     A.U. after   23 cycles

 The electronic state is 2-A.
 Alpha  occ. eigenvalues --  -19.68542 -19.68342 -19.63107 -10.71086 -10.61047
 Alpha  occ. eigenvalues --  -10.59150 -10.58557 -10.54430  -1.25418  -1.16885
 Alpha  occ. eigenvalues --   -1.14329  -0.90575  -0.88500  -0.77646  -0.74083
 Alpha  occ. eigenvalues --   -0.64412  -0.62398  -0.58472  -0.57061  -0.56393
 Alpha  occ. eigenvalues --   -0.53222  -0.51311  -0.49553  -0.47362  -0.46047
 Alpha  occ. eigenvalues --   -0.44057  -0.42149  -0.39842  -0.38622  -0.37454
 Alpha  occ. eigenvalues --   -0.35891
 Alpha virt. eigenvalues --   -0.02280  -0.00877   0.00472   0.00798   0.02179
 Alpha virt. eigenvalues --    0.02334   0.03785   0.04377   0.05641   0.06004
 Alpha virt. eigenvalues --    0.06667   0.07839   0.08577   0.09000   0.09463

  Beta  occ. eigenvalues --  -19.68341 -19.66993 -19.63060 -10.71102 -10.61048
  Beta  occ. eigenvalues --  -10.59156 -10.58430 -10.54430  -1.25379  -1.16792
  Beta  occ. eigenvalues --   -1.07084  -0.89993  -0.88493  -0.77570  -0.73984
  Beta  occ. eigenvalues --   -0.64297  -0.62236  -0.58378  -0.56886  -0.53474
  Beta  occ. eigenvalues --   -0.53091  -0.49670  -0.47287  -0.46026  -0.42579
  Beta  occ. eigenvalues --   -0.40580  -0.40222  -0.39018  -0.37631  -0.36771
  Beta virt. eigenvalues --   -0.10327  -0.01676  -0.00620   0.00639   0.01087
  Beta virt. eigenvalues --    0.02341   0.02437   0.04026   0.04513   0.05851
  Beta virt. eigenvalues --    0.06120   0.06729   0.07937   0.08861   0.09105

 Mulliken charges and spin densities:
               1          2
     1  C   -1.669609  -0.010062
     2  H    0.220802   0.009068
     3  C    1.682721   0.118256
     4  C   -0.021080  -0.016335
     5  O   -0.246099   0.021993
     6  O   -0.039184   0.000414
     7  C   -0.366744   0.003123
     8  C   -0.432307   0.000498
     9  H    0.205288  -0.000549
    10  H    0.203033   0.000504
    11  H    0.188857  -0.000191
    12  H    0.134420  -0.000868
    13  H    0.163847   0.000067
    14  O   -0.265015   0.890290
    15  H    0.241071  -0.016209
 Sum of Mulliken charges =  -0.00000   1.00000

 Dipole moment (field-independent basis, Debye):
    X=             -1.2520    Y=             -3.2365    Z=              0.3920  Tot=              3.4923
 Quadrupole moment (field-independent basis, Debye-Ang):
   XX=            -43.1720   YY=            -56.9807   ZZ=            -43.8988
   XY=             -6.3026   XZ=             -0.1121   YZ=             -1.0386

  Exact polarizability:  78.703   7.240  77.574  -2.360   2.256  61.200
 Approx polarizability:  87.349  13.799  92.665  -8.422  -0.619  70.634

 ******    1 imaginary frequencies (negative Signs) ******

                      1                      2                      3
                      A                      A                      A
 Frequencies --    -46.8986                61.0188                76.9150
 Red. masses --      6.0458                 9.9823                 3.9180
 Frc consts  --      0.0078                 0.0219                 0.0137
 IR Inten    --      5.8633                 6.7224                 0.8551

                      4                      5                      6
                      A                      A                      A
 Frequencies --    106.4709               165.5251               188.0955
 Red. masses --      3.5398                 4.9874                 3.7374
 Frc consts  --      0.0236                 0.0805                 0.0779
 IR Inten    --      0.2882                 7.4308                 1.6525

                      7                      8                      9
                      A                      A                      A
 Frequencies --    225.6978               228.9821               305.6313
 Red. masses --      1.2898                 1.2279                 2.9308
 Frc consts  --      0.0387                 0.0379                 0.1613
 IR Inten    --     70.2546                 4.5326                18.6398

                     10                     11                     12
                      A                      A                      A
 Frequencies --    361.4839               408.6009               555.5976
 Red. masses --      2.8308                 3.6992                 5.0684
 Frc consts  --      0.2179                 0.3639                 0.9218
 IR Inten    --      2.5961                 3.4565                15.9164

                     13                     14                     15
                      A                      A                      A
 Frequencies --    566.5445               631.7796               744.3152
 Red. masses --      1.0596                 6.1714                 1.2854
 Frc consts  --      0.2004                 1.4513                 0.4196
 IR Inten    --    113.9762                 1.4289                37.1733

                     16                     17                     18
                      A                      A                      A
 Frequencies --    755.6375               766.4157               789.9172
 Red. masses --      5.3192                 7.1999                 1.2104
 Frc consts  --      1.7895                 2.4918                 0.4450
 IR Inten    --      2.0974                11.3765                67.2224

                     19                     20                     21
                      A                      A                      A
 Frequencies --    816.9963               951.1866              1104.0891
 Red. masses --      1.1499                 2.2685                 3.7352
 Frc consts  --      0.4522                 1.2093                 2.6827
 IR Inten    --      4.8364                11.3084                55.3968

                     22                     23                     24
                      A                      A                      A
 Frequencies --   1128.8024              1180.1557              1263.6755
 Red. masses --      2.4809                 1.8922                 2.8838
 Frc consts  --      1.8625                 1.5528                 2.7132
 IR Inten    --     46.3759                59.9745               354.3809

                     25                     26                     27
                      A                      A                      A
 Frequencies --   1357.8915              1406.9451              1436.6408
 Red. masses --      1.2699                 1.2610                 1.3547
 Frc consts  --      1.3796                 1.4707                 1.6474
 IR Inten    --    114.6854                21.8556                16.9204

                     28                     29                     30
                      A                      A                      A
 Frequencies --   1492.5818              1503.0947              1534.8561
 Red. masses --      1.0407                 1.0474                 1.0965
 Frc consts  --      1.3660                 1.3943                 1.5220
 IR Inten    --      3.8566                 2.2228                11.7258

                     31                     32                     33
                      A                      A                      A
 Frequencies --   1857.4267              2212.5109              3072.6801
 Red. masses --     12.9552                 5.8969                 1.0354
 Frc consts  --     26.3341                17.0076                 5.7596
 IR Inten    --    504.1104                51.3331                 7.7186

                     34                     35                     36
                      A                      A                      A
 Frequencies --   3101.2919              3144.5145              3152.0753
 Red. masses --      1.0625                 1.1042                 1.1014
 Frc consts  --      6.0207                 6.4330                 6.4474
 IR Inten    --      9.7136                 2.2900                12.6813

                     37                     38                     39
                      A                      A                      A
 Frequencies --   3167.2994              3485.6964              3797.3370
 Red. masses --      1.1066                 1.1635                 1.0673
 Frc consts  --      6.5406                 8.3287                 9.0680
 IR Inten    --     17.5246                72.6768                39.6806

 - Thermochemistry -
 -------------------
 Temperature   298.150 Kelvin.  Pressure   1.00000 Atm.
 Atom     1 has atomic number  6 and mass  12.00000

 Molecular mass:   115.03952 amu.
 Principal axes and moments of inertia in atomic units:
                           1         2         3
     Eigenvalues --   860.113731084.332821555.99945
           X            0.98700  -0.16037   0.01097
           Y            0.16055   0.98686  -0.01841
           Z           -0.00787   0.01993   0.99977
 This molecule is an asymmetric top.
 Rotational symmetry number  1.
 Warning -- assumption of classical behavior for rotation
           may cause significant error
 Rotational temperatures (Kelvin)      0.10070     0.07988     0.05566
 Rotational constants (GHZ):           2.09826     1.66438     1.15986
    1 imaginary frequencies ignored.
 Zero-point vibrational energy     293721.4 (Joules/Mol)
                                   70.20109 (Kcal/Mol)
 Warning -- explicit consideration of  12 degrees of freedom as
           vibrations may cause significant error
 Vibrational temperatures:     87.79   110.66   153.19   238.15   270.63
          (Kelvin)            324.73   329.45   439.74   520.09   587.89
                              799.38   815.13   908.99  1070.90  1087.19
                             1102.70  1136.51  1175.48  1368.55  1588.54
                             1624.09  1697.98  1818.15  1953.70  2024.28
                             2067.01  2147.49  2162.62  2208.32  2672.42
                             3183.31  4420.90  4462.07  4524.25  4535.13
                             4557.04  5015.14  5463.52

 Zero-point correction=                           0.111873 (Hartree/Particle)
 Thermal correction to Energy=                    0.121418
 Thermal correction to Enthalpy=                  0.122362
 Thermal correction to Gibbs Free Energy=         0.076295
 Sum of electronic and zero-point Energies=           -420.088650
 Sum of electronic and thermal Energies=              -420.079104
 Sum of electronic and thermal Enthalpies=            -420.078160
 Sum of electronic and thermal Free Energies=         -420.124227

                     E (Thermal)             CV                S
                      KCal/Mol        Cal/Mol-Kelvin    Cal/Mol-Kelvin
 Total                   76.191             32.431             96.957
 Electronic               0.000              0.000              1.377
 Translational            0.889              2.981             40.136
 Rotational               0.889              2.981             28.764
 Vibrational             74.413             26.469             26.680
 Vibration     1          0.597              1.973              4.424
 Vibration     2          0.599              1.965              3.968
 Vibration     3          0.605              1.944              3.332
 Vibration     4          0.624              1.885              2.486
 Vibration     5          0.633              1.856              2.247
 Vibration     6          0.650              1.802              1.913
 Vibration     7          0.652              1.797              1.887
 Vibration     8          0.696              1.663              1.386
 Vibration     9          0.736              1.552              1.116
 Vibration    10          0.773              1.452              0.932
 Vibration    11          0.911              1.127              0.533
 Vibration    12          0.922              1.104              0.511

 Normal termination of Gaussian 16 at Fri Mar 28 19:14:32 2025.
