 Gaussian 16, Revision A.03,
 Gaussian 16:  ES64L-G16RevA.03 25-Dec-2016

 --------------------------
 # freq 6-311++g(d,p) m062x
 --------------------------

 -------------------
 Title Card Required
 -------------------
 Symbolic Z-matrix:
 Charge =  0 Multiplicity = 2

                         Standard orientation:
 ---------------------------------------------------------------------
 Center     Atomic      Atomic             Coordinates (Angstroms)
 Number     Number       Type             X           Y           Z
 ---------------------------------------------------------------------
      1          6           0       -1.795736   -0.084467    0.994637
      2          1           0       -2.598264   -0.512072    1.550766
      3          6           0       -0.824390    0.494910    0.565259
      4          6           0        0.316594    1.197973   -0.028511
      5          8           0        0.390449    2.391171   -0.001520
      6          8           0        1.251097    0.444117   -0.605352
      7          6           0        1.163131   -0.996962   -0.588254
      8          6           0        1.733153   -1.555941    0.699880
      9          1           0        0.128561   -1.306176   -0.750617
     10          1           0        1.757526   -1.302092   -1.447932
     11          1           0        2.758522   -1.211945    0.842016
     12          1           0        1.136395   -1.249467    1.560875
     13          1           0        1.733591   -2.646879    0.658088
     14          8           0       -2.380045   -1.064132   -0.764851
     15          1           0       -2.564848   -0.273690   -1.297478
 ---------------------------------------------------------------------

 SCF Done:  E(UM062X) =  -420.198188574     A.U. after   23 cycles

 The electronic state is 2-A.
 Alpha  occ. eigenvalues --  -19.68454 -19.67665 -19.63283 -10.71241 -10.61090
 Alpha  occ. eigenvalues --  -10.59982 -10.59139 -10.54501  -1.25558  -1.17046
 Alpha  occ. eigenvalues --   -1.13615  -0.91047  -0.88578  -0.77840  -0.74311
 Alpha  occ. eigenvalues --   -0.64555  -0.62687  -0.58608  -0.57217  -0.55784
 Alpha  occ. eigenvalues --   -0.53343  -0.51132  -0.49479  -0.47466  -0.46127
 Alpha  occ. eigenvalues --   -0.43512  -0.42133  -0.39950  -0.38667  -0.37525
 Alpha  occ. eigenvalues --   -0.35262
 Alpha virt. eigenvalues --   -0.02255  -0.00820   0.00508   0.00779   0.02072
 Alpha virt. eigenvalues --    0.02344   0.03761   0.04367   0.05614   0.06014
 Alpha virt. eigenvalues --    0.06629   0.07861   0.08516   0.09015   0.09298

  Beta  occ. eigenvalues --  -19.68452 -19.66196 -19.63204 -10.71267 -10.61090
  Beta  occ. eigenvalues --  -10.60020 -10.58936 -10.54501  -1.25492  -1.16889
  Beta  occ. eigenvalues --   -1.07254  -0.90160  -0.88568  -0.77720  -0.74163
  Beta  occ. eigenvalues --   -0.64398  -0.62472  -0.58470  -0.56947  -0.53323
  Beta  occ. eigenvalues --   -0.52929  -0.49739  -0.47354  -0.46103  -0.42588
  Beta  occ. eigenvalues --   -0.40837  -0.40281  -0.38836  -0.37559  -0.36945
  Beta virt. eigenvalues --   -0.10941  -0.01328  -0.00601   0.00658   0.01116
  Beta virt. eigenvalues --    0.02333   0.02448   0.04123   0.04522   0.05855
  Beta virt. eigenvalues --    0.06158   0.06672   0.07972   0.08747   0.09141

 Mulliken charges and spin densities:
               1          2
     1  C   -1.164785  -0.061482
     2  H    0.241088   0.012986
     3  C    1.284535   0.225845
     4  C   -0.127407  -0.018730
     5  O   -0.244285   0.037889
     6  O   -0.037087   0.001858
     7  C   -0.374412  -0.001423
     8  C   -0.432375   0.002146
     9  H    0.208123   0.001835
    10  H    0.202709   0.000531
    11  H    0.190171  -0.000151
    12  H    0.132526  -0.001186
    13  H    0.164564  -0.000007
    14  O   -0.279932   0.815740
    15  H    0.236566  -0.015850
 Sum of Mulliken charges =  -0.00000   1.00000

 Dipole moment (field-independent basis, Debye):
    X=             -1.0579    Y=             -3.1416    Z=              0.5136  Tot=              3.3545
 Quadrupole moment (field-independent basis, Debye-Ang):
   XX=            -43.5940   YY=            -57.0424   ZZ=            -43.8926
   XY=             -6.4098   XZ=             -0.5597   YZ=             -1.2453

  Exact polarizability:  81.956  10.249  80.137   1.370   5.159  63.508
 Approx polarizability:  89.413  16.451  95.825  -4.849   2.366  71.704

 ******    2 imaginary frequencies (negative Signs) ******

                      1                      2                      3
                      A                      A                      A
 Frequencies --   -353.3068               -29.8688                77.1776
 Red. masses --     12.9295                 5.8862                 4.6109
 Frc consts  --      0.9509                 0.0031                 0.0162
 IR Inten    --     48.3098                 6.0993                 1.2972

                      4                      5                      6
                      A                      A                      A
 Frequencies --     79.1855               105.7687               181.1958
 Red. masses --      7.1963                 3.4722                 2.6581
 Frc consts  --      0.0266                 0.0229                 0.0514
 IR Inten    --      6.3066                 0.2867                 2.4652

                      7                      8                      9
                      A                      A                      A
 Frequencies --    227.8709               241.1972               310.8780
 Red. masses --      1.2272                 1.4352                 2.5119
 Frc consts  --      0.0375                 0.0492                 0.1430
 IR Inten    --      0.5126                66.0767                24.3715

                     10                     11                     12
                      A                      A                      A
 Frequencies --    362.3504               408.8956               554.2780
 Red. masses --      2.8343                 3.6854                 5.1989
 Frc consts  --      0.2193                 0.3630                 0.9411
 IR Inten    --      2.6039                 3.4810                15.1770

                     13                     14                     15
                      A                      A                      A
 Frequencies --    630.1998               669.9202               750.4380
 Red. masses --      5.9379                 1.0854                 1.6381
 Frc consts  --      1.3894                 0.2870                 0.5435
 IR Inten    --      1.0850               106.5025                25.7760

                     16                     17                     18
                      A                      A                      A
 Frequencies --    754.4629               763.2502               804.5614
 Red. masses --      5.4464                 3.2502                 1.1471
 Frc consts  --      1.8266                 1.1156                 0.4375
 IR Inten    --      9.9597                 4.3674                76.4989

                     19                     20                     21
                      A                      A                      A
 Frequencies --    817.5790               950.8043              1102.9102
 Red. masses --      1.1506                 2.2693                 3.8291
 Frc consts  --      0.4531                 1.2087                 2.7443
 IR Inten    --      5.7727                11.9752                58.9703

                     22                     23                     24
                      A                      A                      A
 Frequencies --   1127.9123              1179.5833              1262.2453
 Red. masses --      2.4409                 1.9047                 2.8921
 Frc consts  --      1.8295                 1.5614                 2.7148
 IR Inten    --     44.0974                64.2640               351.9212

                     25                     26                     27
                      A                      A                      A
 Frequencies --   1357.8949              1406.9727              1436.9814
 Red. masses --      1.2655                 1.2588                 1.3523
 Frc consts  --      1.3748                 1.4682                 1.6452
 IR Inten    --    111.1222                21.6779                16.6530

                     28                     29                     30
                      A                      A                      A
 Frequencies --   1492.5137              1502.8728              1535.6549
 Red. masses --      1.0405                 1.0479                 1.0957
 Frc consts  --      1.3656                 1.3944                 1.5224
 IR Inten    --      4.0016                 2.4197                10.8911

                     31                     32                     33
                      A                      A                      A
 Frequencies --   1853.0145              2166.1511              3072.5280
 Red. masses --     12.9546                 6.0843                 1.0354
 Frc consts  --     26.2079                16.8204                 5.7592
 IR Inten    --    502.7607                59.1163                 7.5032

                     34                     35                     36
                      A                      A                      A
 Frequencies --   3101.5328              3144.1746              3152.3328
 Red. masses --      1.0625                 1.1041                 1.1014
 Frc consts  --      6.0220                 6.4311                 6.4488
 IR Inten    --     10.8686                 3.1491                11.8257

                     37                     38                     39
                      A                      A                      A
 Frequencies --   3167.4495              3469.9919              3802.6583
 Red. masses --      1.1067                 1.1564                 1.0675
 Frc consts  --      6.5418                 8.2037                 9.0947
 IR Inten    --     16.8340                73.3575                48.8610

 - Thermochemistry -
 -------------------
 Temperature   298.150 Kelvin.  Pressure   1.00000 Atm.
 Atom     1 has atomic number  6 and mass  12.00000

 Molecular mass:   115.03952 amu.
 Principal axes and moments of inertia in atomic units:
                           1         2         3
     Eigenvalues --   846.266771070.685511550.56965
           X            0.98736  -0.15814   0.01066
           Y            0.15832   0.98722  -0.01803
           Z           -0.00767   0.01949   0.99978
 This molecule is an asymmetric top.
 Rotational symmetry number  1.
 Warning -- assumption of classical behavior for rotation
           may cause significant error
 Rotational temperatures (Kelvin)      0.10235     0.08090     0.05586
 Rotational constants (GHZ):           2.13259     1.68559     1.16392
    2 imaginary frequencies ignored.
 Zero-point vibrational energy     293236.9 (Joules/Mol)
                                   70.08531 (Kcal/Mol)
 Warning -- explicit consideration of  10 degrees of freedom as
           vibrations may cause significant error
 Vibrational temperatures:    111.04   113.93   152.18   260.70   327.86
          (Kelvin)            347.03   447.28   521.34   588.31   797.48
                              906.72   963.87  1079.71  1085.50  1098.15
                             1157.58  1176.31  1368.00  1586.84  1622.81
                             1697.16  1816.09  1953.71  2024.32  2067.50
                             2147.39  2162.30  2209.46  2666.07  3116.61
                             4420.68  4462.41  4523.77  4535.50  4557.25
                             4992.54  5471.18

 Zero-point correction=                           0.111688 (Hartree/Particle)
 Thermal correction to Energy=                    0.120506
 Thermal correction to Enthalpy=                  0.121450
 Thermal correction to Gibbs Free Energy=         0.076939
 Sum of electronic and zero-point Energies=           -420.086501
 Sum of electronic and thermal Energies=              -420.077682
 Sum of electronic and thermal Enthalpies=            -420.076738
 Sum of electronic and thermal Free Energies=         -420.121250

                     E (Thermal)             CV                S
                      KCal/Mol        Cal/Mol-Kelvin    Cal/Mol-Kelvin
 Total                   75.619             30.277             93.683
 Electronic               0.000              0.000              1.377
 Translational            0.889              2.981             40.136
 Rotational               0.889              2.981             28.731
 Vibrational             73.841             24.315             23.439
 Vibration     1          0.599              1.964              3.961
 Vibration     2          0.600              1.963              3.911
 Vibration     3          0.605              1.945              3.345
 Vibration     4          0.630              1.865              2.316
 Vibration     5          0.651              1.799              1.896
 Vibration     6          0.658              1.777              1.794
 Vibration     7          0.700              1.653              1.358
 Vibration     8          0.736              1.550              1.112
 Vibration     9          0.773              1.451              0.931
 Vibration    10          0.910              1.130              0.535

 Normal termination of Gaussian 16 at Fri Mar 28 20:04:38 2025.
