 Gaussian 16, Revision A.03,
 Gaussian 16:  ES64L-G16RevA.03 25-Dec-2016

 --------------------------
 # freq 6-311++g(d,p) m062x
 --------------------------

 -------------------
 Title Card Required
 -------------------
 Symbolic Z-matrix:
 Charge =  0 Multiplicity = 2

                         Standard orientation:
 ---------------------------------------------------------------------
 Center     Atomic      Atomic             Coordinates (Angstroms)
 Number     Number       Type             X           Y           Z
 ---------------------------------------------------------------------
      1          6           0       -1.760071    0.012252    1.105150
      2          1           0       -2.586036   -0.424097    1.616555
      3          6           0       -0.808687    0.521331    0.573088
      4          6           0        0.335074    1.193228   -0.052435
      5          8           0        0.428473    2.384937   -0.051451
      6          8           0        1.252179    0.413862   -0.624657
      7          6           0        1.143787   -1.024353   -0.577568
      8          6           0        1.715777   -1.567913    0.716330
      9          1           0        0.103417   -1.321709   -0.724666
     10          1           0        1.725592   -1.355787   -1.436196
     11          1           0        2.747227   -1.236640    0.843987
     12          1           0        1.130252   -1.236527    1.575657
     13          1           0        1.699954   -2.659357    0.694540
     14          8           0       -2.427552   -1.087299   -0.806672
     15          1           0       -2.600491   -0.265151   -1.295022
 ---------------------------------------------------------------------

 SCF Done:  E(UM062X) =  -420.201582089     A.U. after   24 cycles

 The electronic state is 2-A.
 Alpha  occ. eigenvalues --  -19.68838 -19.68315 -19.63063 -10.71049 -10.61039
 Alpha  occ. eigenvalues --  -10.58947 -10.58417 -10.54412  -1.25385  -1.16844
 Alpha  occ. eigenvalues --   -1.14529  -0.90433  -0.88481  -0.77593  -0.74017
 Alpha  occ. eigenvalues --   -0.64363  -0.62290  -0.58435  -0.57019  -0.56585
 Alpha  occ. eigenvalues --   -0.53190  -0.51354  -0.49571  -0.47332  -0.46028
 Alpha  occ. eigenvalues --   -0.44237  -0.42150  -0.39820  -0.38640  -0.37461
 Alpha  occ. eigenvalues --   -0.36073
 Alpha virt. eigenvalues --   -0.02314  -0.00898   0.00461   0.00806   0.02200
 Alpha virt. eigenvalues --    0.02334   0.03779   0.04375   0.05651   0.05992
 Alpha virt. eigenvalues --    0.06680   0.07831   0.08578   0.08988   0.09540

  Beta  occ. eigenvalues --  -19.68314 -19.67271 -19.63026 -10.71062 -10.61040
  Beta  occ. eigenvalues --  -10.58945 -10.58313 -10.54412  -1.25354  -1.16770
  Beta  occ. eigenvalues --   -1.07040  -0.89946  -0.88474  -0.77531  -0.73935
  Beta  occ. eigenvalues --   -0.64266  -0.62149  -0.58354  -0.56873  -0.53585
  Beta  occ. eigenvalues --   -0.53089  -0.49655  -0.47269  -0.46008  -0.42584
  Beta  occ. eigenvalues --   -0.40606  -0.40155  -0.39058  -0.37640  -0.36718
  Beta virt. eigenvalues --   -0.10234  -0.01829  -0.00631   0.00629   0.01073
  Beta virt. eigenvalues --    0.02339   0.02434   0.03981   0.04506   0.05846
  Beta virt. eigenvalues --    0.06098   0.06744   0.07929   0.08880   0.09084

 Mulliken charges and spin densities:
               1          2
     1  C   -1.779236  -0.004059
     2  H    0.218335   0.007777
     3  C    1.742253   0.093076
     4  C    0.024483  -0.012297
     5  O   -0.246743   0.017363
     6  O   -0.039590  -0.000055
     7  C   -0.363260   0.004794
     8  C   -0.432519  -0.000095
     9  H    0.204197  -0.001533
    10  H    0.203273   0.000504
    11  H    0.188307  -0.000200
    12  H    0.135382  -0.000690
    13  H    0.163609   0.000089
    14  O   -0.260848   0.911799
    15  H    0.242357  -0.016473
 Sum of Mulliken charges =  -0.00000   1.00000

 Dipole moment (field-independent basis, Debye):
    X=             -1.3155    Y=             -3.2415    Z=              0.3904  Tot=              3.5200
 Quadrupole moment (field-independent basis, Debye-Ang):
   XX=            -43.0763   YY=            -56.9683   ZZ=            -43.8778
   XY=             -6.3716   XZ=             -0.0002   YZ=             -0.9355

  Exact polarizability:  77.618   6.205  76.751  -3.668   1.303  60.633
 Approx polarizability:  86.607  12.789  91.516  -9.740  -1.606  70.558

 ******    1 imaginary frequencies (negative Signs) ******

                      1                      2                      3
                      A                      A                      A
 Frequencies --    -38.8398                58.7868                76.9087
 Red. masses --      6.1758                10.2398                 3.9101
 Frc consts  --      0.0055                 0.0208                 0.0136
 IR Inten    --      5.9526                 6.8769                 0.6836

                      4                      5                      6
                      A                      A                      A
 Frequencies --    107.8251               172.3972               218.4026
 Red. masses --      3.4881                 2.9924                 2.1729
 Frc consts  --      0.0239                 0.0524                 0.0611
 IR Inten    --      0.3473                 4.0928                28.0028

                      7                      8                      9
                      A                      A                      A
 Frequencies --    222.8256               230.2793               304.2887
 Red. masses --      1.5388                 1.5084                 3.1599
 Frc consts  --      0.0450                 0.0471                 0.1724
 IR Inten    --     52.6350                 0.7807                14.8427

                     10                     11                     12
                      A                      A                      A
 Frequencies --    360.6848               408.4456               528.9682
 Red. masses --      2.8290                 3.7025                 1.0529
 Frc consts  --      0.2168                 0.3639                 0.1736
 IR Inten    --      2.6136                 3.4888               123.8849

                     13                     14                     15
                      A                      A                      A
 Frequencies --    556.1446               631.9626               741.5452
 Red. masses --      5.1575                 6.0659                 1.2732
 Frc consts  --      0.9399                 1.4273                 0.4125
 IR Inten    --     14.4370                 1.3496                38.4827

                     16                     17                     18
                      A                      A                      A
 Frequencies --    755.8833               767.5529               786.3733
 Red. masses --      5.2724                 8.6224                 1.2308
 Frc consts  --      1.7749                 2.9929                 0.4484
 IR Inten    --      1.8235                14.8189                59.1266

                     19                     20                     21
                      A                      A                      A
 Frequencies --    816.7957               951.2466              1104.4561
 Red. masses --      1.1499                 2.2687                 3.6980
 Frc consts  --      0.4520                 1.2095                 2.6578
 IR Inten    --      4.7099                11.1217                54.2853

                     22                     23                     24
                      A                      A                      A
 Frequencies --   1129.1200              1180.3629              1264.1528
 Red. masses --      2.4949                 1.8886                 2.8850
 Frc consts  --      1.8741                 1.5503                 2.7164
 IR Inten    --     47.1319                58.3807               355.7951

                     25                     26                     27
                      A                      A                      A
 Frequencies --   1357.8933              1407.0039              1436.5881
 Red. masses --      1.2706                 1.2618                 1.3555
 Frc consts  --      1.3803                 1.4717                 1.6482
 IR Inten    --    115.6551                21.9707                17.0140

                     28                     29                     30
                      A                      A                      A
 Frequencies --   1492.5835              1503.1394              1534.4142
 Red. masses --      1.0408                 1.0473                 1.0969
 Frc consts  --      1.3661                 1.3942                 1.5216
 IR Inten    --      3.8208                 2.1450                12.0531

                     31                     32                     33
                      A                      A                      A
 Frequencies --   1858.3491              2222.2460              3072.7043
 Red. masses --     12.9561                 5.8517                 1.0354
 Frc consts  --     26.3621                17.0260                 5.7597
 IR Inten    --    502.9892                50.4060                 7.7704

                     34                     35                     36
                      A                      A                      A
 Frequencies --   3100.7121              3144.5503              3151.9666
 Red. masses --      1.0626                 1.1042                 1.1014
 Frc consts  --      6.0190                 6.4330                 6.4469
 IR Inten    --      9.2789                 1.9546                12.9393

                     37                     38                     39
                      A                      A                      A
 Frequencies --   3167.1299              3487.4217              3795.7180
 Red. masses --      1.1065                 1.1651                 1.0673
 Frc consts  --      6.5393                 8.3487                 9.0598
 IR Inten    --     17.8962                72.0268                36.5922

 - Thermochemistry -
 -------------------
 Temperature   298.150 Kelvin.  Pressure   1.00000 Atm.
 Atom     1 has atomic number  6 and mass  12.00000

 Molecular mass:   115.03952 amu.
 Principal axes and moments of inertia in atomic units:
                           1         2         3
     Eigenvalues --   867.636251091.717921559.09329
           X            0.98673  -0.16198   0.01102
           Y            0.16216   0.98659  -0.01856
           Z           -0.00787   0.02010   0.99977
 This molecule is an asymmetric top.
 Rotational symmetry number  1.
 Warning -- assumption of classical behavior for rotation
           may cause significant error
 Rotational temperatures (Kelvin)      0.09983     0.07934     0.05555
 Rotational constants (GHZ):           2.08007     1.65312     1.15756
    1 imaginary frequencies ignored.
 Zero-point vibrational energy     293730.0 (Joules/Mol)
                                   70.20317 (Kcal/Mol)
 Warning -- explicit consideration of  12 degrees of freedom as
           vibrations may cause significant error
 Vibrational temperatures:     84.58   110.65   155.14   248.04   314.23
          (Kelvin)            320.60   331.32   437.80   518.95   587.66
                              761.07   800.17   909.25  1066.92  1087.55
                             1104.34  1131.42  1175.19  1368.63  1589.07
                             1624.55  1698.28  1818.83  1953.71  2024.36
                             2066.93  2147.49  2162.68  2207.68  2673.75
                             3197.32  4420.94  4461.23  4524.31  4534.98
                             4556.79  5017.62  5461.19

 Zero-point correction=                           0.111876 (Hartree/Particle)
 Thermal correction to Energy=                    0.121395
 Thermal correction to Enthalpy=                  0.122339
 Thermal correction to Gibbs Free Energy=         0.076357
 Sum of electronic and zero-point Energies=           -420.089706
 Sum of electronic and thermal Energies=              -420.080187
 Sum of electronic and thermal Enthalpies=            -420.079243
 Sum of electronic and thermal Free Energies=         -420.125226

                     E (Thermal)             CV                S
                      KCal/Mol        Cal/Mol-Kelvin    Cal/Mol-Kelvin
 Total                   76.176             32.475             96.778
 Electronic               0.000              0.000              1.377
 Translational            0.889              2.981             40.136
 Rotational               0.889              2.981             28.781
 Vibrational             74.399             26.513             26.484
 Vibration     1          0.596              1.974              4.498
 Vibration     2          0.599              1.965              3.968
 Vibration     3          0.606              1.943              3.308
 Vibration     4          0.626              1.876              2.409
 Vibration     5          0.646              1.813              1.972
 Vibration     6          0.649              1.806              1.936
 Vibration     7          0.652              1.795              1.877
 Vibration     8          0.695              1.666              1.393
 Vibration     9          0.735              1.553              1.119
 Vibration    10          0.773              1.452              0.932
 Vibration    11          0.884              1.186              0.590
 Vibration    12          0.912              1.126              0.532

 Normal termination of Gaussian 16 at Fri Mar 28 18:49:12 2025.
