 Gaussian 16, Revision A.03,
 Gaussian 16:  ES64L-G16RevA.03 25-Dec-2016

 --------------------------
 # ccsd(t)/6-311++g(d,p) sp
 --------------------------

 -------------------
 Title Card Required
 -------------------
 Symbolic Z-matrix:
 Charge =  0 Multiplicity = 2

                         Standard orientation:
 ---------------------------------------------------------------------
 Center     Atomic      Atomic             Coordinates (Angstroms)
 Number     Number       Type             X           Y           Z
 ---------------------------------------------------------------------
      1          6           0       -1.789762   -0.069008    1.014043
      2          1           0       -2.598334   -0.502140    1.556095
      3          6           0       -0.822583    0.498376    0.565329
      4          6           0        0.319098    1.197342   -0.032127
      5          8           0        0.395885    2.390316   -0.008813
      6          8           0        1.251336    0.439765   -0.608194
      7          6           0        1.160507   -1.000910   -0.586695
      8          6           0        1.730705   -1.557603    0.702359
      9          1           0        0.125158   -1.308612   -0.746813
     10          1           0        1.753183   -1.309919   -1.446196
     11          1           0        2.756956   -1.215390    0.842407
     12          1           0        1.135463   -1.247413    1.563042
     13          1           0        1.728820   -2.648662    0.663545
     14          8           0       -2.387217   -1.068136   -0.771894
     15          1           0       -2.569060   -0.272600   -1.298321
 ---------------------------------------------------------------------

 SCF Done:  E(UHF) =  -417.975396096     A.U. after   40 cycles
 E2 =    -0.1260113539D+01 EUMP2 =    -0.41923550963464D+03
 CCSD(T)= -0.41934762319D+03

 The electronic state is 2-A.
 Alpha  occ. eigenvalues --  -20.64146 -20.61057 -20.56130 -11.41335 -11.30260
 Alpha  occ. eigenvalues --  -11.27672 -11.27235 -11.23322  -1.47818  -1.39854
 Alpha  occ. eigenvalues --   -1.38765  -1.08759  -1.05005  -0.91495  -0.87408
 Alpha  occ. eigenvalues --   -0.75983  -0.73534  -0.69971  -0.68769  -0.67392
 Alpha  occ. eigenvalues --   -0.66155  -0.63458  -0.58870  -0.56884  -0.56028
 Alpha  occ. eigenvalues --   -0.54835  -0.50995  -0.48639  -0.46999  -0.43852
 Alpha  occ. eigenvalues --   -0.42615
 Alpha virt. eigenvalues --    0.03458   0.04553   0.04955   0.06617   0.06939
 Alpha virt. eigenvalues --    0.08126   0.09559   0.10327   0.10913   0.11864
 Alpha virt. eigenvalues --    0.13258   0.14081   0.14384   0.15229   0.15535

  Beta  occ. eigenvalues --  -20.61122 -20.60166 -20.55468 -11.41743 -11.30253
  Beta  occ. eigenvalues --  -11.28747 -11.25896 -11.23322  -1.47596  -1.37783
  Beta  occ. eigenvalues --   -1.25273  -1.07263  -1.05000  -0.91829  -0.87558
  Beta  occ. eigenvalues --   -0.75762  -0.73481  -0.69279  -0.66621  -0.64880
  Beta  occ. eigenvalues --   -0.63127  -0.58305  -0.55218  -0.54748  -0.52389
  Beta  occ. eigenvalues --   -0.50502  -0.47544  -0.46348  -0.43551  -0.43444
  Beta virt. eigenvalues --    0.03193   0.04423   0.04552   0.06348   0.06663
  Beta virt. eigenvalues --    0.07295   0.08362   0.09965   0.10508   0.11846
  Beta virt. eigenvalues --    0.12107   0.13459   0.14112   0.14611   0.15231

 Mulliken charges and spin densities:
               1          2
     1  C   -1.704294  -0.651476
     2  H    0.256347   0.054492
     3  C    1.780749   0.713879
     4  C    0.014527  -0.160419
     5  O   -0.327466   0.140437
     6  O   -0.149586  -0.002431
     7  C   -0.251690   0.001336
     8  C   -0.438459   0.003663
     9  H    0.190799  -0.002032
    10  H    0.177341   0.000312
    11  H    0.171631  -0.000303
    12  H    0.118354  -0.002632
    13  H    0.134741   0.000255
    14  O   -0.210611   0.935370
    15  H    0.237618  -0.030452
 Sum of Mulliken charges =  -0.00000   1.00000

 Dipole moment (field-independent basis, Debye):
    X=             -1.7133    Y=             -3.8139    Z=              0.1040  Tot=              4.1824
 Quadrupole moment (field-independent basis, Debye-Ang):
   XX=            -42.5093   YY=            -58.0880   ZZ=            -43.7081
   XY=             -5.9315   XZ=              0.5914   YZ=             -0.8731

 MP3-0=-419.2737178\MP4SDQ=-419.2900321\CCSD=-419.2937247\CCSD(T)=-419.
 Normal termination of Gaussian 16 at Sun May 11 23:49:09 2025.
