 Gaussian 16, Revision A.03,
 Gaussian 16:  ES64L-G16RevA.03 25-Dec-2016

 --------------------------
 # ccsd(t)/6-311++g(d,p) sp
 --------------------------

 -------------------
 Title Card Required
 -------------------
 Symbolic Z-matrix:
 Charge =  0 Multiplicity = 2

                         Standard orientation:
 ---------------------------------------------------------------------
 Center     Atomic      Atomic             Coordinates (Angstroms)
 Number     Number       Type             X           Y           Z
 ---------------------------------------------------------------------
      1          6           0       -1.856390   -0.222952    0.793769
      2          1           0       -2.546949   -0.547769    1.553296
      3          6           0       -0.827626    0.478258    0.582527
      4          6           0        0.295898    1.200095   -0.000831
      5          8           0        0.351485    2.397075    0.053522
      6          8           0        1.250182    0.475473   -0.584123
      7          6           0        1.181626   -0.966631   -0.600556
      8          6           0        1.749937   -1.545250    0.679819
      9          1           0        0.152447   -1.286730   -0.780298
     10          1           0        1.787189   -1.244659   -1.461581
     11          1           0        2.768594   -1.188650    0.838060
     12          1           0        1.142687   -1.267088    1.543435
     13          1           0        1.767218   -2.634861    0.615002
     14          8           0       -2.326054   -1.024645   -0.691056
     15          1           0       -2.536762   -0.274577   -1.263023
 ---------------------------------------------------------------------

 SCF Done:  E(UHF) =  -417.975966013     A.U. after   29 cycles
 E2 =    -0.1262480747D+01 EUMP2 =    -0.41923844676078D+03
 CCSD(T)= -0.41936167893D+03

 The electronic state is 2-A.
 Alpha  occ. eigenvalues --  -20.61099 -20.61095 -20.57431 -11.41193 -11.31143
 Alpha  occ. eigenvalues --  -11.30417 -11.29952 -11.23581  -1.48284  -1.39587
 Alpha  occ. eigenvalues --   -1.36508  -1.10738  -1.05197  -0.92013  -0.88136
 Alpha  occ. eigenvalues --   -0.76273  -0.73822  -0.70722  -0.67643  -0.66550
 Alpha  occ. eigenvalues --   -0.64095  -0.62270  -0.59275  -0.56912  -0.55162
 Alpha  occ. eigenvalues --   -0.53644  -0.51380  -0.49453  -0.47791  -0.44868
 Alpha  occ. eigenvalues --   -0.43370
 Alpha virt. eigenvalues --    0.03588   0.04582   0.05102   0.06672   0.06902
 Alpha virt. eigenvalues --    0.08212   0.09502   0.10669   0.10953   0.12149
 Alpha virt. eigenvalues --    0.12990   0.14093   0.14559   0.15100   0.15885

  Beta  occ. eigenvalues --  -20.61210 -20.58703 -20.56149 -11.41960 -11.33365
  Beta  occ. eigenvalues --  -11.30399 -11.26855 -11.23580  -1.47735  -1.37683
  Beta  occ. eigenvalues --   -1.29112  -1.06385  -1.05166  -0.92380  -0.88026
  Beta  occ. eigenvalues --   -0.75646  -0.73445  -0.69517  -0.66804  -0.64906
  Beta  occ. eigenvalues --   -0.63343  -0.58467  -0.55193  -0.54918  -0.51998
  Beta  occ. eigenvalues --   -0.50971  -0.49419  -0.47393  -0.44833  -0.43529
  Beta virt. eigenvalues --    0.02852   0.03645   0.04591   0.05619   0.06691
  Beta virt. eigenvalues --    0.07057   0.08534   0.10103   0.10572   0.12038
  Beta virt. eigenvalues --    0.12505   0.13165   0.14214   0.14488   0.15216

 Mulliken charges and spin densities:
               1          2
     1  C   -0.571038  -1.028310
     2  H    0.261113   0.074535
     3  C    0.889748   1.432887
     4  C   -0.166023  -0.263954
     5  O   -0.304582   0.277530
     6  O   -0.153643  -0.001903
     7  C   -0.248365  -0.014020
     8  C   -0.433042   0.011919
     9  H    0.189922   0.000645
    10  H    0.179359  -0.000527
    11  H    0.173997  -0.000461
    12  H    0.116260  -0.003421
    13  H    0.136794   0.000323
    14  O   -0.314945   0.531190
    15  H    0.244447  -0.016433
 Sum of Mulliken charges =  -0.00000   1.00000

 Dipole moment (field-independent basis, Debye):
    X=             -0.9554    Y=             -3.1113    Z=              0.7407  Tot=              3.3379
 Quadrupole moment (field-independent basis, Debye-Ang):
   XX=            -45.1297   YY=            -58.3827   ZZ=            -43.6390
   XY=             -7.4494   XZ=             -0.9455   YZ=             -1.3927

 3-0=-419.2896143\MP4SDQ=-419.2973477\CCSD=-419.3061393\CCSD(T)=-419.36
 Normal termination of Gaussian 16 at Sun May 11 10:44:04 2025.
