 Gaussian 16, Revision A.03,
 Gaussian 16:  ES64L-G16RevA.03 25-Dec-2016

 --------------------------
 # freq 6-311++g(d,p) m062x
 --------------------------

 -------------------
 Title Card Required
 -------------------
 Symbolic Z-matrix:
 Charge =  0 Multiplicity = 2

                         Standard orientation:
 ---------------------------------------------------------------------
 Center     Atomic      Atomic             Coordinates (Angstroms)
 Number     Number       Type             X           Y           Z
 ---------------------------------------------------------------------
      1          6           0       -1.753915    0.029244    1.121998
      2          1           0       -2.581220   -0.403208    1.634702
      3          6           0       -0.804788    0.527004    0.576262
      4          6           0        0.339009    1.192240   -0.056750
      5          8           0        0.436151    2.383611   -0.061256
      6          8           0        1.252102    0.407784   -0.628457
      7          6           0        1.139474   -1.029803   -0.575484
      8          6           0        1.712268   -1.570396    0.719312
      9          1           0        0.097868   -1.324489   -0.719403
     10          1           0        1.718456   -1.366381   -1.434022
     11          1           0        2.744937   -1.241749    0.843871
     12          1           0        1.129309   -1.234224    1.578506
     13          1           0        1.693177   -2.661861    0.701399
     14          8           0       -2.436383   -1.090689   -0.813287
     15          1           0       -2.609768   -0.263475   -1.293081
 ---------------------------------------------------------------------

 SCF Done:  E(UM062X) =  -420.202027925     A.U. after   24 cycles

 The electronic state is 2-A.
 Alpha  occ. eigenvalues --  -19.68963 -19.68305 -19.63046 -10.71036 -10.61036
 Alpha  occ. eigenvalues --  -10.58873 -10.58366 -10.54405  -1.25373  -1.16828
 Alpha  occ. eigenvalues --   -1.14608  -0.90375  -0.88473  -0.77573  -0.73990
 Alpha  occ. eigenvalues --   -0.64342  -0.62243  -0.58420  -0.57004  -0.56663
 Alpha  occ. eigenvalues --   -0.53177  -0.51369  -0.49578  -0.47320  -0.46021
 Alpha  occ. eigenvalues --   -0.44310  -0.42150  -0.39814  -0.38652  -0.37469
 Alpha  occ. eigenvalues --   -0.36142
 Alpha virt. eigenvalues --   -0.02330  -0.00907   0.00457   0.00808   0.02206
 Alpha virt. eigenvalues --    0.02334   0.03775   0.04375   0.05656   0.05986
 Alpha virt. eigenvalues --    0.06686   0.07828   0.08577   0.08983   0.09571

  Beta  occ. eigenvalues --  -19.68304 -19.67389 -19.63013 -10.71047 -10.61037
  Beta  occ. eigenvalues --  -10.58867 -10.58272 -10.54404  -1.25345  -1.16761
  Beta  occ. eigenvalues --   -1.07025  -0.89928  -0.88467  -0.77516  -0.73914
  Beta  occ. eigenvalues --   -0.64254  -0.62113  -0.58344  -0.56868  -0.53634
  Beta  occ. eigenvalues --   -0.53086  -0.49650  -0.47261  -0.46002  -0.42585
  Beta  occ. eigenvalues --   -0.40624  -0.40128  -0.39069  -0.37641  -0.36696
  Beta virt. eigenvalues --   -0.10220  -0.01895  -0.00637   0.00624   0.01067
  Beta virt. eigenvalues --    0.02337   0.02433   0.03960   0.04503   0.05844
  Beta virt. eigenvalues --    0.06089   0.06751   0.07926   0.08884   0.09077

 Mulliken charges and spin densities:
               1          2
     1  C   -1.800053  -0.002491
     2  H    0.218396   0.007237
     3  C    1.743889   0.083616
     4  C    0.040726  -0.010404
     5  O   -0.247016   0.015538
     6  O   -0.039674  -0.000252
     7  C   -0.361767   0.005520
     8  C   -0.432687  -0.000350
     9  H    0.203710  -0.001980
    10  H    0.203344   0.000503
    11  H    0.188087  -0.000202
    12  H    0.135809  -0.000608
    13  H    0.163511   0.000096
    14  O   -0.259117   0.920439
    15  H    0.242843  -0.016663
 Sum of Mulliken charges =  -0.00000   1.00000

 Dipole moment (field-independent basis, Debye):
    X=             -1.3444    Y=             -3.2379    Z=              0.3996  Tot=              3.5286
 Quadrupole moment (field-independent basis, Debye-Ang):
   XX=            -43.0378   YY=            -56.9630   ZZ=            -43.8646
   XY=             -6.4244   XZ=              0.0398   YZ=             -0.8815

  Exact polarizability:  77.181   5.778  76.421  -4.213   0.918  60.446
 Approx polarizability:  86.296  12.346  91.019 -10.308  -2.011  70.575

 ******    1 imaginary frequencies (negative Signs) ******

                      1                      2                      3
                      A                      A                      A
 Frequencies --    -33.4572                58.0028                76.9692
 Red. masses --      6.2396                10.2324                 3.9298
 Frc consts  --      0.0041                 0.0203                 0.0137
 IR Inten    --      5.9694                 6.8430                 0.6109

                      4                      5                      6
                      A                      A                      A
 Frequencies --    108.5673               172.0328               218.4026
 Red. masses --      3.4598                 2.9756                 1.7193
 Frc consts  --      0.0240                 0.0519                 0.0483
 IR Inten    --      0.3780                 3.9544                44.2193

                      7                      8                      9
                      A                      A                      A
 Frequencies --    222.3754               230.3320               301.7815
 Red. masses --      1.7830                 1.5637                 3.1683
 Frc consts  --      0.0519                 0.0489                 0.1700
 IR Inten    --     36.8878                 0.7168                14.6266

                     10                     11                     12
                      A                      A                      A
 Frequencies --    360.2068               408.3675               512.9065
 Red. masses --      2.8284                 3.7036                 1.0523
 Frc consts  --      0.2162                 0.3639                 0.1631
 IR Inten    --      2.6284                 3.5174               127.8126

                     13                     14                     15
                      A                      A                      A
 Frequencies --    556.3552               631.9991               740.8256
 Red. masses --      5.1454                 6.0139                 1.2747
 Frc consts  --      0.9384                 1.4153                 0.4122
 IR Inten    --     14.6332                 1.4028                38.5870

                     16                     17                     18
                      A                      A                      A
 Frequencies --    755.9437               767.9037               786.1563
 Red. masses --      5.2679                 9.2298                 1.2354
 Frc consts  --      1.7737                 3.2067                 0.4499
 IR Inten    --      1.7587                16.5410                55.6795

                     19                     20                     21
                      A                      A                      A
 Frequencies --    816.7007               951.2570              1104.6074
 Red. masses --      1.1498                 2.2688                 3.6805
 Frc consts  --      0.4518                 1.2096                 2.6459
 IR Inten    --      4.6661                11.0605                53.8370

                     22                     23                     24
                      A                      A                      A
 Frequencies --   1129.2629              1180.4417              1264.3634
 Red. masses --      2.5014                 1.8871                 2.8865
 Frc consts  --      1.8794                 1.5493                 2.7187
 IR Inten    --     47.4785                57.6435               356.5602

                     25                     26                     27
                      A                      A                      A
 Frequencies --   1357.8889              1407.0468              1436.5876
 Red. masses --      1.2707                 1.2621                 1.3559
 Frc consts  --      1.3804                 1.4722                 1.6487
 IR Inten    --    115.9995                22.0546                17.0554

                     28                     29                     30
                      A                      A                      A
 Frequencies --   1492.5719              1503.1509              1534.1736
 Red. masses --      1.0408                 1.0473                 1.0970
 Frc consts  --      1.3661                 1.3942                 1.5213
 IR Inten    --      3.8080                 2.1095                12.2039

                     31                     32                     33
                      A                      A                      A
 Frequencies --   1858.6646              2225.5688              3072.7025
 Red. masses --     12.9566                 5.8344                 1.0354
 Frc consts  --     26.3721                17.0266                 5.7597
 IR Inten    --    502.4200                50.0917                 7.7898

                     34                     35                     36
                      A                      A                      A
 Frequencies --   3100.3889              3144.5491              3151.9024
 Red. masses --      1.0626                 1.1042                 1.1014
 Frc consts  --      6.0182                 6.4329                 6.4465
 IR Inten    --      9.0903                 1.8179                13.0307

                     37                     38                     39
                      A                      A                      A
 Frequencies --   3167.0394              3487.3474              3794.4800
 Red. masses --      1.1064                 1.1657                 1.0673
 Frc consts  --      6.5386                 8.3529                 9.0537
 IR Inten    --     18.0719                71.6465                35.3404

 - Thermochemistry -
 -------------------
 Temperature   298.150 Kelvin.  Pressure   1.00000 Atm.
 Atom     1 has atomic number  6 and mass  12.00000

 Molecular mass:   115.03952 amu.
 Principal axes and moments of inertia in atomic units:
                           1         2         3
     Eigenvalues --   871.504921095.463161560.66752
           X            0.98658  -0.16290   0.01103
           Y            0.16309   0.98644  -0.01861
           Z           -0.00785   0.02016   0.99977
 This molecule is an asymmetric top.
 Rotational symmetry number  1.
 Warning -- assumption of classical behavior for rotation
           may cause significant error
 Rotational temperatures (Kelvin)      0.09938     0.07907     0.05550
 Rotational constants (GHZ):           2.07083     1.64747     1.15639
    1 imaginary frequencies ignored.
 Zero-point vibrational energy     293622.4 (Joules/Mol)
                                   70.17743 (Kcal/Mol)
 Warning -- explicit consideration of  12 degrees of freedom as
           vibrations may cause significant error
 Vibrational temperatures:     83.45   110.74   156.20   247.52   314.23
          (Kelvin)            319.95   331.40   434.20   518.26   587.55
                              737.96   800.47   909.31  1065.88  1087.63
                             1104.84  1131.10  1175.05  1368.65  1589.28
                             1624.76  1698.39  1819.14  1953.70  2024.43
                             2066.93  2147.48  2162.70  2207.33  2674.20
                             3202.10  4420.93  4460.77  4524.30  4534.88
                             4556.66  5017.52  5459.41

 Zero-point correction=                           0.111835 (Hartree/Particle)
 Thermal correction to Energy=                    0.121370
 Thermal correction to Enthalpy=                  0.122314
 Thermal correction to Gibbs Free Energy=         0.076293
 Sum of electronic and zero-point Energies=           -420.090193
 Sum of electronic and thermal Energies=              -420.080658
 Sum of electronic and thermal Enthalpies=            -420.079714
 Sum of electronic and thermal Free Energies=         -420.125735

                     E (Thermal)             CV                S
                      KCal/Mol        Cal/Mol-Kelvin    Cal/Mol-Kelvin
 Total                   76.161             32.517             96.859
 Electronic               0.000              0.000              1.377
 Translational            0.889              2.981             40.136
 Rotational               0.889              2.981             28.790
 Vibrational             74.383             26.555             26.556
 Vibration     1          0.596              1.974              4.524
 Vibration     2          0.599              1.965              3.967
 Vibration     3          0.606              1.942              3.294
 Vibration     4          0.626              1.877              2.413
 Vibration     5          0.646              1.813              1.972
 Vibration     6          0.648              1.807              1.940
 Vibration     7          0.652              1.795              1.876
 Vibration     8          0.694              1.670              1.407
 Vibration     9          0.735              1.554              1.121
 Vibration    10          0.773              1.452              0.932
 Vibration    11          0.868              1.221              0.627
 Vibration    12          0.912              1.126              0.531

 Normal termination of Gaussian 16 at Fri Mar 28 18:36:14 2025.
