 Gaussian 16, Revision A.03,
 Gaussian 16:  ES64L-G16RevA.03 25-Dec-2016

 --------------------------
 # freq 6-311++g(d,p) m062x
 --------------------------

 -------------------
 Title Card Required
 -------------------
 Symbolic Z-matrix:
 Charge =  0 Multiplicity = 2

                         Standard orientation:
 ---------------------------------------------------------------------
 Center     Atomic      Atomic             Coordinates (Angstroms)
 Number     Number       Type             X           Y           Z
 ---------------------------------------------------------------------
      1          6           0       -1.820514   -0.143223    0.914875
      2          1           0       -2.587127   -0.534664    1.548324
      3          6           0       -0.827938    0.485385    0.568895
      4          6           0        0.308207    1.199613   -0.015852
      5          8           0        0.372406    2.393982    0.023839
      6          8           0        1.250471    0.458769   -0.595425
      7          6           0        1.171781   -0.983461   -0.593727
      8          6           0        1.740984   -1.550852    0.691083
      9          1           0        0.139598   -1.297321   -0.764162
     10          1           0        1.771788   -1.275478   -1.453971
     11          1           0        2.763321   -1.201108    0.840789
     12          1           0        1.139131   -1.257439    1.553247
     13          1           0        1.749057   -2.641256    0.638767
     14          8           0       -2.355370   -1.048124   -0.736794
     15          1           0       -2.550943   -0.274516   -1.287602
 ---------------------------------------------------------------------

 SCF Done:  E(UM062X) =  -420.198504765     A.U. after   22 cycles

 The electronic state is 2-A.
 Alpha  occ. eigenvalues --  -19.68628 -19.66415 -19.63585 -10.71484 -10.61768
 Alpha  occ. eigenvalues --  -10.61186 -10.60275 -10.54629  -1.25791  -1.17313
 Alpha  occ. eigenvalues --   -1.12430  -0.91839  -0.88710  -0.78222  -0.74713
 Alpha  occ. eigenvalues --   -0.64763  -0.63045  -0.58846  -0.57487  -0.55022
 Alpha  occ. eigenvalues --   -0.53541  -0.50991  -0.49191  -0.47641  -0.46265
 Alpha  occ. eigenvalues --   -0.42991  -0.41981  -0.39976  -0.38857  -0.37722
 Alpha  occ. eigenvalues --   -0.34120
 Alpha virt. eigenvalues --   -0.02289  -0.00768   0.00553   0.00753   0.01848
 Alpha virt. eigenvalues --    0.02355   0.03695   0.04311   0.05563   0.05974
 Alpha virt. eigenvalues --    0.06555   0.07869   0.08370   0.08955   0.09284

  Beta  occ. eigenvalues --  -19.68626 -19.65186 -19.63443 -10.71530 -10.61869
  Beta  occ. eigenvalues --  -10.61184 -10.59938 -10.54628  -1.25672  -1.17031
  Beta  occ. eigenvalues --   -1.07730  -0.90389  -0.88696  -0.78013  -0.74485
  Beta  occ. eigenvalues --   -0.64539  -0.62740  -0.58622  -0.57034  -0.53429
  Beta  occ. eigenvalues --   -0.52611  -0.49845  -0.47461  -0.46240  -0.42650
  Beta  occ. eigenvalues --   -0.41810  -0.40302  -0.38652  -0.37507  -0.37009
  Beta virt. eigenvalues --   -0.11870  -0.01106  -0.00608   0.00654   0.01106
  Beta virt. eigenvalues --    0.02319   0.02454   0.04210   0.04517   0.05818
  Beta virt. eigenvalues --    0.06159   0.06515   0.07998   0.08557   0.09086

 Mulliken charges and spin densities:
               1          2
     1  C   -0.706286  -0.171410
     2  H    0.259195   0.017269
     3  C    0.894931   0.459206
     4  C   -0.181635  -0.017399
     5  O   -0.242771   0.069440
     6  O   -0.035870   0.004320
     7  C   -0.376871  -0.008230
     8  C   -0.433052   0.004676
     9  H    0.210222   0.004730
    10  H    0.203842   0.000526
    11  H    0.191164  -0.000044
    12  H    0.131480  -0.001266
    13  H    0.165748  -0.000169
    14  O   -0.313832   0.650401
    15  H    0.233733  -0.012051
 Sum of Mulliken charges =  -0.00000   1.00000

 Dipole moment (field-independent basis, Debye):
    X=             -0.7508    Y=             -2.9106    Z=              0.8020  Tot=              3.1110
 Quadrupole moment (field-independent basis, Debye-Ang):
   XX=            -44.5279   YY=            -57.2411   ZZ=            -43.8269
   XY=             -6.9630   XZ=             -1.3360   YZ=             -1.4741

  Exact polarizability:  83.488  11.834  81.690   3.447   6.822  64.638
 Approx polarizability:  90.998  18.791  99.061  -0.888   6.088  74.019

 ******    1 imaginary frequencies (negative Signs) ******

                      1                      2                      3
                      A                      A                      A
 Frequencies --   -700.0780                76.6180                87.8114
 Red. masses --     11.0760                 3.7334                 7.2747
 Frc consts  --      3.1983                 0.0129                 0.0330
 IR Inten    --     75.4033                 1.8373                 2.2763

                      4                      5                      6
                      A                      A                      A
 Frequencies --    109.8611               121.3773               199.8355
 Red. masses --      7.5864                 3.2380                 2.1130
 Frc consts  --      0.0539                 0.0281                 0.0497
 IR Inten    --      7.2442                 4.0854                 1.9291

                      7                      8                      9
                      A                      A                      A
 Frequencies --    228.4394               253.6599               325.6953
 Red. masses --      1.3864                 1.3406                 3.0701
 Frc consts  --      0.0426                 0.0508                 0.1919
 IR Inten    --      1.5641                77.8179                12.4041

                     10                     11                     12
                      A                      A                      A
 Frequencies --    361.6342               409.3902               554.2072
 Red. masses --      2.8682                 3.6432                 5.2642
 Frc consts  --      0.2210                 0.3598                 0.9526
 IR Inten    --      2.2227                 3.7141                17.2447

                     13                     14                     15
                      A                      A                      A
 Frequencies --    625.0248               733.3576               746.8450
 Red. masses --      6.3820                 1.2654                10.2550
 Frc consts  --      1.4689                 0.4010                 3.3701
 IR Inten    --      1.0300                50.1498                14.8884

                     16                     17                     18
                      A                      A                      A
 Frequencies --    754.2927               817.7051               836.2605
 Red. masses --      4.5731                 1.1363                 1.1921
 Frc consts  --      1.5330                 0.4476                 0.4912
 IR Inten    --      4.9418                10.5177               117.7147

                     19                     20                     21
                      A                      A                      A
 Frequencies --    868.2636               950.4609              1101.5274
 Red. masses --      1.0840                 2.2697                 3.9299
 Frc consts  --      0.4815                 1.2081                 2.8095
 IR Inten    --      3.9792                11.0495                59.9305

                     22                     23                     24
                      A                      A                      A
 Frequencies --   1126.8037              1179.1130              1260.8875
 Red. masses --      2.3994                 1.9163                 2.8991
 Frc consts  --      1.7950                 1.5697                 2.7156
 IR Inten    --     40.2842                67.4009               344.6175

                     25                     26                     27
                      A                      A                      A
 Frequencies --   1358.0703              1407.1483              1437.3904
 Red. masses --      1.2621                 1.2565                 1.3487
 Frc consts  --      1.3715                 1.4658                 1.6418
 IR Inten    --    107.3948                20.7897                16.2695

                     28                     29                     30
                      A                      A                      A
 Frequencies --   1492.4301              1502.4728              1536.5803
 Red. masses --      1.0403                 1.0486                 1.0946
 Frc consts  --      1.3652                 1.3947                 1.5227
 IR Inten    --      4.2039                 2.4751                 9.9420

                     31                     32                     33
                      A                      A                      A
 Frequencies --   1840.1609              2048.6358              3072.2075
 Red. masses --     12.9480                 6.4790                 1.0355
 Frc consts  --     25.8324                16.0209                 5.7586
 IR Inten    --    481.8035                71.5283                 7.1300

                     34                     35                     36
                      A                      A                      A
 Frequencies --   3098.9368              3143.1773              3152.7457
 Red. masses --      1.0633                 1.1038                 1.1014
 Frc consts  --      6.0164                 6.4250                 6.4505
 IR Inten    --     11.4379                 3.9432                11.1779

                     37                     38                     39
                      A                      A                      A
 Frequencies --   3166.9434              3425.3018              3816.4127
 Red. masses --      1.1064                 1.1410                 1.0678
 Frc consts  --      6.5378                 7.8873                 9.1629
 IR Inten    --     16.4704                60.4441                64.6327

 - Thermochemistry -
 -------------------
 Temperature   298.150 Kelvin.  Pressure   1.00000 Atm.
 Atom     1 has atomic number  6 and mass  12.00000

 Molecular mass:   115.03952 amu.
 Principal axes and moments of inertia in atomic units:
                           1         2         3
     Eigenvalues --   834.243641059.167941546.68438
           X            0.98753  -0.15714   0.01006
           Y            0.15730   0.98739  -0.01763
           Z           -0.00717   0.01899   0.99979
 This molecule is an asymmetric top.
 Rotational symmetry number  1.
 Warning -- assumption of classical behavior for rotation
           may cause significant error
 Rotational temperatures (Kelvin)      0.10382     0.08178     0.05600
 Rotational constants (GHZ):           2.16333     1.70392     1.16685
    1 imaginary frequencies ignored.
 Zero-point vibrational energy     294446.9 (Joules/Mol)
                                   70.37451 (Kcal/Mol)
 Warning -- explicit consideration of  11 degrees of freedom as
           vibrations may cause significant error
 Vibrational temperatures:    110.24   126.34   158.07   174.63   287.52
          (Kelvin)            328.67   364.96   468.60   520.31   589.02
                              797.38   899.27  1055.14  1074.54  1085.26
                             1176.50  1203.19  1249.24  1367.50  1584.85
                             1621.22  1696.48  1814.14  1953.96  2024.57
                             2068.08  2147.27  2161.72  2210.80  2647.58
                             2947.53  4420.22  4458.68  4522.33  4536.10
                             4556.53  4928.25  5490.97

 Zero-point correction=                           0.112149 (Hartree/Particle)
 Thermal correction to Energy=                    0.121514
 Thermal correction to Enthalpy=                  0.122458
 Thermal correction to Gibbs Free Energy=         0.076867
 Sum of electronic and zero-point Energies=           -420.086356
 Sum of electronic and thermal Energies=              -420.076991
 Sum of electronic and thermal Enthalpies=            -420.076047
 Sum of electronic and thermal Free Energies=         -420.121638

                     E (Thermal)             CV                S
                      KCal/Mol        Cal/Mol-Kelvin    Cal/Mol-Kelvin
 Total                   76.251             31.810             95.955
 Electronic               0.000              0.000              1.377
 Translational            0.889              2.981             40.136
 Rotational               0.889              2.981             28.704
 Vibrational             74.474             25.848             25.738
 Vibration     1          0.599              1.965              3.976
 Vibration     2          0.601              1.958              3.708
 Vibration     3          0.606              1.941              3.271
 Vibration     4          0.609              1.931              3.078
 Vibration     5          0.638              1.840              2.135
 Vibration     6          0.651              1.798              1.891
 Vibration     7          0.665              1.757              1.705
 Vibration     8          0.710              1.624              1.281
 Vibration     9          0.736              1.551              1.115
 Vibration    10          0.774              1.450              0.929
 Vibration    11          0.910              1.130              0.536

 Normal termination of Gaussian 16 at Fri Mar 28 20:54:40 2025.
