 Gaussian 16, Revision A.03,
 Gaussian 16:  ES64L-G16RevA.03 25-Dec-2016

 --------------------------
 # ccsd(t)/6-311++g(d,p) sp
 --------------------------

 -------------------
 Title Card Required
 -------------------
 Symbolic Z-matrix:
 Charge =  0 Multiplicity = 2

                         Standard orientation:
 ---------------------------------------------------------------------
 Center     Atomic      Atomic             Coordinates (Angstroms)
 Number     Number       Type             X           Y           Z
 ---------------------------------------------------------------------
      1          6           0       -1.747604    0.046383    1.138421
      2          1           0       -2.575810   -0.381109    1.654031
      3          6           0       -0.800513    0.532978    0.579970
      4          6           0        0.343141    1.191208   -0.061096
      5          8           0        0.444136    2.382203   -0.071451
      6          8           0        1.251868    0.401435   -0.632425
      7          6           0        1.134770   -1.035466   -0.573311
      8          6           0        1.708642   -1.572976    0.722302
      9          1           0        0.091856   -1.327288   -0.713779
     10          1           0        1.710643   -1.377400   -1.431829
     11          1           0        2.742584   -1.247067    0.843462
     12          1           0        1.128524   -1.231847    1.581450
     13          1           0        1.686167   -2.664438    0.708432
     14          8           0       -2.445341   -1.093894   -0.819753
     15          1           0       -2.619890   -0.261553   -1.290455
 ---------------------------------------------------------------------

 SCF Done:  E(UHF) =  -417.983750222     A.U. after   36 cycles
 E2 =    -0.1263059319D+01 EUMP2 =    -0.41924680954118D+03
 CCSD(T)= -0.41935090869D+03

 The electronic state is 2-A.
 Alpha  occ. eigenvalues --  -20.64606 -20.61163 -20.55923 -11.41552 -11.30293
 Alpha  occ. eigenvalues --  -11.27517 -11.27129 -11.23311  -1.47810  -1.40066
 Alpha  occ. eigenvalues --   -1.38580  -1.08316  -1.05017  -0.91579  -0.87433
 Alpha  occ. eigenvalues --   -0.75852  -0.73347  -0.69826  -0.69182  -0.67502
 Alpha  occ. eigenvalues --   -0.66444  -0.63394  -0.58737  -0.57217  -0.55878
 Alpha  occ. eigenvalues --   -0.54828  -0.50979  -0.48468  -0.46792  -0.43627
 Alpha  occ. eigenvalues --   -0.42716
 Alpha virt. eigenvalues --    0.03427   0.04554   0.04979   0.06594   0.06950
 Alpha virt. eigenvalues --    0.07894   0.09601   0.09890   0.10825   0.11713
 Alpha virt. eigenvalues --    0.13105   0.14100   0.14324   0.15139   0.15768

  Beta  occ. eigenvalues --  -20.61202 -20.60500 -20.55538 -11.41789 -11.30290
  Beta  occ. eigenvalues --  -11.28177 -11.26295 -11.23311  -1.47688  -1.38009
  Beta  occ. eigenvalues --   -1.24561  -1.07471  -1.05015  -0.91794  -0.87549
  Beta  occ. eigenvalues --   -0.75769  -0.73393  -0.69376  -0.66672  -0.64835
  Beta  occ. eigenvalues --   -0.63196  -0.58402  -0.55384  -0.54788  -0.52452
  Beta  occ. eigenvalues --   -0.50587  -0.47824  -0.46372  -0.43461  -0.43170
  Beta virt. eigenvalues --    0.03299   0.04530   0.04578   0.06482   0.06749
  Beta virt. eigenvalues --    0.07529   0.08166   0.09811   0.10254   0.11415
  Beta virt. eigenvalues --    0.11935   0.13225   0.14118   0.14643   0.15351

 Mulliken charges and spin densities:
               1          2
     1  C   -2.502763  -0.338927
     2  H    0.237144   0.035952
     3  C    2.360263   0.367518
     4  C    0.246797  -0.098741
     5  O   -0.334706   0.081684
     6  O   -0.145317  -0.001681
     7  C   -0.244136   0.003270
     8  C   -0.442174   0.002087
     9  H    0.191120  -0.003588
    10  H    0.178727   0.000126
    11  H    0.169338  -0.000223
    12  H    0.123549  -0.001762
    13  H    0.134823   0.000205
    14  O   -0.209753   0.987263
    15  H    0.237088  -0.033183
 Sum of Mulliken charges =  -0.00000   1.00000

 Dipole moment (field-independent basis, Debye):
    X=             -1.8624    Y=             -3.7792    Z=              0.2222  Tot=              4.2191
 Quadrupole moment (field-independent basis, Debye-Ang):
   XX=            -42.2635   YY=            -58.1314   ZZ=            -43.7118
   XY=             -6.3008   XZ=              0.6593   YZ=             -0.6268

 PMP3-0=-419.2779181\MP4SDQ=-419.2980339\CCSD=-419.2980136\CCSD(T)=-419
 Normal termination of Gaussian 16 at Sun May 11 09:03:24 2025.
