 Gaussian 16, Revision A.03,
 Gaussian 16:  ES64L-G16RevA.03 25-Dec-2016

 --------------------------
 # ccsd(t)/6-311++g(d,p) sp
 --------------------------

 -------------------
 Title Card Required
 -------------------
 Symbolic Z-matrix:
 Charge =  0 Multiplicity = 2

                         Standard orientation:
 ---------------------------------------------------------------------
 Center     Atomic      Atomic             Coordinates (Angstroms)
 Number     Number       Type             X           Y           Z
 ---------------------------------------------------------------------
      1          6           0       -1.814254   -0.129030    0.934996
      2          1           0       -2.591138   -0.530578    1.547115
      3          6           0       -0.827475    0.487217    0.567505
      4          6           0        0.310132    1.199325   -0.018792
      5          8           0        0.376421    2.393364    0.017999
      6          8           0        1.250584    0.455473   -0.597719
      7          6           0        1.169867   -0.986544   -0.592455
      8          6           0        1.739272   -1.551924    0.693148
      9          1           0        0.137171   -1.299412   -0.760995
     10          1           0        1.768622   -1.281559   -1.452566
     11          1           0        2.762321   -1.203529    0.841099
     12          1           0        1.138559   -1.255473    1.555024
     13          1           0        1.745552   -2.642475    0.643305
     14          8           0       -2.361070   -1.052163   -0.743861
     15          1           0       -2.553816   -0.274622   -1.290750
 ---------------------------------------------------------------------

 SCF Done:  E(UHF) =  -417.970167267     A.U. after   37 cycles
 E2 =    -0.1256956045D+01 EUMP2 =    -0.41922712331144D+03
 CCSD(T)= -0.41934719409D+03

 The electronic state is 2-A.
 Alpha  occ. eigenvalues --  -20.63477 -20.61033 -20.56476 -11.41234 -11.30290
 Alpha  occ. eigenvalues --  -11.28250 -11.27753 -11.23384  -1.47936  -1.39206
 Alpha  occ. eigenvalues --   -1.39018  -1.09286  -1.05050  -0.91530  -0.87511
 Alpha  occ. eigenvalues --   -0.76036  -0.73625  -0.70180  -0.68208  -0.67212
 Alpha  occ. eigenvalues --   -0.65485  -0.63573  -0.59073  -0.56552  -0.55907
 Alpha  occ. eigenvalues --   -0.54906  -0.51084  -0.48897  -0.47259  -0.44168
 Alpha  occ. eigenvalues --   -0.42827
 Alpha virt. eigenvalues --    0.03530   0.04576   0.04977   0.06636   0.06932
 Alpha virt. eigenvalues --    0.08211   0.09542   0.10592   0.10951   0.11989
 Alpha virt. eigenvalues --    0.13248   0.14084   0.14431   0.15180   0.15568

  Beta  occ. eigenvalues --  -20.61119 -20.59750 -20.55583 -11.41784 -11.30279
  Beta  occ. eigenvalues --  -11.29717 -11.25946 -11.23384  -1.47616  -1.37693
  Beta  occ. eigenvalues --   -1.26022  -1.07065  -1.05038  -0.91948  -0.87653
  Beta  occ. eigenvalues --   -0.75712  -0.73492  -0.69298  -0.66653  -0.64829
  Beta  occ. eigenvalues --   -0.63150  -0.58308  -0.55145  -0.54769  -0.52218
  Beta  occ. eigenvalues --   -0.50455  -0.47458  -0.46632  -0.43926  -0.43636
  Beta virt. eigenvalues --    0.03145   0.04199   0.04570   0.06032   0.06669
  Beta virt. eigenvalues --    0.07154   0.08465   0.10023   0.10624   0.12110
  Beta virt. eigenvalues --    0.12233   0.13439   0.14172   0.14529   0.15269

 Mulliken charges and spin densities:
               1          2
     1  C   -1.057492  -0.899152
     2  H    0.278463   0.065554
     3  C    1.214149   1.018489
     4  C   -0.082021  -0.208475
     5  O   -0.319704   0.190251
     6  O   -0.150320  -0.002614
     7  C   -0.253300  -0.001927
     8  C   -0.436648   0.005577
     9  H    0.190912  -0.001020
    10  H    0.177420   0.000239
    11  H    0.172872  -0.000378
    12  H    0.116949  -0.003027
    13  H    0.135031   0.000335
    14  O   -0.223601   0.863688
    15  H    0.237288  -0.027541
 Sum of Mulliken charges =  -0.00000   1.00000

 Dipole moment (field-independent basis, Debye):
    X=             -1.5066    Y=             -3.6649    Z=              0.2165  Tot=              3.9684
 Quadrupole moment (field-independent basis, Debye-Ang):
   XX=            -43.1465   YY=            -58.1100   ZZ=            -43.6386
   XY=             -6.1905   XZ=              0.2572   YZ=             -0.9983

 8\PMP3-0=-419.2737676\MP4SDQ=-419.2849191\CCSD=-419.2922895\CCSD(T)=-4
 Normal termination of Gaussian 16 at Sun May 11 04:47:20 2025.
