 Gaussian 16, Revision A.03,
 Gaussian 16:  ES64L-G16RevA.03 25-Dec-2016

 --------------------------
 # ccsd(t)/6-311++g(d,p) sp
 --------------------------

 -------------------
 Title Card Required
 -------------------
 Symbolic Z-matrix:
 Charge =  0 Multiplicity = 2

                         Standard orientation:
 ---------------------------------------------------------------------
 Center     Atomic      Atomic             Coordinates (Angstroms)
 Number     Number       Type             X           Y           Z
 ---------------------------------------------------------------------
      1          6           0       -1.861418   -0.235472    0.773600
      2          1           0       -2.538982   -0.549866    1.550855
      3          6           0       -0.827952    0.476919    0.585441
      4          6           0        0.293541    1.200131    0.001368
      5          8           0        0.348081    2.397504    0.057851
      6          8           0        1.250086    0.478068   -0.582543
      7          6           0        1.183189   -0.963842   -0.601620
      8          6           0        1.751512   -1.544179    0.678022
      9          1           0        0.154606   -1.285175   -0.782605
     10          1           0        1.789476   -1.239902   -1.462801
     11          1           0        2.769581   -1.186399    0.837371
     12          1           0        1.143517   -1.268268    1.541839
     13          1           0        1.770361   -2.633662    0.611365
     14          8           0       -2.321541   -1.020876   -0.682527
     15          1           0       -2.534806   -0.275637   -1.259142
 ---------------------------------------------------------------------

 SCF Done:  E(UHF) =  -417.979758066     A.U. after   29 cycles
 E2 =    -0.1264669594D+01 EUMP2 =    -0.41924442765977D+03
 CCSD(T)= -0.41936562106D+03

 The electronic state is 2-A.
 Alpha  occ. eigenvalues --  -20.61089 -20.60754 -20.57509 -11.41169 -11.31727
 Alpha  occ. eigenvalues --  -11.30427 -11.30135 -11.23598  -1.48295  -1.39617
 Alpha  occ. eigenvalues --   -1.36162  -1.10880  -1.05205  -0.92092  -0.88220
 Alpha  occ. eigenvalues --   -0.76328  -0.73857  -0.70764  -0.67682  -0.66469
 Alpha  occ. eigenvalues --   -0.64109  -0.61978  -0.59190  -0.56951  -0.55170
 Alpha  occ. eigenvalues --   -0.53347  -0.51391  -0.49476  -0.47827  -0.44867
 Alpha  occ. eigenvalues --   -0.43310
 Alpha virt. eigenvalues --    0.03588   0.04581   0.05109   0.06676   0.06894
 Alpha virt. eigenvalues --    0.08215   0.09497   0.10658   0.10952   0.12162
 Alpha virt. eigenvalues --    0.12960   0.14093   0.14582   0.15099   0.15922

  Beta  occ. eigenvalues --  -20.61206 -20.58681 -20.56193 -11.41950 -11.33876
  Beta  occ. eigenvalues --  -11.30408 -11.26952 -11.23597  -1.47720  -1.37662
  Beta  occ. eigenvalues --   -1.29935  -1.06213  -1.05169  -0.92396  -0.88046
  Beta  occ. eigenvalues --   -0.75637  -0.73418  -0.69530  -0.66796  -0.65089
  Beta  occ. eigenvalues --   -0.63358  -0.58482  -0.55230  -0.54926  -0.52237
  Beta  occ. eigenvalues --   -0.51421  -0.49798  -0.47393  -0.44866  -0.43414
  Beta virt. eigenvalues --    0.02819   0.03619   0.04597   0.05591   0.06690
  Beta virt. eigenvalues --    0.07050   0.08542   0.10107   0.10560   0.12008
  Beta virt. eigenvalues --    0.12530   0.13144   0.14194   0.14511   0.15182

 Mulliken charges and spin densities:
               1          2
     1  C   -0.533667  -0.996483
     2  H    0.255852   0.074688
     3  C    0.872626   1.467207
     4  C   -0.170567  -0.264135
     5  O   -0.303325   0.285437
     6  O   -0.154262  -0.001643
     7  C   -0.246085  -0.016021
     8  C   -0.433100   0.012948
     9  H    0.188669   0.000839
    10  H    0.179594  -0.000662
    11  H    0.174050  -0.000446
    12  H    0.116621  -0.003376
    13  H    0.136938   0.000276
    14  O   -0.330416   0.455575
    15  H    0.247075  -0.014202
 Sum of Mulliken charges =  -0.00000   1.00000

 Dipole moment (field-independent basis, Debye):
    X=             -0.9092    Y=             -3.0580    Z=              0.7905  Tot=              3.2868
 Quadrupole moment (field-independent basis, Debye-Ang):
   XX=            -45.3286   YY=            -58.4420   ZZ=            -43.6636
   XY=             -7.5899   XZ=             -1.0577   YZ=             -1.4405

 \PMP3-0=-419.2932697\MP4SDQ=-419.3024423\CCSD=-419.3102636\CCSD(T)=-41
 Normal termination of Gaussian 16 at Sun May 11 05:36:59 2025.
