 Gaussian 16, Revision A.03,
 Gaussian 16:  ES64L-G16RevA.03 25-Dec-2016

 --------------------------
 # freq 6-311++g(d,p) m062x
 --------------------------

 -------------------
 Title Card Required
 -------------------
 Symbolic Z-matrix:
 Charge =  0 Multiplicity = 2

                         Standard orientation:
 ---------------------------------------------------------------------
 Center     Atomic      Atomic             Coordinates (Angstroms)
 Number     Number       Type             X           Y           Z
 ---------------------------------------------------------------------
      1          6           0       -1.789762   -0.069008    1.014043
      2          1           0       -2.598334   -0.502140    1.556095
      3          6           0       -0.822583    0.498376    0.565329
      4          6           0        0.319098    1.197342   -0.032127
      5          8           0        0.395885    2.390316   -0.008813
      6          8           0        1.251336    0.439765   -0.608194
      7          6           0        1.160507   -1.000910   -0.586695
      8          6           0        1.730705   -1.557603    0.702359
      9          1           0        0.125158   -1.308612   -0.746813
     10          1           0        1.753183   -1.309919   -1.446196
     11          1           0        2.756956   -1.215390    0.842407
     12          1           0        1.135463   -1.247413    1.563042
     13          1           0        1.728820   -2.648662    0.663545
     14          8           0       -2.387217   -1.068136   -0.771894
     15          1           0       -2.569060   -0.272600   -1.298321
 ---------------------------------------------------------------------

 SCF Done:  E(UM062X) =  -420.198716588     A.U. after   23 cycles

 The electronic state is 2-A.
 Alpha  occ. eigenvalues --  -19.68416 -19.67931 -19.63224 -10.71188 -10.61074
 Alpha  occ. eigenvalues --  -10.59697 -10.58941 -10.54477  -1.25510  -1.16992
 Alpha  occ. eigenvalues --   -1.13846  -0.90897  -0.88551  -0.77775  -0.74237
 Alpha  occ. eigenvalues --   -0.64512  -0.62606  -0.58562  -0.57165  -0.55969
 Alpha  occ. eigenvalues --   -0.53303  -0.51188  -0.49509  -0.47431  -0.46100
 Alpha  occ. eigenvalues --   -0.43672  -0.42143  -0.39915  -0.38641  -0.37491
 Alpha  occ. eigenvalues --   -0.35461
 Alpha virt. eigenvalues --   -0.02251  -0.00836   0.00497   0.00783   0.02110
 Alpha virt. eigenvalues --    0.02341   0.03772   0.04373   0.05623   0.06016
 Alpha virt. eigenvalues --    0.06642   0.07855   0.08542   0.09016   0.09330

  Beta  occ. eigenvalues --  -19.68414 -19.66433 -19.63155 -10.71212 -10.61074
  Beta  occ. eigenvalues --  -10.59725 -10.58762 -10.54477  -1.25453  -1.16855
  Beta  occ. eigenvalues --   -1.07195  -0.90106  -0.88542  -0.77670  -0.74104
  Beta  occ. eigenvalues --   -0.64366  -0.62405  -0.58439  -0.56925  -0.53329
  Beta  occ. eigenvalues --   -0.53012  -0.49715  -0.47331  -0.46077  -0.42581
  Beta  occ. eigenvalues --   -0.40710  -0.40285  -0.38894  -0.37589  -0.36891
  Beta virt. eigenvalues --   -0.10724  -0.01412  -0.00605   0.00654   0.01110
  Beta virt. eigenvalues --    0.02337   0.02445   0.04099   0.04522   0.05857
  Beta virt. eigenvalues --    0.06151   0.06694   0.07962   0.08785   0.09137

 Mulliken charges and spin densities:
               1          2
     1  C   -1.308171  -0.041158
     2  H    0.234665   0.011879
     3  C    1.405115   0.188102
     4  C   -0.104321  -0.019267
     5  O   -0.244782   0.032767
     6  O   -0.037701   0.001413
     7  C   -0.372710  -0.000107
     8  C   -0.432314   0.001657
     9  H    0.207337   0.001191
    10  H    0.202680   0.000518
    11  H    0.189854  -0.000165
    12  H    0.132946  -0.001119
    13  H    0.164339   0.000016
    14  O   -0.274840   0.840291
    15  H    0.237903  -0.016019
 Sum of Mulliken charges =  -0.00000   1.00000

 Dipole moment (field-independent basis, Debye):
    X=             -1.1193    Y=             -3.1795    Z=              0.4651  Tot=              3.4027
 Quadrupole moment (field-independent basis, Debye-Ang):
   XX=            -43.4431   YY=            -57.0189   ZZ=            -43.9003
   XY=             -6.3424   XZ=             -0.4102   YZ=             -1.1905

  Exact polarizability:  81.053   9.415  79.404   0.343   4.337  62.809
 Approx polarizability:  88.839  15.717  94.924  -5.861   1.477  71.282

 ******    2 imaginary frequencies (negative Signs) ******

                      1                      2                      3
                      A                      A                      A
 Frequencies --   -246.4039               -43.1827                71.9641
 Red. masses --     12.9052                 5.9002                 8.9214
 Frc consts  --      0.4616                 0.0065                 0.0272
 IR Inten    --     30.7999                 6.1224                 5.8547

                      4                      5                      6
                      A                      A                      A
 Frequencies --     77.8988               105.5147               179.6927
 Red. masses --      4.0850                 3.5320                 2.6728
 Frc consts  --      0.0146                 0.0232                 0.0508
 IR Inten    --      1.5805                 0.2623                 2.4803

                      7                      8                      9
                      A                      A                      A
 Frequencies --    228.1461               237.4214               308.9539
 Red. masses --      1.2218                 1.4074                 2.5698
 Frc consts  --      0.0375                 0.0467                 0.1445
 IR Inten    --      0.4574                67.1944                23.9451

                     10                     11                     12
                      A                      A                      A
 Frequencies --    362.3267               408.8253               554.6207
 Red. masses --      2.8340                 3.6905                 5.1842
 Frc consts  --      0.2192                 0.3634                 0.9396
 IR Inten    --      2.6052                 3.4592                15.0365

                     13                     14                     15
                      A                      A                      A
 Frequencies --    630.0368               641.6748               747.9917
 Red. masses --      4.2067                 1.1617                 1.3996
 Frc consts  --      0.9838                 0.2818                 0.4614
 IR Inten    --      8.0411                99.7487                31.4672

                     16                     17                     18
                      A                      A                      A
 Frequencies --    754.7643               763.6071               798.1487
 Red. masses --      5.5764                 4.6866                 1.1688
 Frc consts  --      1.8717                 1.6101                 0.4387
 IR Inten    --      4.4225                 6.1747                77.5285

                     19                     20                     21
                      A                      A                      A
 Frequencies --    817.3801               950.9319              1103.2738
 Red. masses --      1.1498                 2.2688                 3.8014
 Frc consts  --      0.4526                 1.2088                 2.7262
 IR Inten    --      5.2705                11.8038                57.9293

                     22                     23                     24
                      A                      A                      A
 Frequencies --   1128.1783              1179.7351              1262.6415
 Red. masses --      2.4531                 1.9011                 2.8896
 Frc consts  --      1.8396                 1.5589                 2.7142
 IR Inten    --     44.8395                63.0933               352.6512

                     25                     26                     27
                      A                      A                      A
 Frequencies --   1357.8795              1406.9452              1436.8657
 Red. masses --      1.2668                 1.2594                 1.3530
 Frc consts  --      1.3762                 1.4688                 1.6459
 IR Inten    --    112.1355                21.7259                16.7315

                     28                     29                     30
                      A                      A                      A
 Frequencies --   1492.5359              1502.9458              1535.4520
 Red. masses --      1.0405                 1.0477                 1.0960
 Frc consts  --      1.3657                 1.3944                 1.5224
 IR Inten    --      3.9541                 2.3675                11.1208

                     31                     32                     33
                      A                      A                      A
 Frequencies --   1854.5857              2183.0825              3072.5760
 Red. masses --     12.9548                 6.0210                 1.0354
 Frc consts  --     26.2527                16.9068                 5.7594
 IR Inten    --    504.1189                55.7029                 7.5763

                     34                     35                     36
                      A                      A                      A
 Frequencies --   3101.6640              3144.3001              3152.2493
 Red. masses --      1.0624                 1.1042                 1.1014
 Frc consts  --      6.0221                 6.4318                 6.4484
 IR Inten    --     10.5566                 2.9251                12.0703

                     37                     38                     39
                      A                      A                      A
 Frequencies --   3167.4477              3476.8188              3800.5901
 Red. masses --      1.1067                 1.1588                 1.0674
 Frc consts  --      6.5418                 8.2532                 9.0844
 IR Inten    --     16.9841                73.5501                46.1385

 - Thermochemistry -
 -------------------
 Temperature   298.150 Kelvin.  Pressure   1.00000 Atm.
 Atom     1 has atomic number  6 and mass  12.00000

 Molecular mass:   115.03952 amu.
 Principal axes and moments of inertia in atomic units:
                           1         2         3
     Eigenvalues --   849.567071073.922931551.80477
           X            0.98729  -0.15858   0.01076
           Y            0.15876   0.98715  -0.01813
           Z           -0.00775   0.01961   0.99978
 This molecule is an asymmetric top.
 Rotational symmetry number  1.
 Warning -- assumption of classical behavior for rotation
           may cause significant error
 Rotational temperatures (Kelvin)      0.10195     0.08065     0.05581
 Rotational constants (GHZ):           2.12431     1.68051     1.16300
    2 imaginary frequencies ignored.
 Zero-point vibrational energy     293083.1 (Joules/Mol)
                                   70.04854 (Kcal/Mol)
 Warning -- explicit consideration of  10 degrees of freedom as
           vibrations may cause significant error
 Vibrational temperatures:    103.54   112.08   151.81   258.54   328.25
          (Kelvin)            341.60   444.52   521.31   588.21   797.98
                              906.48   923.23  1076.19  1085.94  1098.66
                             1148.36  1176.03  1368.18  1587.36  1623.20
                             1697.38  1816.66  1953.69  2024.28  2067.33
                             2147.43  2162.40  2209.17  2668.34  3140.97
                             4420.75  4462.60  4523.95  4535.38  4557.25
                             5002.37  5468.20

 Zero-point correction=                           0.111629 (Hartree/Particle)
 Thermal correction to Energy=                    0.120486
 Thermal correction to Enthalpy=                  0.121430
 Thermal correction to Gibbs Free Energy=         0.076786
 Sum of electronic and zero-point Energies=           -420.087087
 Sum of electronic and thermal Energies=              -420.078230
 Sum of electronic and thermal Enthalpies=            -420.077286
 Sum of electronic and thermal Free Energies=         -420.121931

                     E (Thermal)             CV                S
                      KCal/Mol        Cal/Mol-Kelvin    Cal/Mol-Kelvin
 Total                   75.606             30.361             93.963
 Electronic               0.000              0.000              1.377
 Translational            0.889              2.981             40.136
 Rotational               0.889              2.981             28.739
 Vibrational             73.829             24.400             23.711
 Vibration     1          0.598              1.967              4.099
 Vibration     2          0.599              1.964              3.943
 Vibration     3          0.605              1.945              3.350
 Vibration     4          0.629              1.867              2.332
 Vibration     5          0.651              1.798              1.893
 Vibration     6          0.656              1.783              1.822
 Vibration     7          0.698              1.657              1.368
 Vibration     8          0.736              1.550              1.112
 Vibration     9          0.773              1.451              0.931
 Vibration    10          0.910              1.130              0.535

 Normal termination of Gaussian 16 at Fri Mar 28 19:52:06 2025.
