 Gaussian 16, Revision A.03,
 Gaussian 16:  ES64L-G16RevA.03 25-Dec-2016

 --------------------------
 # ccsd(t)/6-311++g(d,p) sp
 --------------------------

 -------------------
 Title Card Required
 -------------------
 Symbolic Z-matrix:
 Charge =  0 Multiplicity = 2

                         Standard orientation:
 ---------------------------------------------------------------------
 Center     Atomic      Atomic             Coordinates (Angstroms)
 Number     Number       Type             X           Y           Z
 ---------------------------------------------------------------------
      1          6           0       -1.820514   -0.143223    0.914875
      2          1           0       -2.587127   -0.534664    1.548324
      3          6           0       -0.827938    0.485385    0.568895
      4          6           0        0.308207    1.199613   -0.015852
      5          8           0        0.372406    2.393982    0.023839
      6          8           0        1.250471    0.458769   -0.595425
      7          6           0        1.171781   -0.983461   -0.593727
      8          6           0        1.740984   -1.550852    0.691083
      9          1           0        0.139598   -1.297321   -0.764162
     10          1           0        1.771788   -1.275478   -1.453971
     11          1           0        2.763321   -1.201108    0.840789
     12          1           0        1.139131   -1.257439    1.553247
     13          1           0        1.749057   -2.641256    0.638767
     14          8           0       -2.355370   -1.048124   -0.736794
     15          1           0       -2.550943   -0.274516   -1.287602
 ---------------------------------------------------------------------

 SCF Done:  E(UHF) =  -417.969330753     A.U. after   34 cycles
 E2 =    -0.1256405232D+01 EUMP2 =    -0.41922573598459D+03
 CCSD(T)= -0.41934776282D+03

 The electronic state is 2-A.
 Alpha  occ. eigenvalues --  -20.63229 -20.61037 -20.56598 -11.41219 -11.30306
 Alpha  occ. eigenvalues --  -11.28473 -11.28011 -11.23409  -1.47983  -1.39106
 Alpha  occ. eigenvalues --   -1.38927  -1.09465  -1.05069  -0.91563  -0.87567
 Alpha  occ. eigenvalues --   -0.76046  -0.73637  -0.70252  -0.68038  -0.67172
 Alpha  occ. eigenvalues --   -0.65181  -0.63606  -0.59136  -0.56558  -0.55717
 Alpha  occ. eigenvalues --   -0.54933  -0.51120  -0.48982  -0.47340  -0.44276
 Alpha  occ. eigenvalues --   -0.42924
 Alpha virt. eigenvalues --    0.03548   0.04581   0.04989   0.06640   0.06930
 Alpha virt. eigenvalues --    0.08220   0.09538   0.10637   0.10956   0.12019
 Alpha virt. eigenvalues --    0.13222   0.14089   0.14445   0.15165   0.15604

  Beta  occ. eigenvalues --  -20.61127 -20.59605 -20.55643 -11.41807 -11.30294
  Beta  occ. eigenvalues --  -11.30092 -11.26021 -11.23408  -1.47633  -1.37684
  Beta  occ. eigenvalues --   -1.26276  -1.06999  -1.05055  -0.91998  -0.87696
  Beta  occ. eigenvalues --   -0.75690  -0.73483  -0.69320  -0.66673  -0.64802
  Beta  occ. eigenvalues --   -0.63169  -0.58321  -0.55137  -0.54785  -0.52157
  Beta  occ. eigenvalues --   -0.50443  -0.47473  -0.46790  -0.44079  -0.43658
  Beta virt. eigenvalues --    0.03127   0.04115   0.04574   0.05947   0.06673
  Beta virt. eigenvalues --    0.07131   0.08482   0.10035   0.10636   0.12145
  Beta virt. eigenvalues --    0.12276   0.13402   0.14197   0.14506   0.15308

 Mulliken charges and spin densities:
               1          2
     1  C   -0.949827  -0.949990
     2  H    0.279984   0.068121
     3  C    1.125728   1.092143
     4  C   -0.099012  -0.220520
     5  O   -0.317532   0.203818
     6  O   -0.150636  -0.002589
     7  C   -0.253081  -0.003221
     8  C   -0.436091   0.006266
     9  H    0.190990  -0.000743
    10  H    0.177633   0.000168
    11  H    0.173096  -0.000401
    12  H    0.116735  -0.003122
    13  H    0.135206   0.000357
    14  O   -0.230665   0.836233
    15  H    0.237471  -0.026520
 Sum of Mulliken charges =  -0.00000   1.00000

 Dipole moment (field-independent basis, Debye):
    X=             -1.4344    Y=             -3.6012    Z=              0.2720  Tot=              3.8859
 Quadrupole moment (field-independent basis, Debye-Ang):
   XX=            -43.3892   YY=            -58.1284   ZZ=            -43.6219
   XY=             -6.3247   XZ=              0.1230   YZ=             -1.0401

 3-0=-419.274678\MP4SDQ=-419.2843128\CCSD=-419.2926004\CCSD(T)=-419.347
 Normal termination of Gaussian 16 at Sun May 11 03:57:09 2025.
