 Gaussian 16, Revision A.03,
 Gaussian 16:  ES64L-G16RevA.03 25-Dec-2016

 --------------------------
 # freq 6-311++g(d,p) m062x
 --------------------------

 -------------------
 Title Card Required
 -------------------
 Symbolic Z-matrix:
 Charge =  0 Multiplicity = 2

                         Standard orientation:
 ---------------------------------------------------------------------
 Center     Atomic      Atomic             Coordinates (Angstroms)
 Number     Number       Type             X           Y           Z
 ---------------------------------------------------------------------
      1          6           0       -1.839293   -0.184171    0.854306
      2          1           0       -2.569405   -0.542228    1.553816
      3          6           0       -0.827767    0.481607    0.574723
      4          6           0        0.302317    1.199988   -0.007857
      5          8           0        0.361576    2.395653    0.039614
      6          8           0        1.250324    0.467548   -0.589322
      7          6           0        1.176928   -0.974871   -0.597264
      8          6           0        1.745519   -1.548068    0.685301
      9          1           0        0.146169   -1.291698   -0.772775
     10          1           0        1.780032   -1.259292   -1.457869
     11          1           0        2.765947   -1.194844    0.839713
     12          1           0        1.140711   -1.262759    1.548241
     13          1           0        1.758271   -2.638067    0.626361
     14          8           0       -2.340016   -1.036262   -0.714962
     15          1           0       -2.543019   -0.273539   -1.275385
 ---------------------------------------------------------------------

 SCF Done:  E(UM062X) =  -420.203968519     A.U. after   20 cycles

 The electronic state is 2-A.
 Alpha  occ. eigenvalues --  -19.68636 -19.65788 -19.63667 -10.71500 -10.63272
 Alpha  occ. eigenvalues --  -10.61233 -10.61042 -10.54692  -1.25832  -1.17376
 Alpha  occ. eigenvalues --   -1.11912  -0.92277  -0.88754  -0.78466  -0.74944
 Alpha  occ. eigenvalues --   -0.64825  -0.63151  -0.58952  -0.57601  -0.54971
 Alpha  occ. eigenvalues --   -0.53609  -0.51011  -0.48916  -0.47709  -0.46307
 Alpha  occ. eigenvalues --   -0.42906  -0.41943  -0.39753  -0.38958  -0.37686
 Alpha  occ. eigenvalues --   -0.33264
 Alpha virt. eigenvalues --   -0.02128  -0.00780   0.00547   0.00667   0.01865
 Alpha virt. eigenvalues --    0.02369   0.03751   0.04275   0.05557   0.05950
 Alpha virt. eigenvalues --    0.06527   0.07863   0.08275   0.08916   0.09325

  Beta  occ. eigenvalues --  -19.68633 -19.64866 -19.63468 -10.71564 -10.63419
  Beta  occ. eigenvalues --  -10.61230 -10.60584 -10.54691  -1.25661  -1.16979
  Beta  occ. eigenvalues --   -1.08584  -0.90302  -0.88734  -0.78176  -0.74651
  Beta  occ. eigenvalues --   -0.64529  -0.62742  -0.58644  -0.56968  -0.53467
  Beta  occ. eigenvalues --   -0.52994  -0.49846  -0.47480  -0.46293  -0.43133
  Beta  occ. eigenvalues --   -0.42677  -0.40331  -0.38641  -0.37701  -0.36777
  Beta virt. eigenvalues --   -0.11831  -0.00996  -0.00646   0.00639   0.01037
  Beta virt. eigenvalues --    0.02353   0.02475   0.04262   0.04614   0.05825
  Beta virt. eigenvalues --    0.06162   0.06402   0.08006   0.08436   0.09016

 Mulliken charges and spin densities:
               1          2
     1  C   -0.516238  -0.215165
     2  H    0.258612   0.020266
     3  C    0.740845   0.651226
     4  C   -0.194586  -0.025033
     5  O   -0.243819   0.098437
     6  O   -0.037795   0.006560
     7  C   -0.370209  -0.013670
     8  C   -0.435282   0.006303
     9  H    0.206396   0.006933
    10  H    0.205139   0.000195
    11  H    0.191512   0.000083
    12  H    0.132062  -0.000880
    13  H    0.166311  -0.000383
    14  O   -0.341893   0.471797
    15  H    0.238943  -0.006668
 Sum of Mulliken charges =  -0.00000   1.00000

 Dipole moment (field-independent basis, Debye):
    X=             -0.6114    Y=             -2.7910    Z=              0.9504  Tot=              3.0111
 Quadrupole moment (field-independent basis, Debye-Ang):
   XX=            -45.1483   YY=            -57.4973   ZZ=            -43.7909
   XY=             -7.3735   XZ=             -1.6988   YZ=             -1.5755

  Exact polarizability:  81.689  10.397  80.518   2.072   5.511  62.993
 Approx polarizability:  89.726  18.059  98.887   0.070   6.963  74.556

 ******    1 imaginary frequencies (negative Signs) ******

                      1                      2                      3
                      A                      A                      A
 Frequencies --   -719.6722                77.6373                95.6296
 Red. masses --     11.0829                 3.8263                 5.5389
 Frc consts  --      3.3820                 0.0136                 0.0298
 IR Inten    --      5.5842                 1.4162                 1.2556

                      4                      5                      6
                      A                      A                      A
 Frequencies --    128.2604               143.3288               216.9757
 Red. masses --      6.3883                 3.7939                 1.1936
 Frc consts  --      0.0619                 0.0459                 0.0331
 IR Inten    --      6.4928                 4.7516                 0.9426

                      7                      8                      9
                      A                      A                      A
 Frequencies --    239.8875               252.3934               346.3561
 Red. masses --      1.3949                 1.9853                 3.8828
 Frc consts  --      0.0473                 0.0745                 0.2744
 IR Inten    --     48.7350                49.9707                 5.4701

                     10                     11                     12
                      A                      A                      A
 Frequencies --    362.9531               410.5053               556.7647
 Red. masses --      3.3218                 3.5898                 5.3234
 Frc consts  --      0.2578                 0.3564                 0.9723
 IR Inten    --      0.7025                 4.0559                20.3404

                     13                     14                     15
                      A                      A                      A
 Frequencies --    616.6955               734.7068               739.7877
 Red. masses --      6.6352                 9.4174                 1.3310
 Frc consts  --      1.4868                 2.9951                 0.4292
 IR Inten    --      1.3738                18.0270                36.0067

                     16                     17                     18
                      A                      A                      A
 Frequencies --    755.4835               818.6144               913.3595
 Red. masses --      4.5479                 1.1424                 1.1509
 Frc consts  --      1.5293                 0.4510                 0.5657
 IR Inten    --      1.5760                 4.8604                81.7498

                     19                     20                     21
                      A                      A                      A
 Frequencies --    948.0855               975.6205              1101.0229
 Red. masses --      2.1088                 1.1419                 3.9494
 Frc consts  --      1.1168                 0.6404                 2.8208
 IR Inten    --     13.7852                11.2984                56.2157

                     22                     23                     24
                      A                      A                      A
 Frequencies --   1126.2724              1178.5687              1259.8031
 Red. masses --      2.3884                 1.9249                 2.9039
 Frc consts  --      1.7850                 1.5753                 2.7154
 IR Inten    --     37.6611                68.5934               336.0120

                     25                     26                     27
                      A                      A                      A
 Frequencies --   1357.7885              1407.0773              1437.1280
 Red. masses --      1.2597                 1.2552                 1.3469
 Frc consts  --      1.3683                 1.4642                 1.6389
 IR Inten    --    104.9751                19.3354                16.1394

                     28                     29                     30
                      A                      A                      A
 Frequencies --   1492.3585              1502.1521              1536.8907
 Red. masses --      1.0403                 1.0490                 1.0939
 Frc consts  --      1.3650                 1.3946                 1.5224
 IR Inten    --      4.2895                 2.3109                 9.3804

                     31                     32                     33
                      A                      A                      A
 Frequencies --   1823.8371              1950.1609              3071.8663
 Red. masses --     12.9124                 6.9418                 1.0356
 Frc consts  --     25.3063                15.5548                 5.7578
 IR Inten    --    461.3220                65.7017                 6.9354

                     34                     35                     36
                      A                      A                      A
 Frequencies --   3096.0976              3142.1934              3152.9106
 Red. masses --      1.0640                 1.1035                 1.1014
 Frc consts  --      6.0090                 6.4190                 6.4509
 IR Inten    --     10.8158                 4.2076                11.4172

                     37                     38                     39
                      A                      A                      A
 Frequencies --   3166.1561              3373.6956              3833.6265
 Red. masses --      1.1060                 1.1276                 1.0679
 Frc consts  --      6.5323                 7.5615                 9.2471
 IR Inten    --     16.5727                37.9995                70.9526

 - Thermochemistry -
 -------------------
 Temperature   298.150 Kelvin.  Pressure   1.00000 Atm.
 Atom     1 has atomic number  6 and mass  12.00000

 Molecular mass:   115.03952 amu.
 Principal axes and moments of inertia in atomic units:
                           1         2         3
     Eigenvalues --   826.184591051.630631544.51545
           X            0.98758  -0.15680   0.00960
           Y            0.15695   0.98745  -0.01734
           Z           -0.00676   0.01863   0.99980
 This molecule is an asymmetric top.
 Rotational symmetry number  1.
 Warning -- assumption of classical behavior for rotation
           may cause significant error
 Rotational temperatures (Kelvin)      0.10484     0.08236     0.05608
 Rotational constants (GHZ):           2.18443     1.71614     1.16848
    1 imaginary frequencies ignored.
 Zero-point vibrational energy     295134.6 (Joules/Mol)
                                   70.53886 (Kcal/Mol)
 Warning -- explicit consideration of  12 degrees of freedom as
           vibrations may cause significant error
 Vibrational temperatures:    111.70   137.59   184.54   206.22   312.18
          (Kelvin)            345.14   363.14   498.33   522.21   590.63
                              801.06   887.29  1057.08  1064.39  1086.97
                             1177.80  1314.12  1364.08  1403.70  1584.13
                             1620.45  1695.70  1812.58  1953.55  2024.47
                             2067.71  2147.17  2161.26  2211.24  2624.09
                             2805.85  4419.73  4454.59  4520.92  4536.34
                             4555.39  4854.00  5515.73

 Zero-point correction=                           0.112411 (Hartree/Particle)
 Thermal correction to Energy=                    0.121585
 Thermal correction to Enthalpy=                  0.122529
 Thermal correction to Gibbs Free Energy=         0.077534
 Sum of electronic and zero-point Energies=           -420.091558
 Sum of electronic and thermal Energies=              -420.082383
 Sum of electronic and thermal Enthalpies=            -420.081439
 Sum of electronic and thermal Free Energies=         -420.126434

                     E (Thermal)             CV                S
                      KCal/Mol        Cal/Mol-Kelvin    Cal/Mol-Kelvin
 Total                   76.296             31.457             94.700
 Electronic               0.000              0.000              1.377
 Translational            0.889              2.981             40.136
 Rotational               0.889              2.981             28.686
 Vibrational             74.518             25.495             24.501
 Vibration     1          0.599              1.964              3.950
 Vibration     2          0.603              1.952              3.541
 Vibration     3          0.611              1.925              2.972
 Vibration     4          0.616              1.910              2.759
 Vibration     5          0.646              1.815              1.984
 Vibration     6          0.657              1.779              1.804
 Vibration     7          0.664              1.759              1.714
 Vibration     8          0.724              1.583              1.183
 Vibration     9          0.737              1.549              1.109
 Vibration    10          0.775              1.447              0.925
 Vibration    11          0.912              1.125              0.530
 Vibration    12          0.976              0.997              0.422

 Normal termination of Gaussian 16 at Fri Mar 28 23:28:10 2025.
