 Gaussian 16, Revision A.03,
 Gaussian 16:  ES64L-G16RevA.03 25-Dec-2016

 --------------------------
 # ccsd(t)/6-311++g(d,p) sp
 --------------------------

 -------------------
 Title Card Required
 -------------------
 Symbolic Z-matrix:
 Charge =  0 Multiplicity = 2

                         Standard orientation:
 ---------------------------------------------------------------------
 Center     Atomic      Atomic             Coordinates (Angstroms)
 Number     Number       Type             X           Y           Z
 ---------------------------------------------------------------------
      1          6           0       -1.772023   -0.021029    1.070085
      2          1           0       -2.593537   -0.461090    1.585487
      3          6           0       -0.815319    0.510990    0.568296
      4          6           0        0.327939    1.195054   -0.043973
      5          8           0        0.414256    2.387328   -0.033081
      6          8           0        1.252004    0.425118   -0.617566
      7          6           0        1.151341   -1.014199   -0.581484
      8          6           0        1.722301   -1.563358    0.710482
      9          1           0        0.113210   -1.316286   -0.734274
     10          1           0        1.738061   -1.335994   -1.440419
     11          1           0        2.751492   -1.227258    0.843603
     12          1           0        1.132356   -1.241006    1.570264
     13          1           0        1.712556   -2.654697    0.681418
     14          8           0       -2.410568   -1.079966   -0.792977
     15          1           0       -2.585100   -0.268257   -1.297529
 ---------------------------------------------------------------------

 SCF Done:  E(UHF) =  -417.979454867     A.U. after   41 cycles
 E2 =    -0.1261816636D+01 EUMP2 =    -0.41924127150341D+03
 CCSD(T)= -0.41934907154D+03

 The electronic state is 2-A.
 Alpha  occ. eigenvalues --  -20.64408 -20.61102 -20.56005 -11.41432 -11.30270
 Alpha  occ. eigenvalues --  -11.27529 -11.27141 -11.23310  -1.47799  -1.40023
 Alpha  occ. eigenvalues --   -1.38661  -1.08520  -1.05005  -0.91526  -0.87410
 Alpha  occ. eigenvalues --   -0.75926  -0.73447  -0.69891  -0.69020  -0.67485
 Alpha  occ. eigenvalues --   -0.66336  -0.63417  -0.58790  -0.57090  -0.55960
 Alpha  occ. eigenvalues --   -0.54823  -0.50979  -0.48541  -0.46884  -0.43723
 Alpha  occ. eigenvalues --   -0.42620
 Alpha virt. eigenvalues --    0.03432   0.04549   0.04962   0.06605   0.06942
 Alpha virt. eigenvalues --    0.08024   0.09576   0.10113   0.10870   0.11783
 Alpha virt. eigenvalues --    0.13185   0.14094   0.14354   0.15198   0.15645

  Beta  occ. eigenvalues --  -20.61155 -20.60346 -20.55480 -11.41755 -11.30265
  Beta  occ. eigenvalues --  -11.28408 -11.26041 -11.23310  -1.47629  -1.37882
  Beta  occ. eigenvalues --   -1.24902  -1.07364  -1.05001  -0.91805  -0.87549
  Beta  occ. eigenvalues --   -0.75773  -0.73448  -0.69314  -0.66639  -0.64872
  Beta  occ. eigenvalues --   -0.63151  -0.58341  -0.55294  -0.54761  -0.52441
  Beta  occ. eigenvalues --   -0.50539  -0.47667  -0.46328  -0.43496  -0.43274
  Beta virt. eigenvalues --    0.03236   0.04499   0.04554   0.06459   0.06691
  Beta virt. eigenvalues --    0.07424   0.08266   0.09901   0.10388   0.11636
  Beta virt. eigenvalues --    0.12021   0.13348   0.14115   0.14635   0.15338

 Mulliken charges and spin densities:
               1          2
     1  C   -2.222901  -0.486512
     2  H    0.239618   0.046524
     3  C    2.198943   0.528968
     4  C    0.128670  -0.131259
     5  O   -0.331703   0.111399
     6  O   -0.148383  -0.002097
     7  C   -0.247672   0.002445
     8  C   -0.439933   0.002832
     9  H    0.190735  -0.002737
    10  H    0.178057   0.000239
    11  H    0.170455  -0.000269
    12  H    0.120555  -0.002260
    13  H    0.134756   0.000226
    14  O   -0.208837   0.964215
    15  H    0.237639  -0.031715
 Sum of Mulliken charges =  -0.00000   1.00000

 Dipole moment (field-independent basis, Debye):
    X=             -1.7912    Y=             -3.8284    Z=              0.1184  Tot=              4.2283
 Quadrupole moment (field-independent basis, Debye-Ang):
   XX=            -42.3412   YY=            -58.1061   ZZ=            -43.7291
   XY=             -6.0039   XZ=              0.6677   YZ=             -0.7855

 PMP3-0=-419.2754791\MP4SDQ=-419.2939992\CCSD=-419.2957072\CCSD(T)=-419
 Normal termination of Gaussian 16 at Sun May 11 07:17:41 2025.
