 Gaussian 16, Revision A.03,
 Gaussian 16:  ES64L-G16RevA.03 25-Dec-2016

 --------------------------
 # ccsd(t)/6-311++g(d,p) sp
 --------------------------

 -------------------
 Title Card Required
 -------------------
 Symbolic Z-matrix:
 Charge =  0 Multiplicity = 2

                         Standard orientation:
 ---------------------------------------------------------------------
 Center     Atomic      Atomic             Coordinates (Angstroms)
 Number     Number       Type             X           Y           Z
 ---------------------------------------------------------------------
      1          6           0       -1.845266   -0.197311    0.834125
      2          1           0       -2.562292   -0.544122    1.554586
      3          6           0       -0.827604    0.480537    0.577130
      4          6           0        0.300267    1.200034   -0.005425
      5          8           0        0.358195    2.396151    0.044429
      6          8           0        1.250291    0.470241   -0.587501
      7          6           0        1.178514   -0.972121   -0.598382
      8          6           0        1.746962   -1.547173    0.683451
      9          1           0        0.148251   -1.289981   -0.775395
     10          1           0        1.782495   -1.254309   -1.459120
     11          1           0        2.766794   -1.192836    0.839230
     12          1           0        1.141297   -1.264329    1.546628
     13          1           0        1.761213   -2.637042    0.622481
     14          8           0       -2.335259   -1.032342   -0.707255
     15          1           0       -2.540810   -0.273581   -1.271193
 ---------------------------------------------------------------------

 SCF Done:  E(UHF) =  -417.970899238     A.U. after   30 cycles
 E2 =    -0.1258359182D+01 EUMP2 =    -0.41922925841926D+03
 CCSD(T)= -0.41935495495D+03

 The electronic state is 2-A.
 Alpha  occ. eigenvalues --  -20.61883 -20.61078 -20.57182 -11.41202 -11.30383
 Alpha  occ. eigenvalues --  -11.29927 -11.29431 -11.23528  -1.48202  -1.39456
 Alpha  occ. eigenvalues --   -1.37391  -1.10328  -1.05160  -0.91830  -0.87928
 Alpha  occ. eigenvalues --   -0.76166  -0.73735  -0.70585  -0.67622  -0.66822
 Alpha  occ. eigenvalues --   -0.64089  -0.63090  -0.59334  -0.56792  -0.55117
 Alpha  occ. eigenvalues --   -0.54376  -0.51308  -0.49339  -0.47668  -0.44736
 Alpha  occ. eigenvalues --   -0.43336
 Alpha virt. eigenvalues --    0.03588   0.04586   0.05067   0.06661   0.06914
 Alpha virt. eigenvalues --    0.08219   0.09516   0.10691   0.10958   0.12117
 Alpha virt. eigenvalues --    0.13067   0.14097   0.14515   0.15113   0.15789

  Beta  occ. eigenvalues --  -20.61188 -20.58937 -20.55990 -11.41924 -11.32175
  Beta  occ. eigenvalues --  -11.30366 -11.26562 -11.23527  -1.47717  -1.37685
  Beta  occ. eigenvalues --   -1.27830  -1.06645  -1.05136  -0.92274  -0.87933
  Beta  occ. eigenvalues --   -0.75649  -0.73462  -0.69454  -0.66775  -0.64754
  Beta  occ. eigenvalues --   -0.63286  -0.58416  -0.55151  -0.54876  -0.51952
  Beta  occ. eigenvalues --   -0.50514  -0.48414  -0.47339  -0.44661  -0.43652
  Beta virt. eigenvalues --    0.02971   0.03753   0.04585   0.05691   0.06688
  Beta virt. eigenvalues --    0.07073   0.08522   0.10084   0.10608   0.12108
  Beta virt. eigenvalues --    0.12451   0.13227   0.14246   0.14459   0.15295

 Mulliken charges and spin densities:
               1          2
     1  C   -0.663101  -1.055368
     2  H    0.270699   0.074081
     3  C    0.933204   1.344045
     4  C   -0.151174  -0.257372
     5  O   -0.308336   0.256899
     6  O   -0.152538  -0.002254
     7  C   -0.251086  -0.010004
     8  C   -0.433681   0.009829
     9  H    0.191024   0.000238
    10  H    0.178785  -0.000265
    11  H    0.173783  -0.000469
    12  H    0.116091  -0.003406
    13  H    0.136271   0.000380
    14  O   -0.280552   0.664263
    15  H    0.240611  -0.020596
 Sum of Mulliken charges =  -0.00000   1.00000

 Dipole moment (field-independent basis, Debye):
    X=             -1.1000    Y=             -3.2690    Z=              0.5851  Tot=              3.4984
 Quadrupole moment (field-independent basis, Debye-Ang):
   XX=            -44.5806   YY=            -58.2720   ZZ=            -43.6072
   XY=             -7.0701   XZ=             -0.5931   YZ=             -1.2671

 61\PMP3-0=-419.2830923\MP4SDQ=-419.2892255\CCSD=-419.2992466\CCSD(T)=-
 Normal termination of Gaussian 16 at Sun May 11 08:10:11 2025.
