 Gaussian 16, Revision A.03,
 Gaussian 16:  ES64L-G16RevA.03 25-Dec-2016

 --------------------------
 # ccsd(t)/6-311++g(d,p) sp
 --------------------------

 -------------------
 Title Card Required
 -------------------
 Symbolic Z-matrix:
 Charge =  0 Multiplicity = 2

                         Standard orientation:
 ---------------------------------------------------------------------
 Center     Atomic      Atomic             Coordinates (Angstroms)
 Number     Number       Type             X           Y           Z
 ---------------------------------------------------------------------
      1          6           0       -1.777914   -0.037275    1.051825
      2          1           0       -2.596027   -0.476733    1.573285
      3          6           0       -0.818066    0.506403    0.566773
      4          6           0        0.324760    1.195880   -0.039877
      5          8           0        0.407768    2.388398   -0.024566
      6          8           0        1.251807    0.430280   -0.614284
      7          6           0        1.154639   -1.009521   -0.583312
      8          6           0        1.725280   -1.561310    0.707667
      9          1           0        0.117511   -1.313667   -0.738672
     10          1           0        1.743504   -1.326841   -1.442435
     11          1           0        2.753437   -1.223029    0.843227
     12          1           0        1.133425   -1.243188    1.567735
     13          1           0        1.718319   -2.652569    0.675203
     14          8           0       -2.402498   -1.076084   -0.785971
     15          1           0       -2.578982   -0.269782   -1.298234
 ---------------------------------------------------------------------

 SCF Done:  E(UHF) =  -417.978168238     A.U. after   41 cycles
 E2 =    -0.1261336358D+01 EUMP2 =    -0.41923950459663D+03
 CCSD(T)= -0.41934856569D+03

 The electronic state is 2-A.
 Alpha  occ. eigenvalues --  -20.64336 -20.61086 -20.56038 -11.41399 -11.30264
 Alpha  occ. eigenvalues --  -11.27557 -11.27159 -11.23312  -1.47801  -1.39986
 Alpha  occ. eigenvalues --   -1.38690  -1.08589  -1.05003  -0.91514  -0.87407
 Alpha  occ. eigenvalues --   -0.75946  -0.73477  -0.69913  -0.68951  -0.67462
 Alpha  occ. eigenvalues --   -0.66290  -0.63427  -0.58811  -0.57035  -0.55982
 Alpha  occ. eigenvalues --   -0.54824  -0.50981  -0.48567  -0.46916  -0.43759
 Alpha  occ. eigenvalues --   -0.42609
 Alpha virt. eigenvalues --    0.03437   0.04549   0.04958   0.06609   0.06941
 Alpha virt. eigenvalues --    0.08059   0.09570   0.10181   0.10884   0.11807
 Alpha virt. eigenvalues --    0.13212   0.14090   0.14363   0.15214   0.15603

  Beta  occ. eigenvalues --  -20.61142 -20.60294 -20.55471 -11.41748 -11.30259
  Beta  occ. eigenvalues --  -11.28498 -11.25984 -11.23312  -1.47615  -1.37848
  Beta  occ. eigenvalues --   -1.25012  -1.07334  -1.04999  -0.91811  -0.87550
  Beta  occ. eigenvalues --   -0.75772  -0.73461  -0.69300  -0.66631  -0.64877
  Beta  occ. eigenvalues --   -0.63141  -0.58327  -0.55269  -0.54755  -0.52429
  Beta  occ. eigenvalues --   -0.50527  -0.47625  -0.46326  -0.43511  -0.43319
  Beta virt. eigenvalues --    0.03220   0.04479   0.04551   0.06436   0.06678
  Beta virt. eigenvalues --    0.07382   0.08297   0.09924   0.10427   0.11703
  Beta virt. eigenvalues --    0.12048   0.13388   0.14113   0.14631   0.15303

 Mulliken charges and spin densities:
               1          2
     1  C   -2.072757  -0.536066
     2  H    0.243676   0.049200
     3  C    2.085729   0.583782
     4  C    0.088781  -0.140343
     5  O   -0.330506   0.120309
     6  O   -0.148947  -0.002213
     7  C   -0.249059   0.002146
     8  C   -0.439407   0.003074
     9  H    0.190741  -0.002505
    10  H    0.177797   0.000267
    11  H    0.170836  -0.000279
    12  H    0.119734  -0.002391
    13  H    0.134748   0.000234
    14  O   -0.209062   0.956133
    15  H    0.237698  -0.031348
 Sum of Mulliken charges =  -0.00000   1.00000

 Dipole moment (field-independent basis, Debye):
    X=             -1.7698    Y=             -3.8302    Z=              0.1063  Tot=              4.2207
 Quadrupole moment (field-independent basis, Debye-Ang):
   XX=            -42.3787   YY=            -58.0986   ZZ=            -43.7265
   XY=             -5.9609   XZ=              0.6536   YZ=             -0.8166

 -419.2748397\MP4SDQ=-419.292755\CCSD=-419.2950453\CCSD(T)=-419.3485657
 Normal termination of Gaussian 16 at Sun May 11 13:24:49 2025.
