 Gaussian 16, Revision A.03,
 Gaussian 16:  ES64L-G16RevA.03 25-Dec-2016

 --------------------------
 # freq 6-311++g(d,p) m062x
 --------------------------

 -------------------
 Title Card Required
 -------------------
 Symbolic Z-matrix:
 Charge =  0 Multiplicity = 2

                         Standard orientation:
 ---------------------------------------------------------------------
 Center     Atomic      Atomic             Coordinates (Angstroms)
 Number     Number       Type             X           Y           Z
 ---------------------------------------------------------------------
      1          6           0       -1.808127   -0.114444    0.954970
      2          1           0       -2.593935   -0.525099    1.547675
      3          6           0       -0.826624    0.489558    0.566600
      4          6           0        0.312176    1.198924   -0.021922
      5          8           0        0.380852    2.392685    0.011734
      6          8           0        1.250741    0.451875   -0.600180
      7          6           0        1.167742   -0.989865   -0.591101
      8          6           0        1.737361   -1.553160    0.695324
      9          1           0        0.134455   -1.301601   -0.757631
     10          1           0        1.765113   -1.288124   -1.451080
     11          1           0        2.761160   -1.206173    0.841400
     12          1           0        1.137904   -1.253477    1.556918
     13          1           0        1.741760   -2.643848    0.648085
     14          8           0       -2.367114   -1.056206   -0.750957
     15          1           0       -2.557460   -0.274593   -1.293364
 ---------------------------------------------------------------------

 SCF Done:  E(UM062X) =  -420.197655225     A.U. after   23 cycles

 The electronic state is 2-A.
 Alpha  occ. eigenvalues --  -19.68548 -19.67045 -19.63437 -10.71370 -10.61135
 Alpha  occ. eigenvalues --  -10.60768 -10.59673 -10.54563  -1.25679  -1.17181
 Alpha  occ. eigenvalues --   -1.13039  -0.91422  -0.88644  -0.78019  -0.74506
 Alpha  occ. eigenvalues --   -0.64663  -0.62877  -0.58724  -0.57348  -0.55371
 Alpha  occ. eigenvalues --   -0.53444  -0.51032  -0.49372  -0.47553  -0.46197
 Alpha  occ. eigenvalues --   -0.43191  -0.42078  -0.40010  -0.38752  -0.37624
 Alpha  occ. eigenvalues --   -0.34755
 Alpha virt. eigenvalues --   -0.02295  -0.00787   0.00535   0.00770   0.01959
 Alpha virt. eigenvalues --    0.02350   0.03721   0.04343   0.05587   0.05998
 Alpha virt. eigenvalues --    0.06593   0.07869   0.08445   0.08993   0.09271

  Beta  occ. eigenvalues --  -19.68547 -19.65666 -19.63330 -10.71405 -10.61135
  Beta  occ. eigenvalues --  -10.60834 -10.59411 -10.54562  -1.25590  -1.16970
  Beta  occ. eigenvalues --   -1.07430  -0.90288  -0.88632  -0.77860  -0.74322
  Beta  occ. eigenvalues --   -0.64478  -0.62625  -0.58549  -0.57001  -0.53367
  Beta  occ. eigenvalues --   -0.52718  -0.49797  -0.47410  -0.46171  -0.42615
  Beta  occ. eigenvalues --   -0.41225  -0.40279  -0.38720  -0.37482  -0.37044
  Beta virt. eigenvalues --   -0.11462  -0.01200  -0.00599   0.00660   0.01121
  Beta virt. eigenvalues --    0.02321   0.02451   0.04167   0.04514   0.05839
  Beta virt. eigenvalues --    0.06162   0.06605   0.07989   0.08653   0.09126

 Mulliken charges and spin densities:
               1          2
     1  C   -0.898450  -0.116349
     2  H    0.252484   0.015164
     3  C    1.056653   0.329434
     4  C   -0.162203  -0.016721
     5  O   -0.243316   0.051570
     6  O   -0.036066   0.002960
     7  C   -0.376762  -0.004525
     8  C   -0.432594   0.003326
     9  H    0.209665   0.003212
    10  H    0.203106   0.000562
    11  H    0.190733  -0.000110
    12  H    0.131839  -0.001275
    13  H    0.165137  -0.000071
    14  O   -0.294345   0.747572
    15  H    0.234119  -0.014748
 Sum of Mulliken charges =  -0.00000   1.00000

 Dipole moment (field-independent basis, Debye):
    X=             -0.9063    Y=             -3.0329    Z=              0.6504  Tot=              3.2316
 Quadrupole moment (field-independent basis, Debye-Ang):
   XX=            -44.0231   YY=            -57.1196   ZZ=            -43.8624
   XY=             -6.6496   XZ=             -0.9391   YZ=             -1.3609

  Exact polarizability:  83.394  11.619  81.399   3.063   6.539  64.636
 Approx polarizability:  90.538  17.925  97.720  -2.705   4.345  72.844

 ******    1 imaginary frequencies (negative Signs) ******

                      1                      2                      3
                      A                      A                      A
 Frequencies --   -550.8419                52.9735                78.9671
 Red. masses --     12.0519                 5.8004                 4.1504
 Frc consts  --      2.1546                 0.0096                 0.0152
 IR Inten    --     85.1119                 5.8393                 0.6410

                      4                      5                      6
                      A                      A                      A
 Frequencies --     94.2059               109.2704               187.6896
 Red. masses --      9.3896                 3.2450                 2.5192
 Frc consts  --      0.0491                 0.0228                 0.0523
 IR Inten    --      7.4426                 1.0499                 2.2017

                      7                      8                      9
                      A                      A                      A
 Frequencies --    227.6144               246.2068               316.9824
 Red. masses --      1.2615                 1.3933                 2.7109
 Frc consts  --      0.0385                 0.0498                 0.1605
 IR Inten    --      0.7862                69.8745                19.2256

                     10                     11                     12
                      A                      A                      A
 Frequencies --    362.1188               409.0773               553.9329
 Red. masses --      2.8419                 3.6705                 5.2250
 Frc consts  --      0.2196                 0.3619                 0.9446
 IR Inten    --      2.5488                 3.5744                15.9349

                     13                     14                     15
                      A                      A                      A
 Frequencies --    628.4266               717.3440               751.9219
 Red. masses --      6.1898                 1.1666                 6.1075
 Frc consts  --      1.4403                 0.3537                 2.0345
 IR Inten    --      0.8791                85.3955                 2.8237

                     16                     17                     18
                      A                      A                      A
 Frequencies --    754.1614               777.7723               817.7580
 Red. masses --      4.5352                 1.3349                 1.1342
 Frc consts  --      1.5198                 0.4758                 0.4469
 IR Inten    --     23.9638                46.1099                 5.0506

                     19                     20                     21
                      A                      A                      A
 Frequencies --    824.0351               950.5920              1102.2232
 Red. masses --      1.1278                 2.2705                 3.8780
 Frc consts  --      0.4512                 1.2088                 2.7758
 IR Inten    --     56.2223                11.9008                60.1616

                     22                     23                     24
                      A                      A                      A
 Frequencies --   1127.3752              1179.3382              1261.5262
 Red. masses --      2.4205                 1.9110                 2.8965
 Frc consts  --      1.8125                 1.5660                 2.7159
 IR Inten    --     42.4571                66.2814               349.3942

                     25                     26                     27
                      A                      A                      A
 Frequencies --   1358.0058              1407.0791              1437.2555
 Red. masses --      1.2634                 1.2575                 1.3505
 Frc consts  --      1.3728                 1.4669                 1.6437
 IR Inten    --    109.1826                21.3963                16.4567

                     28                     29                     30
                      A                      A                      A
 Frequencies --   1492.4759              1502.6941              1536.1480
 Red. masses --      1.0404                 1.0482                 1.0952
 Frc consts  --      1.3654                 1.3946                 1.5227
 IR Inten    --      4.1082                 2.4960                10.3930

                     31                     32                     33
                      A                      A                      A
 Frequencies --   1847.7512              2114.7402              3072.3778
 Red. masses --     12.9527                 6.2783                 1.0355
 Frc consts  --     26.0554                16.5428                 5.7589
 IR Inten    --    495.0279                67.9360                 7.3179

                     34                     35                     36
                      A                      A                      A
 Frequencies --   3100.4760              3143.7088              3152.5263
 Red. masses --      1.0629                 1.1040                 1.1015
 Frc consts  --      6.0199                 6.4282                 6.4496
 IR Inten    --     11.3631                 3.5946                11.3721

                     37                     38                     39
                      A                      A                      A
 Frequencies --   3167.2599              3456.3664              3809.7700
 Red. masses --      1.1066                 1.1490                 1.0676
 Frc consts  --      6.5402                 8.0872                 9.1297
 IR Inten    --     16.6248                70.2118                55.9240

 - Thermochemistry -
 -------------------
 Temperature   298.150 Kelvin.  Pressure   1.00000 Atm.
 Atom     1 has atomic number  6 and mass  12.00000

 Molecular mass:   115.03952 amu.
 Principal axes and moments of inertia in atomic units:
                           1         2         3
     Eigenvalues --   840.080991064.718321548.48288
           X            0.98745  -0.15757   0.01037
           Y            0.15773   0.98732  -0.01782
           Z           -0.00743   0.01924   0.99979
 This molecule is an asymmetric top.
 Rotational symmetry number  1.
 Warning -- assumption of classical behavior for rotation
           may cause significant error
 Rotational temperatures (Kelvin)      0.10310     0.08135     0.05593
 Rotational constants (GHZ):           2.14829     1.69504     1.16549
    1 imaginary frequencies ignored.
 Zero-point vibrational energy     293863.5 (Joules/Mol)
                                   70.23507 (Kcal/Mol)
 Warning -- explicit consideration of  11 degrees of freedom as
           vibrations may cause significant error
 Vibrational temperatures:     76.22   113.62   135.54   157.22   270.04
          (Kelvin)            327.49   354.24   456.07   521.01   588.57
                              796.99   904.17  1032.10  1081.85  1085.07
                             1119.04  1176.57  1185.60  1367.69  1585.85
                             1622.04  1696.80  1815.05  1953.87  2024.47
                             2067.89  2147.34  2162.04  2210.17  2658.50
                             3042.64  4420.47  4460.89  4523.10  4535.78
                             4556.98  4972.94  5481.41

 Zero-point correction=                           0.111927 (Hartree/Particle)
 Thermal correction to Energy=                    0.121481
 Thermal correction to Enthalpy=                  0.122425
 Thermal correction to Gibbs Free Energy=         0.076000
 Sum of electronic and zero-point Energies=           -420.085729
 Sum of electronic and thermal Energies=              -420.076175
 Sum of electronic and thermal Enthalpies=            -420.075230
 Sum of electronic and thermal Free Energies=         -420.121655

                     E (Thermal)             CV                S
                      KCal/Mol        Cal/Mol-Kelvin    Cal/Mol-Kelvin
 Total                   76.230             32.069             97.709
 Electronic               0.000              0.000              1.377
 Translational            0.889              2.981             40.136
 Rotational               0.889              2.981             28.717
 Vibrational             74.453             26.107             27.479
 Vibration     1          0.596              1.976              4.703
 Vibration     2          0.600              1.963              3.916
 Vibration     3          0.603              1.953              3.571
 Vibration     4          0.606              1.942              3.282
 Vibration     5          0.632              1.857              2.251
 Vibration     6          0.651              1.799              1.898
 Vibration     7          0.661              1.769              1.758
 Vibration     8          0.704              1.641              1.326
 Vibration     9          0.736              1.550              1.113
 Vibration    10          0.773              1.451              0.930
 Vibration    11          0.909              1.131              0.536

 Normal termination of Gaussian 16 at Fri Mar 28 20:29:39 2025.
