 Gaussian 16, Revision A.03,
 Gaussian 16:  ES64L-G16RevA.03 25-Dec-2016

 --------------------------
 # ccsd(t)/6-311++g(d,p) sp
 --------------------------

 -------------------
 Title Card Required
 -------------------
 Symbolic Z-matrix:
 Charge =  0 Multiplicity = 2

                         Standard orientation:
 ---------------------------------------------------------------------
 Center     Atomic      Atomic             Coordinates (Angstroms)
 Number     Number       Type             X           Y           Z
 ---------------------------------------------------------------------
      1          6           0       -1.795736   -0.084467    0.994637
      2          1           0       -2.598264   -0.512072    1.550766
      3          6           0       -0.824390    0.494910    0.565259
      4          6           0        0.316594    1.197973   -0.028511
      5          8           0        0.390449    2.391171   -0.001520
      6          8           0        1.251097    0.444117   -0.605352
      7          6           0        1.163131   -0.996962   -0.588254
      8          6           0        1.733153   -1.555941    0.699880
      9          1           0        0.128561   -1.306176   -0.750617
     10          1           0        1.757526   -1.302092   -1.447932
     11          1           0        2.758522   -1.211945    0.842016
     12          1           0        1.136395   -1.249467    1.560875
     13          1           0        1.733591   -2.646879    0.658088
     14          8           0       -2.380045   -1.064132   -0.764851
     15          1           0       -2.564848   -0.273690   -1.297478
 ---------------------------------------------------------------------

 SCF Done:  E(UHF) =  -417.973965115     A.U. after   40 cycles
 E2 =    -0.1259384428D+01 EUMP2 =    -0.41923334954306D+03
 CCSD(T)= -0.41934724931D+03

 The electronic state is 2-A.
 Alpha  occ. eigenvalues --  -20.64021 -20.61046 -20.56193 -11.41306 -11.30262
 Alpha  occ. eigenvalues --  -11.27765 -11.27305 -11.23332  -1.47837  -1.39749
 Alpha  occ. eigenvalues --   -1.38815  -1.08864  -1.05011  -0.91491  -0.87417
 Alpha  occ. eigenvalues --   -0.75997  -0.73558  -0.70010  -0.68653  -0.67347
 Alpha  occ. eigenvalues --   -0.66053  -0.63479  -0.58909  -0.56788  -0.56046
 Alpha  occ. eigenvalues --   -0.54847  -0.51009  -0.48687  -0.47052  -0.43913
 Alpha  occ. eigenvalues --   -0.42638
 Alpha virt. eigenvalues --    0.03473   0.04558   0.04957   0.06622   0.06938
 Alpha virt. eigenvalues --    0.08155   0.09555   0.10402   0.10926   0.11894
 Alpha virt. eigenvalues --    0.13270   0.14079   0.14395   0.15225   0.15521

  Beta  occ. eigenvalues --  -20.61116 -20.60084 -20.55479 -11.41746 -11.30254
  Beta  occ. eigenvalues --  -11.28919 -11.25872 -11.23332  -1.47594  -1.37755
  Beta  occ. eigenvalues --   -1.25427  -1.07222  -1.05004  -0.91845  -0.87568
  Beta  occ. eigenvalues --   -0.75752  -0.73486  -0.69275  -0.66622  -0.64876
  Beta  occ. eigenvalues --   -0.63125  -0.58299  -0.55196  -0.54748  -0.52358
  Beta  occ. eigenvalues --   -0.50490  -0.47510  -0.46380  -0.43584  -0.43523
  Beta virt. eigenvalues --    0.03181   0.04383   0.04555   0.06283   0.06661
  Beta virt. eigenvalues --    0.07254   0.08392   0.09983   0.10545   0.11919
  Beta virt. eigenvalues --    0.12137   0.13478   0.14118   0.14595   0.15215

 Mulliken charges and spin densities:
               1          2
     1  C   -1.516685  -0.713912
     2  H    0.263544   0.057172
     3  C    1.616835   0.786492
     4  C   -0.015568  -0.171468
     5  O   -0.325710   0.151605
     6  O   -0.149742  -0.002517
     7  C   -0.252580   0.000770
     8  C   -0.438037   0.004028
     9  H    0.190827  -0.001787
    10  H    0.177222   0.000321
    11  H    0.171999  -0.000317
    12  H    0.117862  -0.002737
    13  H    0.134759   0.000271
    14  O   -0.212234   0.921964
    15  H    0.237509  -0.029883
 Sum of Mulliken charges =  -0.00000   1.00000

 Dipole moment (field-independent basis, Debye):
    X=             -1.6751    Y=             -3.7934    Z=              0.1156  Tot=              4.1484
 Quadrupole moment (field-independent basis, Debye-Ang):
   XX=            -42.6126   YY=            -58.0867   ZZ=            -43.6939
   XY=             -5.9512   XZ=              0.5380   YZ=             -0.9013

 63\PMP3-0=-419.273331\MP4SDQ=-419.2886146\CCSD=-419.2931273\CCSD(T)=-4
 Normal termination of Gaussian 16 at Sun May 11 20:03:56 2025.
