 Gaussian 16, Revision A.03,
 Gaussian 16:  ES64L-G16RevA.03 25-Dec-2016

 --------------------------
 # freq 6-311++g(d,p) m062x
 --------------------------

 -------------------
 Title Card Required
 -------------------
 Symbolic Z-matrix:
 Charge =  0 Multiplicity = 2

                         Standard orientation:
 ---------------------------------------------------------------------
 Center     Atomic      Atomic             Coordinates (Angstroms)
 Number     Number       Type             X           Y           Z
 ---------------------------------------------------------------------
      1          6           0       -1.801902   -0.099651    0.974924
      2          1           0       -2.596715   -0.519415    1.548329
      3          6           0       -0.825737    0.491963    0.565681
      4          6           0        0.314264    1.198498   -0.025134
      5          8           0        0.385375    2.391967    0.005313
      6          8           0        1.250893    0.448183   -0.602690
      7          6           0        1.165559   -0.993263   -0.589706
      8          6           0        1.735403   -1.554416    0.697557
      9          1           0        0.131667   -1.303828   -0.754184
     10          1           0        1.761506   -1.294839   -1.449540
     11          1           0        2.759965   -1.208879    0.841713
     12          1           0        1.137241   -1.251429    1.558855
     13          1           0        1.737876   -2.645235    0.652989
     14          8           0       -2.373256   -1.060226   -0.757897
     15          1           0       -2.561157   -0.274547   -1.295891
 ---------------------------------------------------------------------

 SCF Done:  E(UM062X) =  -420.197805590     A.U. after   23 cycles

 The electronic state is 2-A.
 Alpha  occ. eigenvalues --  -19.68500 -19.67365 -19.63356 -10.71303 -10.61111
 Alpha  occ. eigenvalues --  -10.60340 -10.59386 -10.54530  -1.25616  -1.17110
 Alpha  occ. eigenvalues --   -1.13342  -0.91223  -0.88609  -0.77922  -0.74402
 Alpha  occ. eigenvalues --   -0.64606  -0.62779  -0.58662  -0.57279  -0.55581
 Alpha  occ. eigenvalues --   -0.53391  -0.51076  -0.49435  -0.47507  -0.46160
 Alpha  occ. eigenvalues --   -0.43345  -0.42113  -0.39985  -0.38704  -0.37570
 Alpha  occ. eigenvalues --   -0.35027
 Alpha virt. eigenvalues --   -0.02272  -0.00802   0.00522   0.00775   0.02020
 Alpha virt. eigenvalues --    0.02347   0.03742   0.04357   0.05601   0.06008
 Alpha virt. eigenvalues --    0.06613   0.07866   0.08483   0.09007   0.09278

  Beta  occ. eigenvalues --  -19.68498 -19.65935 -19.63264 -10.71333 -10.61111
  Beta  occ. eigenvalues --  -10.60391 -10.59156 -10.54530  -1.25539  -1.16928
  Beta  occ. eigenvalues --   -1.07330  -0.90221  -0.88598  -0.77785  -0.74237
  Beta  occ. eigenvalues --   -0.64437  -0.62547  -0.58508  -0.56973  -0.53338
  Beta  occ. eigenvalues --   -0.52824  -0.49767  -0.47381  -0.46135  -0.42599
  Beta  occ. eigenvalues --   -0.41008  -0.40276  -0.38774  -0.37520  -0.37000
  Beta virt. eigenvalues --   -0.11195  -0.01257  -0.00599   0.00660   0.01121
  Beta virt. eigenvalues --    0.02327   0.02450   0.04146   0.04519   0.05849
  Beta virt. eigenvalues --    0.06162   0.06643   0.07981   0.08702   0.09137

 Mulliken charges and spin densities:
               1          2
     1  C   -1.024995  -0.087189
     2  H    0.247224   0.014081
     3  C    1.165019   0.273114
     4  C   -0.146731  -0.017674
     5  O   -0.243790   0.044123
     6  O   -0.036500   0.002372
     7  C   -0.375819  -0.002894
     8  C   -0.432467   0.002703
     9  H    0.208941   0.002511
    10  H    0.202852   0.000549
    11  H    0.190466  -0.000134
    12  H    0.132154  -0.001240
    13  H    0.164835  -0.000036
    14  O   -0.286427   0.785185
    15  H    0.235236  -0.015471
 Sum of Mulliken charges =  -0.00000   1.00000

 Dipole moment (field-independent basis, Debye):
    X=             -0.9862    Y=             -3.0920    Z=              0.5766  Tot=              3.2963
 Quadrupole moment (field-independent basis, Debye-Ang):
   XX=            -43.7871   YY=            -57.0762   ZZ=            -43.8787
   XY=             -6.5134   XZ=             -0.7384   YZ=             -1.3020

  Exact polarizability:  82.791  11.031  80.845   2.329   5.940  64.169
 Approx polarizability:  90.007  17.212  96.785  -3.779   3.340  72.238

 ******    1 imaginary frequencies (negative Signs) ******

                      1                      2                      3
                      A                      A                      A
 Frequencies --   -449.6940                26.0695                78.3082
 Red. masses --     12.5945                 5.8872                 3.9433
 Frc consts  --      1.5006                 0.0024                 0.0142
 IR Inten    --     68.8949                 6.0728                 0.4217

                      4                      5                      6
                      A                      A                      A
 Frequencies --     86.1500               106.8022               183.7852
 Red. masses --     10.0879                 3.3629                 2.6117
 Frc consts  --      0.0441                 0.0226                 0.0520
 IR Inten    --      7.5082                 0.4295                 2.3585

                      7                      8                      9
                      A                      A                      A
 Frequencies --    227.6735               243.8063               313.5009
 Red. masses --      1.2391                 1.4253                 2.5683
 Frc consts  --      0.0378                 0.0499                 0.1487
 IR Inten    --      0.6106                67.1530                22.5172

                     10                     11                     12
                      A                      A                      A
 Frequencies --    362.2810               408.9805               554.0426
 Red. masses --      2.8362                 3.6789                 5.2118
 Frc consts  --      0.2193                 0.3626                 0.9426
 IR Inten    --      2.5922                 3.5160                15.4789

                     13                     14                     15
                      A                      A                      A
 Frequencies --    629.4943               697.3703               751.8037
 Red. masses --      6.1247                 1.1053                 2.5102
 Frc consts  --      1.4299                 0.3167                 0.8359
 IR Inten    --      0.8603               104.0344                12.0966

                     16                     17                     18
                      A                      A                      A
 Frequencies --    754.2614               765.3154               812.0446
 Red. masses --      5.1797                 1.9453                 1.1241
 Frc consts  --      1.7362                 0.6713                 0.4367
 IR Inten    --     23.3445                 9.2584                67.5526

                     19                     20                     21
                      A                      A                      A
 Frequencies --    817.9612               950.6902              1102.5476
 Red. masses --      1.1560                 2.2699                 3.8555
 Frc consts  --      0.4557                 1.2088                 2.7614
 IR Inten    --      8.8023                12.0312                59.7857

                     22                     23                     24
                      A                      A                      A
 Frequencies --   1127.6334              1179.4507              1261.8815
 Red. masses --      2.4296                 1.9079                 2.8941
 Frc consts  --      1.8202                 1.5638                 2.7152
 IR Inten    --     43.2957                65.3538               350.8773

                     25                     26                     27
                      A                      A                      A
 Frequencies --   1357.9472              1407.0281              1437.1231
 Red. masses --      1.2644                 1.2581                 1.3514
 Frc consts  --      1.3738                 1.4675                 1.6445
 IR Inten    --    110.1613                21.5750                16.5611

                     28                     29                     30
                      A                      A                      A
 Frequencies --   1492.4955              1502.7910              1535.8959
 Red. masses --      1.0404                 1.0480                 1.0955
 Frc consts  --      1.3655                 1.3945                 1.5226
 IR Inten    --      4.0532                 2.4677                10.6435

                     31                     32                     33
                      A                      A                      A
 Frequencies --   1850.7168              2143.2030              3072.4523
 Red. masses --     12.9538                 6.1741                 1.0355
 Frc consts  --     26.1414                16.7091                 5.7591
 IR Inten    --    499.8100                63.5069                 7.4145

                     34                     35                     36
                      A                      A                      A
 Frequencies --   3101.0913              3143.9463              3152.4232
 Red. masses --      1.0627                 1.1041                 1.1015
 Frc consts  --      6.0212                 6.4297                 6.4492
 IR Inten    --     11.1487                 3.3923                11.5739

                     37                     38                     39
                      A                      A                      A
 Frequencies --   3167.3750              3463.9750              3805.9552
 Red. masses --      1.1066                 1.1530                 1.0675
 Frc consts  --      6.5412                 8.1511                 9.1109
 IR Inten    --     16.7136                72.4450                52.0988

 - Thermochemistry -
 -------------------
 Temperature   298.150 Kelvin.  Pressure   1.00000 Atm.
 Atom     1 has atomic number  6 and mass  12.00000

 Molecular mass:   115.03952 amu.
 Principal axes and moments of inertia in atomic units:
                           1         2         3
     Eigenvalues --   843.113731067.612311549.45339
           X            0.98741  -0.15782   0.01053
           Y            0.15799   0.98728  -0.01792
           Z           -0.00756   0.01936   0.99978
 This molecule is an asymmetric top.
 Rotational symmetry number  1.
 Warning -- assumption of classical behavior for rotation
           may cause significant error
 Rotational temperatures (Kelvin)      0.10273     0.08113     0.05590
 Rotational constants (GHZ):           2.14057     1.69045     1.16476
    1 imaginary frequencies ignored.
 Zero-point vibrational energy     293541.3 (Joules/Mol)
                                   70.15805 (Kcal/Mol)
 Warning -- explicit consideration of  11 degrees of freedom as
           vibrations may cause significant error
 Vibrational temperatures:     37.51   112.67   123.95   153.66   264.43
          (Kelvin)            327.57   350.78   451.06   521.24   588.43
                              797.14   905.70  1003.36  1081.68  1085.21
                             1101.12  1168.35  1176.86  1367.83  1586.32
                             1622.41  1696.97  1815.57  1953.78  2024.40
                             2067.70  2147.37  2162.18  2209.81  2662.77
                             3083.59  4420.57  4461.78  4523.44  4535.63
                             4557.15  4983.89  5475.92

 Zero-point correction=                           0.111804 (Hartree/Particle)
 Thermal correction to Energy=                    0.121465
 Thermal correction to Enthalpy=                  0.122409
 Thermal correction to Gibbs Free Energy=         0.075147
 Sum of electronic and zero-point Energies=           -420.086002
 Sum of electronic and thermal Energies=              -420.076341
 Sum of electronic and thermal Enthalpies=            -420.075396
 Sum of electronic and thermal Free Energies=         -420.122658

                     E (Thermal)             CV                S
                      KCal/Mol        Cal/Mol-Kelvin    Cal/Mol-Kelvin
 Total                   76.220             32.175             99.471
 Electronic               0.000              0.000              1.377
 Translational            0.889              2.981             40.136
 Rotational               0.889              2.981             28.724
 Vibrational             74.443             26.213             29.234
 Vibration     1          0.593              1.985              6.108
 Vibration     2          0.600              1.964              3.933
 Vibration     3          0.601              1.959              3.746
 Vibration     4          0.606              1.944              3.326
 Vibration     5          0.631              1.862              2.290
 Vibration     6          0.651              1.799              1.897
 Vibration     7          0.659              1.773              1.775
 Vibration     8          0.701              1.648              1.344
 Vibration     9          0.736              1.550              1.112
 Vibration    10          0.773              1.451              0.930
 Vibration    11          0.909              1.131              0.536

 Normal termination of Gaussian 16 at Fri Mar 28 20:17:08 2025.
