 Gaussian 16, Revision A.03,
 Gaussian 16:  ES64L-G16RevA.03 25-Dec-2016

 --------------------------
 # ccsd(t)/6-311++g(d,p) sp
 --------------------------

 -------------------
 Title Card Required
 -------------------
 Symbolic Z-matrix:
 Charge =  0 Multiplicity = 2

                         Standard orientation:
 ---------------------------------------------------------------------
 Center     Atomic      Atomic             Coordinates (Angstroms)
 Number     Number       Type             X           Y           Z
 ---------------------------------------------------------------------
      1          6           0       -1.833132   -0.170788    0.874489
      2          1           0       -2.575981   -0.540105    1.552323
      3          6           0       -0.827938    0.482720    0.572551
      4          6           0        0.304311    1.199916   -0.010403
      5          8           0        0.365037    2.395127    0.034591
      6          8           0        1.250356    0.464760   -0.591246
      7          6           0        1.175292   -0.977659   -0.596119
      8          6           0        1.744064   -1.548957    0.687184
      9          1           0        0.144057   -1.293487   -0.770030
     10          1           0        1.777447   -1.264450   -1.456599
     11          1           0        2.765105   -1.196856    0.840129
     12          1           0        1.140172   -1.261076    1.549876
     13          1           0        1.755303   -2.639090    0.630359
     14          8           0       -2.344925   -1.040213   -0.722434
     15          1           0       -2.545423   -0.273721   -1.279562
 ---------------------------------------------------------------------

 SCF Done:  E(UHF) =  -417.968929712     A.U. after   32 cycles
 E2 =    -0.1256289493D+01 EUMP2 =    -0.41922521920482D+03
 CCSD(T)= -0.41935028778D+03

 The electronic state is 2-A.
 Alpha  occ. eigenvalues --  -20.62621 -20.61053 -20.56884 -11.41203 -11.30343
 Alpha  occ. eigenvalues --  -11.29035 -11.28719 -11.23466  -1.48091  -1.39282
 Alpha  occ. eigenvalues --   -1.38242  -1.09878  -1.05113  -0.91671  -0.87726
 Alpha  occ. eigenvalues --   -0.76087  -0.73672  -0.70417  -0.67746  -0.67060
 Alpha  occ. eigenvalues --   -0.64461  -0.63602  -0.59261  -0.56658  -0.55199
 Alpha  occ. eigenvalues --   -0.54948  -0.51210  -0.49168  -0.47509  -0.44513
 Alpha  occ. eigenvalues --   -0.43150
 Alpha virt. eigenvalues --    0.03575   0.04587   0.05025   0.06650   0.06923
 Alpha virt. eigenvalues --    0.08225   0.09528   0.10686   0.10960   0.12074
 Alpha virt. eigenvalues --    0.13151   0.14096   0.14477   0.15137   0.15692

  Beta  occ. eigenvalues --  -20.61154 -20.59276 -20.55804 -11.41862 -11.31034
  Beta  occ. eigenvalues --  -11.30328 -11.26258 -11.23465  -1.47674  -1.37676
  Beta  occ. eigenvalues --   -1.26926  -1.06842  -1.05094  -0.92131  -0.87810
  Beta  occ. eigenvalues --   -0.75659  -0.73468  -0.69380  -0.66723  -0.64754
  Beta  occ. eigenvalues --   -0.63221  -0.58362  -0.55133  -0.54826  -0.52036
  Beta  occ. eigenvalues --   -0.50435  -0.47675  -0.47167  -0.44393  -0.43681
  Beta virt. eigenvalues --    0.03071   0.03926   0.04581   0.05798   0.06681
  Beta virt. eigenvalues --    0.07096   0.08507   0.10059   0.10634   0.12154
  Beta virt. eigenvalues --    0.12372   0.13312   0.14239   0.14468   0.15346

 Mulliken charges and spin densities:
               1          2
     1  C   -0.783403  -1.026885
     2  H    0.277789   0.072140
     3  C    1.003700   1.229442
     4  C   -0.128510  -0.242307
     5  O   -0.312896   0.231572
     6  O   -0.151518  -0.002467
     7  C   -0.252396  -0.006328
     8  C   -0.434846   0.007905
     9  H    0.191152  -0.000226
    10  H    0.178176  -0.000026
    11  H    0.173476  -0.000446
    12  H    0.116336  -0.003293
    13  H    0.135687   0.000387
    14  O   -0.251147   0.764485
    15  H    0.238400  -0.023952
 Sum of Mulliken charges =  -0.00000   1.00000

 Dipole moment (field-independent basis, Debye):
    X=             -1.2706    Y=             -3.4443    Z=              0.4161  Tot=              3.6947
 Quadrupole moment (field-independent basis, Debye-Ang):
   XX=            -43.9646   YY=            -58.1862   ZZ=            -43.6023
   XY=             -6.6698   XZ=             -0.2100   YZ=             -1.1424

 19.2779753\MP4SDQ=-419.2849815\CCSD=-419.2947167\CCSD(T)=-419.3502878\
 Normal termination of Gaussian 16 at Sun May 11 11:36:55 2025.
