 Gaussian 16, Revision A.03,
 Gaussian 16:  ES64L-G16RevA.03 25-Dec-2016

 --------------------------
 # freq 6-311++g(d,p) m062x
 --------------------------

 -------------------
 Title Card Required
 -------------------
 Symbolic Z-matrix:
 Charge =  0 Multiplicity = 2

                         Standard orientation:
 ---------------------------------------------------------------------
 Center     Atomic      Atomic             Coordinates (Angstroms)
 Number     Number       Type             X           Y           Z
 ---------------------------------------------------------------------
      1          6           0       -1.502474   -1.317736   -0.368928
      2          1           0       -2.031138   -2.232267   -0.517892
      3          6           0       -0.656333   -0.449532   -0.303598
      4          6           0       -0.022583    0.849065   -0.067428
      5          8           0       -0.694151    1.785769    0.262526
      6          8           0        1.291131    0.947206   -0.241833
      7          6           0        2.069960   -0.228380   -0.531278
      8          6           0        2.402868   -0.984961    0.738773
      9          1           0        1.533028   -0.853425   -1.249165
     10          1           0        2.965867    0.159289   -1.013117
     11          1           0        2.917258   -0.331265    1.444215
     12          1           0        1.498740   -1.372358    1.212260
     13          1           0        3.054710   -1.829062    0.505411
     14          8           0       -3.200857   -0.390757    0.279900
     15          1           0       -2.856085    0.510607    0.408297
 ---------------------------------------------------------------------

 SCF Done:  E(UM062X) =  -420.198129737     A.U. after   23 cycles

 The electronic state is 2-A.
 Alpha  occ. eigenvalues --  -19.69319 -19.65495 -19.64064 -10.71908 -10.62322
 Alpha  occ. eigenvalues --  -10.60406 -10.58764 -10.55308  -1.26459  -1.17887
 Alpha  occ. eigenvalues --   -1.11459  -0.91051  -0.89504  -0.78445  -0.74919
 Alpha  occ. eigenvalues --   -0.65524  -0.62645  -0.59558  -0.57983  -0.54091
 Alpha  occ. eigenvalues --   -0.53239  -0.50739  -0.49749  -0.48204  -0.46969
 Alpha  occ. eigenvalues --   -0.43450  -0.42127  -0.40224  -0.39324  -0.37683
 Alpha  occ. eigenvalues --   -0.34128
 Alpha virt. eigenvalues --   -0.03051  -0.00959   0.00503   0.01048   0.01831
 Alpha virt. eigenvalues --    0.02937   0.03490   0.04531   0.04901   0.05676
 Alpha virt. eigenvalues --    0.06918   0.07277   0.08535   0.08840   0.10174

  Beta  occ. eigenvalues --  -19.69319 -19.64078 -19.64009 -10.71929 -10.62312
  Beta  occ. eigenvalues --  -10.60474 -10.58523 -10.55306  -1.26407  -1.17755
  Beta  occ. eigenvalues --   -1.05282  -0.90074  -0.89460  -0.78338  -0.74734
  Beta  occ. eigenvalues --   -0.65376  -0.62318  -0.59340  -0.57891  -0.53978
  Beta  occ. eigenvalues --   -0.50710  -0.50465  -0.48236  -0.46930  -0.43421
  Beta  occ. eigenvalues --   -0.41504  -0.40597  -0.38918  -0.37570  -0.35944
  Beta virt. eigenvalues --   -0.09393  -0.02979  -0.00944   0.00652   0.01049
  Beta virt. eigenvalues --    0.02058   0.03105   0.03712   0.04611   0.05644
  Beta virt. eigenvalues --    0.06016   0.07168   0.07622   0.08733   0.09033

 Mulliken charges and spin densities:
               1          2
     1  C   -0.585244  -0.170066
     2  H    0.242414   0.020212
     3  C    0.690316   0.332475
     4  C   -0.129988  -0.007683
     5  O   -0.285048   0.018628
     6  O   -0.031846   0.008005
     7  C   -0.350056  -0.000257
     8  C   -0.409345   0.008505
     9  H    0.169746  -0.002142
    10  H    0.215899   0.001762
    11  H    0.187870  -0.000897
    12  H    0.143384   0.000052
    13  H    0.159256   0.000802
    14  O   -0.267269   0.806380
    15  H    0.249909  -0.015777
 Sum of Mulliken charges =  -0.00000   1.00000

 Dipole moment (field-independent basis, Debye):
    X=              3.3173    Y=             -3.3178    Z=             -0.9984  Tot=              4.7968
 Quadrupole moment (field-independent basis, Debye-Ang):
   XX=            -49.0474   YY=            -49.1644   ZZ=            -47.4324
   XY=             -1.4273   XZ=              0.4146   YZ=              0.8912

  Exact polarizability: 102.688   0.830  71.841  -5.586   3.976  51.592
 Approx polarizability: 103.874   6.808  91.218  -6.527   6.925  60.209

 ******    2 imaginary frequencies (negative Signs) ******

                      1                      2                      3
                      A                      A                      A
 Frequencies --   -519.2104               -47.1568                55.4058
 Red. masses --     12.2812                 6.6920                 6.6389
 Frc consts  --      1.9506                 0.0088                 0.0120
 IR Inten    --     62.3827                 1.6440                 2.2109

                      4                      5                      6
                      A                      A                      A
 Frequencies --     80.0955               108.4683               192.9601
 Red. masses --      3.5688                 4.0305                 1.9674
 Frc consts  --      0.0135                 0.0279                 0.0432
 IR Inten    --      0.5927                 0.8099                 2.0667

                      7                      8                      9
                      A                      A                      A
 Frequencies --    241.5487               253.9076               310.0433
 Red. masses --      1.5302                 4.2946                 1.0582
 Frc consts  --      0.0526                 0.1631                 0.0599
 IR Inten    --      1.7719                 1.4420               111.3054

                     10                     11                     12
                      A                      A                      A
 Frequencies --    370.6914               413.7408               567.7676
 Red. masses --      3.4343                 3.7769                 4.7921
 Frc consts  --      0.2780                 0.3809                 0.9102
 IR Inten    --      4.8652                 3.7023                18.5920

                     13                     14                     15
                      A                      A                      A
 Frequencies --    629.2753               757.6421               769.7515
 Red. masses --      7.6005                 9.8638                 4.0082
 Frc consts  --      1.7733                 3.3360                 1.3993
 IR Inten    --     10.0765                24.0340                13.9213

                     16                     17                     18
                      A                      A                      A
 Frequencies --    782.8329               794.3558               811.9319
 Red. masses --      1.3172                 1.1183                 1.1607
 Frc consts  --      0.4756                 0.4158                 0.4508
 IR Inten    --     39.7603               230.9331                 3.2567

                     19                     20                     21
                      A                      A                      A
 Frequencies --    827.0349               952.1367              1107.9471
 Red. masses --      1.1044                 2.2545                 3.2356
 Frc consts  --      0.4451                 1.2042                 2.3402
 IR Inten    --      6.7637                 7.7781                40.5831

                     22                     23                     24
                      A                      A                      A
 Frequencies --   1133.7199              1181.8512              1276.1301
 Red. masses --      2.7610                 1.8195                 2.5356
 Frc consts  --      2.0909                 1.4973                 2.4329
 IR Inten    --     55.0951                45.8473               419.2883

                     25                     26                     27
                      A                      A                      A
 Frequencies --   1352.0184              1407.2506              1433.2939
 Red. masses --      1.3377                 1.2936                 1.3884
 Frc consts  --      1.4407                 1.5094                 1.6805
 IR Inten    --    179.3560                42.4650                22.4353

                     28                     29                     30
                      A                      A                      A
 Frequencies --   1492.4722              1501.3180              1524.7250
 Red. masses --      1.0401                 1.0487                 1.1044
 Frc consts  --      1.3650                 1.3927                 1.5127
 IR Inten    --      3.8279                 2.9447                25.4010

                     31                     32                     33
                      A                      A                      A
 Frequencies --   1839.6150              2126.8178              3071.6309
 Red. masses --     12.8590                 6.1855                 1.0355
 Frc consts  --     25.6395                16.4850                 5.7563
 IR Inten    --    391.4289                71.7108                 5.6245

                     34                     35                     36
                      A                      A                      A
 Frequencies --   3087.5935              3142.6626              3153.0935
 Red. masses --      1.0657                 1.1026                 1.1008
 Frc consts  --      5.9860                 6.4159                 6.4481
 IR Inten    --     13.7561                 1.1058                13.4243

                     37                     38                     39
                      A                      A                      A
 Frequencies --   3165.6703              3458.7553              3758.6151
 Red. masses --      1.1045                 1.1515                 1.0678
 Frc consts  --      6.5217                 8.1159                 8.8882
 IR Inten    --     25.1915                71.3909                34.5793

 - Thermochemistry -
 -------------------
 Temperature   298.150 Kelvin.  Pressure   1.00000 Atm.
 Atom     1 has atomic number  6 and mass  12.00000

 Molecular mass:   115.03952 amu.
 Principal axes and moments of inertia in atomic units:
                           1         2         3
     Eigenvalues --   520.749591491.637871848.99973
           X            0.99968  -0.02447   0.00705
           Y            0.02453   0.99966  -0.00876
           Z           -0.00683   0.00893   0.99994
 This molecule is an asymmetric top.
 Rotational symmetry number  1.
 Warning -- assumption of classical behavior for rotation
           may cause significant error
 Rotational temperatures (Kelvin)      0.16633     0.05807     0.04684
 Rotational constants (GHZ):           3.46566     1.20991     0.97606
    2 imaginary frequencies ignored.
 Zero-point vibrational energy     293891.2 (Joules/Mol)
                                   70.24168 (Kcal/Mol)
 Warning -- explicit consideration of  10 degrees of freedom as
           vibrations may cause significant error
 Vibrational temperatures:     79.72   115.24   156.06   277.63   347.53
          (Kelvin)            365.32   446.08   533.34   595.28   816.89
                              905.39  1090.08  1107.50  1126.32  1142.90
                             1168.19  1189.92  1369.91  1594.09  1631.17
                             1700.42  1836.07  1945.25  2024.72  2062.19
                             2147.33  2160.06  2193.74  2646.80  3060.02
                             4419.39  4442.36  4521.59  4536.60  4554.69
                             4976.38  5407.81

 Zero-point correction=                           0.111937 (Hartree/Particle)
 Thermal correction to Energy=                    0.120651
 Thermal correction to Enthalpy=                  0.121595
 Thermal correction to Gibbs Free Energy=         0.077068
 Sum of electronic and zero-point Energies=           -419.346956
 Sum of electronic and thermal Energies=              -420.077479
 Sum of electronic and thermal Enthalpies=            -420.076535
 Sum of electronic and thermal Free Energies=         -420.121061

                     E (Thermal)             CV                S
                      KCal/Mol        Cal/Mol-Kelvin    Cal/Mol-Kelvin
 Total                   75.709             29.834             93.714
 Electronic               0.000              0.000              1.377
 Translational            0.889              2.981             40.136
 Rotational               0.889              2.981             28.753
 Vibrational             73.932             23.872             23.448
 Vibration     1          0.596              1.975              4.614
 Vibration     2          0.600              1.963              3.889
 Vibration     3          0.606              1.942              3.296
 Vibration     4          0.635              1.850              2.199
 Vibration     5          0.658              1.777              1.791
 Vibration     6          0.665              1.756              1.703
 Vibration     7          0.699              1.655              1.362
 Vibration     8          0.743              1.532              1.077
 Vibration     9          0.777              1.440              0.913
 Vibration    10          0.924              1.101              0.509

 Normal termination of Gaussian 16 at Fri Mar 28 11:30:03 2025.
