 Gaussian 16, Revision A.03,
 Gaussian 16:  ES64L-G16RevA.03 25-Dec-2016

 --------------------------
 # ccsd(t)/6-311++g(d,p) sp
 --------------------------

 -------------------
 Title Card Required
 -------------------
 Symbolic Z-matrix:
 Charge =  0 Multiplicity = 2

                         Standard orientation:
 ---------------------------------------------------------------------
 Center     Atomic      Atomic             Coordinates (Angstroms)
 Number     Number       Type             X           Y           Z
 ---------------------------------------------------------------------
      1          6           0       -1.413161   -1.383349   -0.394909
      2          1           0       -2.007396   -2.259664   -0.510591
      3          6           0       -0.652849   -0.454463   -0.301293
      4          6           0       -0.028819    0.848694   -0.074184
      5          8           0       -0.706376    1.784788    0.246407
      6          8           0        1.285024    0.953501   -0.245608
      7          6           0        2.073362   -0.219162   -0.523068
      8          6           0        2.406857   -0.963078    0.754303
      9          1           0        1.543657   -0.853496   -1.237517
     10          1           0        2.968479    0.171543   -1.003904
     11          1           0        2.914540   -0.300367    1.456225
     12          1           0        1.503686   -1.352936    1.227382
     13          1           0        3.065137   -1.804640    0.529927
     14          8           0       -3.256694   -0.374435    0.295788
     15          1           0       -2.876078    0.516878    0.400693
 ---------------------------------------------------------------------

 SCF Done:  E(UHF) =  -417.982053556     A.U. after   31 cycles
 E2 =    -0.1259297012D+01 EUMP2 =    -0.41924135056790D+03
 CCSD(T)= -0.41934951404D+03

 The electronic state is 2-A.
 Alpha  occ. eigenvalues --  -20.62052 -20.61835 -20.56766 -11.42297 -11.31302
 Alpha  occ. eigenvalues --  -11.27627 -11.26999 -11.24015  -1.48746  -1.39521
 Alpha  occ. eigenvalues --   -1.37409  -1.08713  -1.05830  -0.92151  -0.88047
 Alpha  occ. eigenvalues --   -0.76643  -0.73727  -0.70808  -0.67714  -0.66426
 Alpha  occ. eigenvalues --   -0.64752  -0.64060  -0.59434  -0.56834  -0.55627
 Alpha  occ. eigenvalues --   -0.54679  -0.51958  -0.49790  -0.47668  -0.43713
 Alpha  occ. eigenvalues --   -0.42492
 Alpha virt. eigenvalues --    0.03355   0.04528   0.05265   0.06505   0.07562
 Alpha virt. eigenvalues --    0.07905   0.08144   0.09391   0.11132   0.11688
 Alpha virt. eigenvalues --    0.12844   0.14418   0.14704   0.15231   0.16572

  Beta  occ. eigenvalues --  -20.62090 -20.57804 -20.56356 -11.42565 -11.31282
  Beta  occ. eigenvalues --  -11.28806 -11.25613 -11.24013  -1.48603  -1.38866
  Beta  occ. eigenvalues --   -1.22326  -1.07472  -1.05804  -0.92458  -0.88247
  Beta  occ. eigenvalues --   -0.76528  -0.73613  -0.70263  -0.67596  -0.63871
  Beta  occ. eigenvalues --   -0.62182  -0.59094  -0.56238  -0.55494  -0.51846
  Beta  occ. eigenvalues --   -0.50203  -0.48702  -0.46866  -0.43997  -0.43154
  Beta virt. eigenvalues --    0.03360   0.04445   0.05287   0.06281   0.07143
  Beta virt. eigenvalues --    0.07488   0.08070   0.09019   0.10361   0.11463
  Beta virt. eigenvalues --    0.11934   0.12981   0.14643   0.14811   0.15285

 Mulliken charges and spin densities:
               1          2
     1  C   -1.018091  -0.650441
     2  H    0.248813   0.051461
     3  C    1.110819   0.683242
     4  C   -0.016949  -0.110662
     5  O   -0.375370   0.080507
     6  O   -0.130812   0.005103
     7  C   -0.212965   0.002472
     8  C   -0.409406   0.005107
     9  H    0.143418  -0.003420
    10  H    0.187329   0.000661
    11  H    0.169414  -0.000880
    12  H    0.130514  -0.000355
    13  H    0.128978   0.000759
    14  O   -0.219509   0.970313
    15  H    0.263815  -0.033866
 Sum of Mulliken charges =  -0.00000   1.00000

 Dipole moment (field-independent basis, Debye):
    X=              2.6461    Y=             -3.5542    Z=             -0.9044  Tot=              4.5224
 Quadrupole moment (field-independent basis, Debye-Ang):
   XX=            -46.7358   YY=            -50.2101   ZZ=            -47.4288
   XY=             -1.2789   XZ=              0.0243   YZ=              0.7927

 \PMP3-0=-419.2763411\MP4SDQ=-419.294387\CCSD=-419.2963995\CCSD(T)=-419
 Normal termination of Gaussian 16 at Tue May 13 09:25:10 2025.
