 Gaussian 16, Revision A.03,
 Gaussian 16:  ES64L-G16RevA.03 25-Dec-2016

 --------------------------
 # ccsd(t)/6-311++g(d,p) sp
 --------------------------

 -------------------
 Title Card Required
 -------------------
 Symbolic Z-matrix:
 Charge =  0 Multiplicity = 2

                         Standard orientation:
 ---------------------------------------------------------------------
 Center     Atomic      Atomic             Coordinates (Angstroms)
 Number     Number       Type             X           Y           Z
 ---------------------------------------------------------------------
      1          6           0       -1.378586   -1.409081   -0.403814
      2          1           0       -1.980286   -2.280957   -0.513154
      3          6           0       -0.649180   -0.458546   -0.301134
      4          6           0       -0.031939    0.848322   -0.077199
      5          8           0       -0.712590    1.783682    0.239176
      6          8           0        1.281917    0.956602   -0.247253
      7          6           0        2.074976   -0.214396   -0.519343
      8          6           0        2.408613   -0.952848    0.761173
      9          1           0        1.549147   -0.852824   -1.232800
     10          1           0        2.969714    0.178126   -0.999385
     11          1           0        2.913097   -0.286127    1.461609
     12          1           0        1.505987   -1.344047    1.234091
     13          1           0        3.069967   -1.793047    0.540729
     14          8           0       -3.280068   -0.367847    0.302361
     15          1           0       -2.884998    0.518674    0.396532
 ---------------------------------------------------------------------

 SCF Done:  E(UHF) =  -417.984475058     A.U. after   37 cycles
 E2 =    -0.1260604661D+01 EUMP2 =    -0.41924507971902D+03
 CCSD(T)= -0.41935079585D+03

 The electronic state is 2-A.
 Alpha  occ. eigenvalues --  -20.62088 -20.61871 -20.56779 -11.42388 -11.31306
 Alpha  occ. eigenvalues --  -11.27674 -11.27005 -11.24016  -1.48764  -1.39500
 Alpha  occ. eigenvalues --   -1.37372  -1.08630  -1.05839  -0.92213  -0.88102
 Alpha  occ. eigenvalues --   -0.76592  -0.73727  -0.70784  -0.67730  -0.66510
 Alpha  occ. eigenvalues --   -0.64771  -0.64070  -0.59423  -0.56804  -0.55622
 Alpha  occ. eigenvalues --   -0.54653  -0.51961  -0.49691  -0.47645  -0.43697
 Alpha  occ. eigenvalues --   -0.42608
 Alpha virt. eigenvalues --    0.03358   0.04522   0.05265   0.06498   0.07537
 Alpha virt. eigenvalues --    0.07866   0.08150   0.09343   0.11128   0.11658
 Alpha virt. eigenvalues --    0.12839   0.14420   0.14648   0.15200   0.16564

  Beta  occ. eigenvalues --  -20.62120 -20.57807 -20.56430 -11.42618 -11.31289
  Beta  occ. eigenvalues --  -11.28667 -11.25829 -11.24015  -1.48642  -1.38943
  Beta  occ. eigenvalues --   -1.22048  -1.07569  -1.05817  -0.92482  -0.88276
  Beta  occ. eigenvalues --   -0.76507  -0.73652  -0.70325  -0.67625  -0.63922
  Beta  occ. eigenvalues --   -0.62157  -0.59127  -0.56289  -0.55511  -0.51865
  Beta  occ. eigenvalues --   -0.50018  -0.48793  -0.46957  -0.43905  -0.43221
  Beta virt. eigenvalues --    0.03363   0.04460   0.05288   0.06316   0.07157
  Beta virt. eigenvalues --    0.07466   0.08033   0.09029   0.10389   0.11472
  Beta virt. eigenvalues --    0.11971   0.13022   0.14633   0.14830   0.15223

 Mulliken charges and spin densities:
               1          2
     1  C   -1.113587  -0.562219
     2  H    0.247670   0.043713
     3  C    1.210703   0.588100
     4  C   -0.017636  -0.094509
     5  O   -0.374378   0.068765
     6  O   -0.129122   0.004058
     7  C   -0.213610   0.002713
     8  C   -0.409189   0.004205
     9  H    0.142467  -0.003122
    10  H    0.186924   0.000660
    11  H    0.169568  -0.000776
    12  H    0.130018  -0.000222
    13  H    0.129141   0.000690
    14  O   -0.220976   0.982266
    15  H    0.262007  -0.034324
 Sum of Mulliken charges =  -0.00000   1.00000

 Dipole moment (field-independent basis, Debye):
    X=              2.6866    Y=             -3.5467    Z=             -0.8981  Tot=              4.5391
 Quadrupole moment (field-independent basis, Debye-Ang):
   XX=            -46.8986   YY=            -50.1181   ZZ=            -47.4526
   XY=             -1.2826   XZ=              0.0647   YZ=              0.8276

 \PMP3-0=-419.2778989\MP4SDQ=-419.2970516\CCSD=-419.2979295\CCSD(T)=-41
 Normal termination of Gaussian 16 at Tue May 13 02:58:48 2025.
