 Gaussian 16, Revision A.03,
 Gaussian 16:  ES64L-G16RevA.03 25-Dec-2016

 --------------------------
 # freq 6-311++g(d,p) m062x
 --------------------------

 -------------------
 Title Card Required
 -------------------
 Symbolic Z-matrix:
 Charge =  0 Multiplicity = 2

                         Standard orientation:
 ---------------------------------------------------------------------
 Center     Atomic      Atomic             Coordinates (Angstroms)
 Number     Number       Type             X           Y           Z
 ---------------------------------------------------------------------
      1          6           0       -1.344825   -1.434141   -0.411712
      2          1           0       -1.943407   -2.308606   -0.518865
      3          6           0       -0.644454   -0.463983   -0.301434
      4          6           0       -0.035516    0.847405   -0.080404
      5          8           0       -0.719929    1.781539    0.231579
      6          8           0        1.278320    0.960126   -0.248898
      7          6           0        2.076939   -0.208633   -0.515385
      8          6           0        2.410559   -0.941649    0.768279
      9          1           0        1.555811   -0.851329   -1.228265
     10          1           0        2.971285    0.186345   -0.994125
     11          1           0        2.911369   -0.270814    1.467426
     12          1           0        1.508523   -1.334581    1.240789
     13          1           0        3.075373   -1.780174    0.551879
     14          8           0       -3.303517   -0.361069    0.309002
     15          1           0       -2.894170    0.520389    0.391638
 ---------------------------------------------------------------------

 SCF Done:  E(UM062X) =  -420.204082534     A.U. after   24 cycles

 The electronic state is 2-A.
 Alpha  occ. eigenvalues --  -19.69188 -19.66709 -19.63919 -10.71799 -10.62126
 Alpha  occ. eigenvalues --  -10.58979 -10.58086 -10.55150  -1.26282  -1.17679
 Alpha  occ. eigenvalues --   -1.12297  -0.90440  -0.89334  -0.78236  -0.74623
 Alpha  occ. eigenvalues --   -0.65132  -0.62392  -0.59366  -0.57806  -0.54481
 Alpha  occ. eigenvalues --   -0.53831  -0.50530  -0.49544  -0.48061  -0.46804
 Alpha  occ. eigenvalues --   -0.43287  -0.42258  -0.40234  -0.39376  -0.38018
 Alpha  occ. eigenvalues --   -0.35978
 Alpha virt. eigenvalues --   -0.02872  -0.00867   0.00554   0.01140   0.01797
 Alpha virt. eigenvalues --    0.02980   0.03416   0.04547   0.04778   0.05736
 Alpha virt. eigenvalues --    0.06995   0.07405   0.08571   0.08888   0.10145

  Beta  occ. eigenvalues --  -19.69187 -19.65133 -19.63908 -10.71807 -10.62122
  Beta  occ. eigenvalues --  -10.58979 -10.57999 -10.55150  -1.26267  -1.17645
  Beta  occ. eigenvalues --   -1.04521  -0.90051  -0.89315  -0.78193  -0.74553
  Beta  occ. eigenvalues --   -0.65075  -0.62223  -0.59295  -0.57774  -0.53923
  Beta  occ. eigenvalues --   -0.51311  -0.50393  -0.48102  -0.46787  -0.43283
  Beta  occ. eigenvalues --   -0.41022  -0.40034  -0.38761  -0.37355  -0.37116
  Beta virt. eigenvalues --   -0.08063  -0.02825  -0.00848   0.00643   0.01144
  Beta virt. eigenvalues --    0.01997   0.03122   0.03582   0.04694   0.05302
  Beta virt. eigenvalues --    0.05847   0.07140   0.07414   0.08804   0.09001

 Mulliken charges and spin densities:
               1          2
     1  C   -0.797408  -0.099686
     2  H    0.233525   0.006888
     3  C    0.924643   0.154239
     4  C   -0.155442   0.003535
     5  O   -0.286203   0.003435
     6  O   -0.028920   0.002896
     7  C   -0.346381   0.001852
     8  C   -0.406958   0.002875
     9  H    0.163317  -0.001837
    10  H    0.212265   0.001119
    11  H    0.187510  -0.000515
    12  H    0.141109   0.000264
    13  H    0.159833   0.000632
    14  O   -0.250444   0.941907
    15  H    0.249557  -0.017606
 Sum of Mulliken charges =  -0.00000   1.00000

 Dipole moment (field-independent basis, Debye):
    X=              3.0660    Y=             -3.2177    Z=             -0.8737  Tot=              4.5296
 Quadrupole moment (field-independent basis, Debye-Ang):
   XX=            -48.1346   YY=            -49.1730   ZZ=            -47.5191
   XY=             -1.4844   XZ=              0.3166   YZ=              0.9117

  Exact polarizability:  86.263   2.457  73.238  -1.880   3.736  50.832
 Approx polarizability:  89.477   7.829  94.906  -3.180   7.118  59.192

 ******    2 imaginary frequencies (negative Signs) ******

                      1                      2                      3
                      A                      A                      A
 Frequencies --    -58.3073               -26.9033                82.1671
 Red. masses --      6.8531                 7.8403                 3.6780
 Frc consts  --      0.0137                 0.0033                 0.0146
 IR Inten    --      1.0864                 4.7480                 0.2900

                      4                      5                      6
                      A                      A                      A
 Frequencies --    109.3098               175.1932               229.6991
 Red. masses --      4.1422                 2.7785                 1.3203
 Frc consts  --      0.0292                 0.0502                 0.0410
 IR Inten    --      0.9044                 2.7548                 0.5804

                      7                      8                      9
                      A                      A                      A
 Frequencies --    252.9114               253.5858               302.8582
 Red. masses --      5.4446                 4.2822                 1.0656
 Frc consts  --      0.2052                 0.1622                 0.0576
 IR Inten    --      2.7951                 3.0657               113.9947

                     10                     11                     12
                      A                      A                      A
 Frequencies --    363.2015               412.9963               564.2693
 Red. masses --      3.0268                 3.7427                 4.7962
 Frc consts  --      0.2353                 0.3761                 0.8997
 IR Inten    --      2.9750                 4.0440                14.2979

                     13                     14                     15
                      A                      A                      A
 Frequencies --    613.1820               637.6123               759.4276
 Red. masses --      1.0859                 5.4075                 2.0694
 Frc consts  --      0.2406                 1.2953                 0.7032
 IR Inten    --    204.4537                27.2792                27.5327

                     16                     17                     18
                      A                      A                      A
 Frequencies --    766.0189               774.7630               783.9004
 Red. masses --      2.8477                 3.3646                 1.2897
 Frc consts  --      0.9845                 1.1899                 0.4670
 IR Inten    --     28.2424                11.4177                34.8302

                     19                     20                     21
                      A                      A                      A
 Frequencies --    815.0292               952.1255              1108.0134
 Red. masses --      1.1845                 2.2551                 3.3189
 Frc consts  --      0.4636                 1.2045                 2.4007
 IR Inten    --      4.5105                 7.7343                41.3938

                     22                     23                     24
                      A                      A                      A
 Frequencies --   1133.5467              1182.8697              1277.0060
 Red. masses --      2.7352                 1.8081                 2.5482
 Frc consts  --      2.0707                 1.4906                 2.4483
 IR Inten    --     56.4557                40.1216               372.3795

                     25                     26                     27
                      A                      A                      A
 Frequencies --   1352.3866              1407.6857              1433.8546
 Red. masses --      1.3320                 1.2939                 1.3873
 Frc consts  --      1.4354                 1.5107                 1.6805
 IR Inten    --    161.7761                37.9947                21.4480

                     28                     29                     30
                      A                      A                      A
 Frequencies --   1492.6116              1502.1147              1526.5585
 Red. masses --      1.0403                 1.0483                 1.1046
 Frc consts  --      1.3655                 1.3936                 1.5167
 IR Inten    --      3.8527                 2.5205                20.4312

                     31                     32                     33
                      A                      A                      A
 Frequencies --   1841.6838              2232.2826              3071.7877
 Red. masses --     12.9052                 5.7903                 1.0354
 Frc consts  --     25.7896                16.9999                 5.7563
 IR Inten    --    456.4436                65.5108                 6.0482

                     34                     35                     36
                      A                      A                      A
 Frequencies --   3095.6946              3144.0598              3152.2571
 Red. masses --      1.0642                 1.1034                 1.1010
 Frc consts  --      6.0086                 6.4262                 6.4461
 IR Inten    --     13.7974                 1.4949                12.2975

                     37                     38                     39
                      A                      A                      A
 Frequencies --   3166.9390              3487.5679              3737.8869
 Red. masses --      1.1053                 1.1674                 1.0676
 Frc consts  --      6.5317                 8.3661                 8.7888
 IR Inten    --     22.5536                73.9406                30.2471

 - Thermochemistry -
 -------------------
 Temperature   298.150 Kelvin.  Pressure   1.00000 Atm.
 Atom     1 has atomic number  6 and mass  12.00000

 Molecular mass:   115.03952 amu.
 Principal axes and moments of inertia in atomic units:
                           1         2         3
     Eigenvalues --   533.751151516.432251880.32098
           X            0.99970  -0.02307   0.00778
           Y            0.02313   0.99970  -0.00845
           Z           -0.00758   0.00863   0.99993
 This molecule is an asymmetric top.
 Rotational symmetry number  1.
 Warning -- assumption of classical behavior for rotation
           may cause significant error
 Rotational temperatures (Kelvin)      0.16227     0.05712     0.04606
 Rotational constants (GHZ):           3.38124     1.19012     0.95980
    2 imaginary frequencies ignored.
 Zero-point vibrational energy     294251.8 (Joules/Mol)
                                   70.32787 (Kcal/Mol)
 Warning -- explicit consideration of  11 degrees of freedom as
           vibrations may cause significant error
 Vibrational temperatures:    118.22   157.27   252.06   330.49   363.88
          (Kelvin)            364.85   435.75   522.57   594.21   811.86
                              882.23   917.38  1092.65  1102.13  1114.71
                             1127.86  1172.65  1369.90  1594.18  1630.92
                             1701.89  1837.33  1945.78  2025.35  2063.00
                             2147.54  2161.21  2196.38  2649.77  3211.76
                             4419.62  4454.01  4523.60  4535.39  4556.52
                             5017.83  5377.99

 Zero-point correction=                           0.112075 (Hartree/Particle)
 Thermal correction to Energy=                    0.120590
 Thermal correction to Enthalpy=                  0.121534
 Thermal correction to Gibbs Free Energy=         0.078109
 Sum of electronic and zero-point Energies=           -419.3519538
 Sum of electronic and thermal Energies=              -420.083492
 Sum of electronic and thermal Enthalpies=            -420.082548
 Sum of electronic and thermal Free Energies=         -420.125974

                     E (Thermal)             CV                S
                      KCal/Mol        Cal/Mol-Kelvin    Cal/Mol-Kelvin
 Total                   75.671             30.100             91.397
 Electronic               0.000              0.000              1.377
 Translational            0.889              2.981             40.136
 Rotational               0.889              2.981             28.811
 Vibrational             73.894             24.139             21.073
 Vibration     1          0.600              1.961              3.838
 Vibration     2          0.606              1.942              3.281
 Vibration     3          0.627              1.873              2.379
 Vibration     4          0.652              1.796              1.881
 Vibration     5          0.664              1.758              1.710
 Vibration     6          0.665              1.757              1.706
 Vibration     7          0.694              1.668              1.401
 Vibration     8          0.737              1.548              1.108
 Vibration     9          0.777              1.442              0.916
 Vibration    10          0.920              1.109              0.515
 Vibration    11          0.972              1.004              0.428

 Normal termination of Gaussian 16 at Fri Mar 28 09:41:45 2025.
