 Gaussian 16, Revision A.03,
 Gaussian 16:  ES64L-G16RevA.03 25-Dec-2016

 --------------------------
 # freq 6-311++g(d,p) m062x
 --------------------------

 -------------------
 Title Card Required
 -------------------
 Symbolic Z-matrix:
 Charge =  0 Multiplicity = 2

                         Standard orientation:
 ---------------------------------------------------------------------
 Center     Atomic      Atomic             Coordinates (Angstroms)
 Number     Number       Type             X           Y           Z
 ---------------------------------------------------------------------
      1          6           0       -1.361612   -1.421697   -0.407881
      2          1           0       -1.962824   -2.294117   -0.515708
      3          6           0       -0.646917   -0.461112   -0.301232
      4          6           0       -0.033671    0.847948   -0.078780
      5          8           0       -0.716105    1.782771    0.235412
      6          8           0        1.280181    0.958313   -0.248082
      7          6           0        2.075904   -0.211651   -0.517389
      8          6           0        2.409556   -0.947364    0.764710
      9          1           0        1.552321   -0.852197   -1.230499
     10          1           0        2.970451    0.182009   -0.996848
     11          1           0        2.912269   -0.278590    1.464464
     12          1           0        1.507223   -1.339372    1.237468
     13          1           0        3.072590   -1.786770    0.546284
     14          8           0       -3.291809   -0.364496    0.305679
     15          1           0       -2.889726    0.519594    0.394193
 ---------------------------------------------------------------------

 SCF Done:  E(UM062X) =  -420.203563442     A.U. after   23 cycles

 The electronic state is 2-A.
 Alpha  occ. eigenvalues --  -19.69188 -19.66638 -19.63914 -10.71794 -10.62132
 Alpha  occ. eigenvalues --  -10.59023 -10.58094 -10.55154  -1.26285  -1.17683
 Alpha  occ. eigenvalues --   -1.12273  -0.90463  -0.89338  -0.78239  -0.74632
 Alpha  occ. eigenvalues --   -0.65152  -0.62416  -0.59370  -0.57808  -0.54430
 Alpha  occ. eigenvalues --   -0.53827  -0.50539  -0.49580  -0.48064  -0.46807
 Alpha  occ. eigenvalues --   -0.43290  -0.42265  -0.40215  -0.39363  -0.37991
 Alpha  occ. eigenvalues --   -0.35844
 Alpha virt. eigenvalues --   -0.02867  -0.00867   0.00554   0.01138   0.01803
 Alpha virt. eigenvalues --    0.02995   0.03423   0.04559   0.04794   0.05735
 Alpha virt. eigenvalues --    0.07003   0.07384   0.08573   0.08889   0.10155

  Beta  occ. eigenvalues --  -19.69187 -19.65067 -19.63901 -10.71802 -10.62128
  Beta  occ. eigenvalues --  -10.59026 -10.57998 -10.55154  -1.26268  -1.17644
  Beta  occ. eigenvalues --   -1.04569  -0.90040  -0.89317  -0.78192  -0.74554
  Beta  occ. eigenvalues --   -0.65089  -0.62230  -0.59291  -0.57774  -0.53916
  Beta  occ. eigenvalues --   -0.51283  -0.50394  -0.48105  -0.46790  -0.43285
  Beta  occ. eigenvalues --   -0.41044  -0.40076  -0.38770  -0.37349  -0.37035
  Beta virt. eigenvalues --   -0.08092  -0.02817  -0.00847   0.00652   0.01142
  Beta virt. eigenvalues --    0.02006   0.03134   0.03590   0.04692   0.05364
  Beta virt. eigenvalues --    0.05850   0.07165   0.07398   0.08804   0.09008

 Mulliken charges and spin densities:
               1          2
     1  C   -0.767425  -0.099069
     2  H    0.234928   0.007905
     3  C    0.889197   0.159686
     4  C   -0.150594   0.001961
     5  O   -0.286816   0.004149
     6  O   -0.029518   0.003178
     7  C   -0.346217   0.001722
     8  C   -0.407163   0.003182
     9  H    0.163772  -0.001867
    10  H    0.212442   0.001160
    11  H    0.187477  -0.000537
    12  H    0.141337   0.000240
    13  H    0.159759   0.000645
    14  O   -0.251127   0.935041
    15  H    0.249947  -0.017396
 Sum of Mulliken charges =  -0.00000   1.00000

 Dipole moment (field-independent basis, Debye):
    X=              3.0540    Y=             -3.2210    Z=             -0.8772  Tot=              4.5245
 Quadrupole moment (field-independent basis, Debye-Ang):
   XX=            -48.0730   YY=            -49.2199   ZZ=            -47.5123
   XY=             -1.4676   XZ=              0.3011   YZ=              0.8932

  Exact polarizability:  87.236   2.391  73.065  -2.089   3.743  50.872
 Approx polarizability:  90.437   7.873  94.536  -3.362   7.091  59.256

 ******    2 imaginary frequencies (negative Signs) ******

                      1                      2                      3
                      A                      A                      A
 Frequencies --    -63.1652               -27.4954                81.6397
 Red. masses --      6.8434                 7.7839                 3.6494
 Frc consts  --      0.0161                 0.0035                 0.0143
 IR Inten    --      1.1398                 4.5666                 0.3011

                      4                      5                      6
                      A                      A                      A
 Frequencies --    109.0292               176.7825               230.4235
 Red. masses --      4.1321                 2.7165                 1.3332
 Frc consts  --      0.0289                 0.0500                 0.0417
 IR Inten    --      0.8972                 2.7155                 0.6393

                      7                      8                      9
                      A                      A                      A
 Frequencies --    253.2002               255.9367               302.5164
 Red. masses --      4.4303                 5.5189                 1.0642
 Frc consts  --      0.1673                 0.2130                 0.0574
 IR Inten    --      5.1469                 0.2938               113.7114

                     10                     11                     12
                      A                      A                      A
 Frequencies --    363.5759               413.0189               564.7286
 Red. masses --      3.0568                 3.7439                 4.7916
 Frc consts  --      0.2381                 0.3763                 0.9004
 IR Inten    --      3.0951                 3.9875                15.1089

                     13                     14                     15
                      A                      A                      A
 Frequencies --    625.2049               638.2994               760.3720
 Red. masses --      1.1836                 3.8672                 2.7791
 Frc consts  --      0.2726                 0.9283                 0.9467
 IR Inten    --    170.4395                57.7157                26.2387

                     16                     17                     18
                      A                      A                      A
 Frequencies --    766.7589               775.7921               783.7872
 Red. masses --      2.3161                 2.8326                 1.2926
 Frc consts  --      0.8023                 1.0044                 0.4678
 IR Inten    --     29.6309                14.1188                33.9455

                     19                     20                     21
                      A                      A                      A
 Frequencies --    814.8054               952.2220              1108.1106
 Red. masses --      1.1868                 2.2552                 3.3002
 Frc consts  --      0.4642                 1.2048                 2.3875
 IR Inten    --      4.4897                 7.7048                40.9766

                     22                     23                     24
                      A                      A                      A
 Frequencies --   1133.6877              1182.8670              1277.2786
 Red. masses --      2.7475                 1.8075                 2.5381
 Frc consts  --      2.0805                 1.4901                 2.4396
 IR Inten    --     56.7963                40.0975               374.6030

                     25                     26                     27
                      A                      A                      A
 Frequencies --   1352.4446              1407.6734              1433.8253
 Red. masses --      1.3344                 1.2945                 1.3881
 Frc consts  --      1.4381                 1.5114                 1.6813
 IR Inten    --    163.8718                38.6147                21.6353

                     28                     29                     30
                      A                      A                      A
 Frequencies --   1492.5971              1502.0431              1526.3440
 Red. masses --      1.0403                 1.0483                 1.1048
 Frc consts  --      1.3655                 1.3935                 1.5164
 IR Inten    --      3.8479                 2.5503                20.7863

                     31                     32                     33
                      A                      A                      A
 Frequencies --   1841.5777              2229.1920              3071.7478
 Red. masses --     12.9041                 5.8050                 1.0354
 Frc consts  --     25.7844                16.9960                 5.7562
 IR Inten    --    452.3482                65.5713                 6.0222

                     34                     35                     36
                      A                      A                      A
 Frequencies --   3095.0347              3143.9000              3152.3242
 Red. masses --      1.0643                 1.1033                 1.1010
 Frc consts  --      6.0068                 6.4252                 6.4463
 IR Inten    --     13.7771                 1.4727                12.3742

                     37                     38                     39
                      A                      A                      A
 Frequencies --   3166.8128              3488.4243              3739.7481
 Red. masses --      1.1053                 1.1668                 1.0676
 Frc consts  --      6.5308                 8.3659                 8.7976
 IR Inten    --     22.7314                74.1975                29.8074

 - Thermochemistry -
 -------------------
 Temperature   298.150 Kelvin.  Pressure   1.00000 Atm.
 Atom     1 has atomic number  6 and mass  12.00000

 Molecular mass:   115.03952 amu.
 Principal axes and moments of inertia in atomic units:
                           1         2         3
     Eigenvalues --   532.377721513.366901876.64316
           X            0.99970  -0.02323   0.00768
           Y            0.02330   0.99969  -0.00858
           Z           -0.00748   0.00876   0.99993
 This molecule is an asymmetric top.
 Rotational symmetry number  1.
 Warning -- assumption of classical behavior for rotation
           may cause significant error
 Rotational temperatures (Kelvin)      0.16269     0.05723     0.04615
 Rotational constants (GHZ):           3.38996     1.19253     0.96169
    2 imaginary frequencies ignored.
 Zero-point vibrational energy     294363.5 (Joules/Mol)
                                   70.35455 (Kcal/Mol)
 Warning -- explicit consideration of  10 degrees of freedom as
           vibrations may cause significant error
 Vibrational temperatures:    117.46   156.87   254.35   331.53   364.30
          (Kelvin)            368.24   435.25   523.10   594.24   812.52
                              899.53   918.37  1094.01  1103.20  1116.19
                             1127.70  1172.32  1370.04  1594.32  1631.12
                             1701.88  1837.72  1945.87  2025.33  2062.95
                             2147.51  2161.10  2196.07  2649.62  3207.31
                             4419.56  4453.06  4523.37  4535.49  4556.34
                             5019.06  5380.66

 Zero-point correction=                           0.112117 (Hartree/Particle)
 Thermal correction to Energy=                    0.120619
 Thermal correction to Enthalpy=                  0.121563
 Thermal correction to Gibbs Free Energy=         0.078163
 Sum of electronic and zero-point Energies=           -419.3513958
 Sum of electronic and thermal Energies=              -420.082944
 Sum of electronic and thermal Enthalpies=            -420.082000
 Sum of electronic and thermal Free Energies=         -420.125401

                     E (Thermal)             CV                S
                      KCal/Mol        Cal/Mol-Kelvin    Cal/Mol-Kelvin
 Total                   75.690             30.061             91.344
 Electronic               0.000              0.000              1.377
 Translational            0.889              2.981             40.136
 Rotational               0.889              2.981             28.804
 Vibrational             73.912             24.099             21.027
 Vibration     1          0.600              1.962              3.851
 Vibration     2          0.606              1.942              3.286
 Vibration     3          0.628              1.871              2.362
 Vibration     4          0.652              1.795              1.876
 Vibration     5          0.664              1.757              1.708
 Vibration     6          0.666              1.753              1.689
 Vibration     7          0.694              1.669              1.403
 Vibration     8          0.737              1.547              1.107
 Vibration     9          0.777              1.442              0.916
 Vibration    10          0.921              1.108              0.514

 Normal termination of Gaussian 16 at Fri Mar 28 09:53:45 2025.
