 Gaussian 16, Revision A.03,
 Gaussian 16:  ES64L-G16RevA.03 25-Dec-2016

 --------------------------
 # ccsd(t)/6-311++g(d,p) sp
 --------------------------

 -------------------
 Title Card Required
 -------------------
 Symbolic Z-matrix:
 Charge =  0 Multiplicity = 2

                         Standard orientation:
 ---------------------------------------------------------------------
 Center     Atomic      Atomic             Coordinates (Angstroms)
 Number     Number       Type             X           Y           Z
 ---------------------------------------------------------------------
      1          6           0       -1.632171   -1.229413   -0.326646
      2          1           0       -1.993339   -2.218400   -0.544271
      3          6           0       -0.645076   -0.450508   -0.311970
      4          6           0       -0.018014    0.849307   -0.059117
      5          8           0       -0.682103    1.787510    0.281672
      6          8           0        1.296768    0.940684   -0.237324
      7          6           0        2.065797   -0.237596   -0.540520
      8          6           0        2.397523   -1.009117    0.720887
      9          1           0        1.522913   -0.852086   -1.263797
     10          1           0        2.962864    0.147637   -1.022227
     11          1           0        2.918848   -0.365724    1.430641
     12          1           0        1.492431   -1.393947    1.194929
     13          1           0        3.042471   -1.855697    0.477629
     14          8           0       -3.131828   -0.414388    0.258683
     15          1           0       -2.817239    0.491739    0.407048
 ---------------------------------------------------------------------

 SCF Done:  E(UHF) =  -417.976354277     A.U. after   32 cycles
 E2 =    -0.1253998860D+01 EUMP2 =    -0.41923035313661D+03
 CCSD(T)= -0.41935758981D+03

 The electronic state is 2-A.
 Alpha  occ. eigenvalues --  -20.62048 -20.60457 -20.57143 -11.41908 -11.31618
 Alpha  occ. eigenvalues --  -11.30046 -11.28807 -11.24312  -1.48909  -1.39965
 Alpha  occ. eigenvalues --   -1.35758  -1.10084  -1.06088  -0.92200  -0.88272
 Alpha  occ. eigenvalues --   -0.77235  -0.73145  -0.71456  -0.67947  -0.64467
 Alpha  occ. eigenvalues --   -0.64110  -0.62835  -0.59828  -0.57292  -0.55962
 Alpha  occ. eigenvalues --   -0.53524  -0.52268  -0.51021  -0.48141  -0.44346
 Alpha  occ. eigenvalues --   -0.42874
 Alpha virt. eigenvalues --    0.03197   0.04569   0.05063   0.06513   0.07534
 Alpha virt. eigenvalues --    0.07943   0.08187   0.09588   0.11042   0.11781
 Alpha virt. eigenvalues --    0.12760   0.14085   0.14558   0.15564   0.16136

  Beta  occ. eigenvalues --  -20.62143 -20.57609 -20.56282 -11.42400 -11.32481
  Beta  occ. eigenvalues --  -11.31566 -11.25723 -11.24307  -1.48598  -1.38605
  Beta  occ. eigenvalues --   -1.26361  -1.06462  -1.05995  -0.92631  -0.88373
  Beta  occ. eigenvalues --   -0.76752  -0.72899  -0.70095  -0.67672  -0.63851
  Beta  occ. eigenvalues --   -0.61958  -0.59121  -0.56228  -0.55682  -0.52289
  Beta  occ. eigenvalues --   -0.51920  -0.49114  -0.46570  -0.46358  -0.42356
  Beta virt. eigenvalues --    0.03130   0.04395   0.04962   0.05588   0.06752
  Beta virt. eigenvalues --    0.07344   0.08062   0.08637   0.09512   0.11085
  Beta virt. eigenvalues --    0.11764   0.12944   0.14158   0.14543   0.15250

 Mulliken charges and spin densities:
               1          2
     1  C   -0.744239  -1.175742
     2  H    0.232774   0.087520
     3  C    0.898154   1.436444
     4  C   -0.042174  -0.201489
     5  O   -0.357860   0.168168
     6  O   -0.138276   0.014652
     7  C   -0.212867  -0.001507
     8  C   -0.412842   0.014146
     9  H    0.146311  -0.002430
    10  H    0.195135   0.000614
    11  H    0.170643  -0.001447
    12  H    0.132948  -0.000338
    13  H    0.129097   0.000482
    14  O   -0.262945   0.687030
    15  H    0.266140  -0.026102
 Sum of Mulliken charges =  -0.00000   1.00000

 Dipole moment (field-independent basis, Debye):
    X=              3.2742    Y=             -3.7211    Z=             -1.1610  Tot=              5.0906
 Quadrupole moment (field-independent basis, Debye-Ang):
   XX=            -49.7814   YY=            -50.3233   ZZ=            -47.2271
   XY=             -1.7963   XZ=              0.3706   YZ=              0.8413

 3-0=-419.2854079\MP4SDQ=-419.2907767\CCSD=-419.3017616\CCSD(T)=-419.35
 Normal termination of Gaussian 16 at Tue May 13 07:01:32 2025.
