 Gaussian 16, Revision A.03,
 Gaussian 16:  ES64L-G16RevA.03 25-Dec-2016

 --------------------------
 # freq 6-311++g(d,p) m062x
 --------------------------

 -------------------
 Title Card Required
 -------------------
 Symbolic Z-matrix:
 Charge =  0 Multiplicity = 2

                         Standard orientation:
 ---------------------------------------------------------------------
 Center     Atomic      Atomic             Coordinates (Angstroms)
 Number     Number       Type             X           Y           Z
 ---------------------------------------------------------------------
      1          6           0       -1.378586   -1.409081   -0.403814
      2          1           0       -1.980286   -2.280957   -0.513154
      3          6           0       -0.649180   -0.458546   -0.301134
      4          6           0       -0.031939    0.848322   -0.077199
      5          8           0       -0.712590    1.783682    0.239176
      6          8           0        1.281917    0.956602   -0.247253
      7          6           0        2.074976   -0.214396   -0.519343
      8          6           0        2.408613   -0.952848    0.761173
      9          1           0        1.549147   -0.852824   -1.232800
     10          1           0        2.969714    0.178126   -0.999385
     11          1           0        2.913097   -0.286127    1.461609
     12          1           0        1.505987   -1.344047    1.234091
     13          1           0        3.069967   -1.793047    0.540729
     14          8           0       -3.280068   -0.367847    0.302361
     15          1           0       -2.884998    0.518674    0.396532
 ---------------------------------------------------------------------

 SCF Done:  E(UM062X) =  -420.202976310     A.U. after   24 cycles

 The electronic state is 2-A.
 Alpha  occ. eigenvalues --  -19.69191 -19.66557 -19.63912 -10.71790 -10.62140
 Alpha  occ. eigenvalues --  -10.59082 -10.58108 -10.55160  -1.26290  -1.17689
 Alpha  occ. eigenvalues --   -1.12240  -0.90492  -0.89344  -0.78244  -0.74643
 Alpha  occ. eigenvalues --   -0.65176  -0.62441  -0.59375  -0.57813  -0.54370
 Alpha  occ. eigenvalues --   -0.53822  -0.50550  -0.49614  -0.48069  -0.46813
 Alpha  occ. eigenvalues --   -0.43295  -0.42270  -0.40199  -0.39352  -0.37964
 Alpha  occ. eigenvalues --   -0.35697
 Alpha virt. eigenvalues --   -0.02864  -0.00868   0.00553   0.01135   0.01810
 Alpha virt. eigenvalues --    0.03007   0.03432   0.04569   0.04812   0.05733
 Alpha virt. eigenvalues --    0.07009   0.07362   0.08575   0.08888   0.10166

  Beta  occ. eigenvalues --  -19.69190 -19.64992 -19.63896 -10.71799 -10.62135
  Beta  occ. eigenvalues --  -10.59088 -10.58003 -10.55159  -1.26271  -1.17644
  Beta  occ. eigenvalues --   -1.04622  -0.90031  -0.89321  -0.78193  -0.74558
  Beta  occ. eigenvalues --   -0.65106  -0.62237  -0.59288  -0.57775  -0.53910
  Beta  occ. eigenvalues --   -0.51246  -0.50396  -0.48109  -0.46794  -0.43289
  Beta  occ. eigenvalues --   -0.41072  -0.40123  -0.38780  -0.37347  -0.36946
  Beta virt. eigenvalues --   -0.08136  -0.02812  -0.00848   0.00659   0.01139
  Beta virt. eigenvalues --    0.02016   0.03142   0.03601   0.04689   0.05426
  Beta virt. eigenvalues --    0.05855   0.07191   0.07386   0.08803   0.09013

 Mulliken charges and spin densities:
               1          2
     1  C   -0.737144  -0.099281
     2  H    0.236338   0.009021
     3  C    0.853510   0.166706
     4  C   -0.145737   0.000363
     5  O   -0.287367   0.005002
     6  O   -0.030182   0.003503
     7  C   -0.346145   0.001580
     8  C   -0.407362   0.003531
     9  H    0.164308  -0.001900
    10  H    0.212648   0.001204
    11  H    0.187449  -0.000563
    12  H    0.141573   0.000212
    13  H    0.159683   0.000660
    14  O   -0.251892   0.927146
    15  H    0.250321  -0.017183
 Sum of Mulliken charges =  -0.00000   1.00000

 Dipole moment (field-independent basis, Debye):
    X=              3.0483    Y=             -3.2260    Z=             -0.8825  Tot=              4.5252
 Quadrupole moment (field-independent basis, Debye-Ang):
   XX=            -48.0365   YY=            -49.2564   ZZ=            -47.5049
   XY=             -1.4502   XZ=              0.2902   YZ=              0.8773

  Exact polarizability:  88.340   2.311  72.888  -2.327   3.750  50.917
 Approx polarizability:  91.503   7.898  94.142  -3.574   7.059  59.325

 ******    2 imaginary frequencies (negative Signs) ******

                      1                      2                      3
                      A                      A                      A
 Frequencies --    -67.9293               -28.8558                81.0907
 Red. masses --      6.8253                 7.7280                 3.6213
 Frc consts  --      0.0186                 0.0038                 0.0140
 IR Inten    --      1.1948                 4.3291                 0.3075

                      4                      5                      6
                      A                      A                      A
 Frequencies --    108.7656               178.3560               230.9151
 Red. masses --      4.1238                 2.6560                 1.3711
 Frc consts  --      0.0287                 0.0498                 0.0431
 IR Inten    --      0.8864                 2.6782                 0.6668

                      7                      8                      9
                      A                      A                      A
 Frequencies --    252.7006               253.5395               302.5293
 Red. masses --      5.4265                 4.4397                 1.0628
 Frc consts  --      0.2042                 0.1681                 0.0573
 IR Inten    --      3.4701                 1.6969               113.4939

                     10                     11                     12
                      A                      A                      A
 Frequencies --    363.9608               413.0383               565.1837
 Red. masses --      3.0905                 3.7453                 4.7842
 Frc consts  --      0.2412                 0.3765                 0.9004
 IR Inten    --      3.2247                 3.9292                15.8318

                     13                     14                     15
                      A                      A                      A
 Frequencies --    634.1279               643.7224               760.6350
 Red. masses --      3.0525                 1.2940                 3.4868
 Frc consts  --      0.7232                 0.3159                 1.1886
 IR Inten    --     25.6576               199.0618                26.1986

                     16                     17                     18
                      A                      A                      A
 Frequencies --    767.1722               776.7003               784.3370
 Red. masses --      2.0931                 2.5393                 1.2947
 Frc consts  --      0.7258                 0.9025                 0.4693
 IR Inten    --     30.3869                15.8967                33.2321

                     19                     20                     21
                      A                      A                      A
 Frequencies --    814.5706               952.3067              1108.1998
 Red. masses --      1.1892                 2.2553                 3.2817
 Frc consts  --      0.4649                 1.2051                 2.3746
 IR Inten    --      4.4542                 7.6830                40.5757

                     22                     23                     24
                      A                      A                      A
 Frequencies --   1133.8232              1182.8549              1277.5089
 Red. masses --      2.7595                 1.8072                 2.5290
 Frc consts  --      2.0901                 1.4898                 2.4318
 IR Inten    --     57.0934                40.1678               377.3352

                     25                     26                     27
                      A                      A                      A
 Frequencies --   1352.5055              1407.6543              1433.7941
 Red. masses --      1.3367                 1.2950                 1.3888
 Frc consts  --      1.4406                 1.5119                 1.6821
 IR Inten    --    166.0372                39.2342                21.8204

                     28                     29                     30
                      A                      A                      A
 Frequencies --   1492.5807              1501.9682              1526.1386
 Red. masses --      1.0403                 1.0484                 1.1049
 Frc consts  --      1.3654                 1.3934                 1.5162
 IR Inten    --      3.8408                 2.5835                21.1753

                     31                     32                     33
                      A                      A                      A
 Frequencies --   1841.4758              2225.1564              3071.7170
 Red. masses --     12.9025                 5.8209                 1.0354
 Frc consts  --     25.7785                16.9811                 5.7561
 IR Inten    --    447.8015                65.6199                 5.9930

                     34                     35                     36
                      A                      A                      A
 Frequencies --   3094.3195              3143.7441              3152.4033
 Red. masses --      1.0644                 1.1033                 1.1010
 Frc consts  --      6.0048                 6.4242                 6.4465
 IR Inten    --     13.7588                 1.4420                12.4642

                     37                     38                     39
                      A                      A                      A
 Frequencies --   3166.6839              3487.9889              3741.3122
 Red. masses --      1.1052                 1.1662                 1.0677
 Frc consts  --      6.5299                 8.3592                 8.8050
 IR Inten    --     22.9303                74.3449                29.5006

 - Thermochemistry -
 -------------------
 Temperature   298.150 Kelvin.  Pressure   1.00000 Atm.
 Atom     1 has atomic number  6 and mass  12.00000

 Molecular mass:   115.03952 amu.
 Principal axes and moments of inertia in atomic units:
                           1         2         3
     Eigenvalues --   530.939761510.358321872.95610
           X            0.99970  -0.02339   0.00759
           Y            0.02345   0.99969  -0.00869
           Z           -0.00739   0.00887   0.99993
 This molecule is an asymmetric top.
 Rotational symmetry number  1.
 Warning -- assumption of classical behavior for rotation
           may cause significant error
 Rotational temperatures (Kelvin)      0.16313     0.05735     0.04624
 Rotational constants (GHZ):           3.39914     1.19491     0.96358
    2 imaginary frequencies ignored.
 Zero-point vibrational energy     294433.8 (Joules/Mol)
                                   70.37136 (Kcal/Mol)
 Warning -- explicit consideration of  10 degrees of freedom as
           vibrations may cause significant error
 Vibrational temperatures:    116.67   156.49   256.61   332.24   363.58
          (Kelvin)            364.79   435.27   523.66   594.27   813.17
                              912.37   926.17  1094.38  1103.79  1117.50
                             1128.49  1171.99  1370.16  1594.45  1631.32
                             1701.86  1838.05  1945.95  2025.30  2062.91
                             2147.49  2161.00  2195.77  2649.47  3201.50
                             4419.52  4452.04  4523.15  4535.61  4556.15
                             5018.44  5382.91

 Zero-point correction=                           0.112144 (Hartree/Particle)
 Thermal correction to Energy=                    0.120640
 Thermal correction to Enthalpy=                  0.121584
 Thermal correction to Gibbs Free Energy=         0.078191
 Sum of electronic and zero-point Energies=           -419.3507959
 Sum of electronic and thermal Energies=              -420.082337
 Sum of electronic and thermal Enthalpies=            -420.081392
 Sum of electronic and thermal Free Energies=         -420.124786

                     E (Thermal)             CV                S
                      KCal/Mol        Cal/Mol-Kelvin    Cal/Mol-Kelvin
 Total                   75.703             30.029             91.329
 Electronic               0.000              0.000              1.377
 Translational            0.889              2.981             40.136
 Rotational               0.889              2.981             28.798
 Vibrational             73.925             24.067             21.018
 Vibration     1          0.600              1.962              3.864
 Vibration     2          0.606              1.942              3.291
 Vibration     3          0.629              1.869              2.346
 Vibration     4          0.653              1.794              1.872
 Vibration     5          0.664              1.758              1.712
 Vibration     6          0.665              1.757              1.706
 Vibration     7          0.694              1.669              1.403
 Vibration     8          0.737              1.546              1.105
 Vibration     9          0.777              1.442              0.916
 Vibration    10          0.921              1.107              0.514

 Normal termination of Gaussian 16 at Fri Mar 28 10:05:49 2025.
