 Gaussian 16, Revision A.03,
 Gaussian 16:  ES64L-G16RevA.03 25-Dec-2016

 --------------------------
 # freq 6-311++g(d,p) m062x
 --------------------------

 -------------------
 Title Card Required
 -------------------
 Symbolic Z-matrix:
 Charge =  0 Multiplicity = 2

                         Standard orientation:
 ---------------------------------------------------------------------
 Center     Atomic      Atomic             Coordinates (Angstroms)
 Number     Number       Type             X           Y           Z
 ---------------------------------------------------------------------
      1          6           0       -1.557966   -1.279248   -0.351343
      2          1           0       -2.020796   -2.227420   -0.528628
      3          6           0       -0.653647   -0.448934   -0.306500
      4          6           0       -0.019832    0.849449   -0.063757
      5          8           0       -0.688325    1.786351    0.271091
      6          8           0        1.293913    0.944121   -0.239855
      7          6           0        2.068079   -0.232834   -0.535517
      8          6           0        2.400464   -0.996138    0.730639
      9          1           0        1.528040   -0.853047   -1.255734
     10          1           0        2.964451    0.153520   -1.017535
     11          1           0        2.918076   -0.347137    1.438033
     12          1           0        1.495883   -1.382281    1.204454
     13          1           0        3.049064   -1.841464    0.492825
     14          8           0       -3.170232   -0.400450    0.270879
     15          1           0       -2.840161    0.503888    0.408528
 ---------------------------------------------------------------------

 SCF Done:  E(UM062X) =  -420.199014190     A.U. after   23 cycles

 The electronic state is 2-A.
 Alpha  occ. eigenvalues --  -19.69463 -19.64711 -19.64291 -10.72066 -10.62503
 Alpha  occ. eigenvalues --  -10.61924 -10.59535 -10.55460  -1.26642  -1.18109
 Alpha  occ. eigenvalues --   -1.10651  -0.91596  -0.89671  -0.78686  -0.75225
 Alpha  occ. eigenvalues --   -0.65795  -0.62732  -0.59772  -0.58174  -0.54262
 Alpha  occ. eigenvalues --   -0.52571  -0.50899  -0.49634  -0.48334  -0.47125
 Alpha  occ. eigenvalues --   -0.43621  -0.42085  -0.40393  -0.39384  -0.37318
 Alpha  occ. eigenvalues --   -0.33136
 Alpha virt. eigenvalues --   -0.03373  -0.01067   0.00449   0.00956   0.01798
 Alpha virt. eigenvalues --    0.02826   0.03468   0.04457   0.04986   0.05629
 Alpha virt. eigenvalues --    0.06838   0.07266   0.08460   0.08775   0.10097

  Beta  occ. eigenvalues --  -19.69465 -19.64196 -19.63508 -10.72097 -10.62487
  Beta  occ. eigenvalues --  -10.62045 -10.59170 -10.55458  -1.26559  -1.17890
  Beta  occ. eigenvalues --   -1.05921  -0.90137  -0.89607  -0.78531  -0.74956
  Beta  occ. eigenvalues --   -0.65583  -0.62352  -0.59421  -0.58033  -0.54104
  Beta  occ. eigenvalues --   -0.50682  -0.50312  -0.48371  -0.47076  -0.43567
  Beta  occ. eigenvalues --   -0.41943  -0.40967  -0.39081  -0.37971  -0.35275
  Beta virt. eigenvalues --   -0.10275  -0.03274  -0.01060   0.00584   0.00954
  Beta virt. eigenvalues --    0.02053   0.03060   0.03777   0.04535   0.05590
  Beta virt. eigenvalues --    0.06074   0.07091   0.07779   0.08644   0.09019

 Mulliken charges and spin densities:
               1          2
     1  C   -0.582510  -0.257685
     2  H    0.238754   0.025166
     3  C    0.705782   0.532430
     4  C   -0.129867  -0.009855
     5  O   -0.278614   0.032081
     6  O   -0.029237   0.011384
     7  C   -0.353015  -0.000834
     8  C   -0.410871   0.012227
     9  H    0.171854  -0.001953
    10  H    0.218208   0.002322
    11  H    0.188681  -0.001144
    12  H    0.144211   0.000436
    13  H    0.159273   0.000790
    14  O   -0.289133   0.669161
    15  H    0.246485  -0.014525
 Sum of Mulliken charges =  -0.00000   1.00000

 Dipole moment (field-independent basis, Debye):
    X=              3.6758    Y=             -3.3890    Z=             -1.1075  Tot=              5.1209
 Quadrupole moment (field-independent basis, Debye-Ang):
   XX=            -50.5672   YY=            -48.9828   ZZ=            -47.4042
   XY=             -1.5214   XZ=              0.6330   YZ=              0.9659

  Exact polarizability: 107.051   0.272  71.638  -6.655   4.108  51.802
 Approx polarizability: 110.261   5.044  90.319  -8.439   7.173  60.879

 ******    1 imaginary frequencies (negative Signs) ******

                      1                      2                      3
                      A                      A                      A
 Frequencies --   -797.9321                68.0612                94.6296
 Red. masses --     10.6446                 4.1251                 5.4255
 Frc consts  --      3.9931                 0.0113                 0.0286
 IR Inten    --     83.7347                 0.2838                 1.1153

                      4                      5                      6
                      A                      A                      A
 Frequencies --    102.0014               115.9462               201.1562
 Red. masses --      5.6057                 4.2730                 1.6843
 Frc consts  --      0.0344                 0.0338                 0.0402
 IR Inten    --      0.6315                 1.8834                 1.4479

                      7                      8                      9
                      A                      A                      A
 Frequencies --    249.9390               264.0261               321.8416
 Red. masses --      1.6951                 4.0109                 1.0755
 Frc consts  --      0.0624                 0.1647                 0.0656
 IR Inten    --      2.3358                 0.3281               109.6510

                     10                     11                     12
                      A                      A                      A
 Frequencies --    379.6278               415.6051               568.4685
 Red. masses --      3.5966                 3.8511                 4.9161
 Frc consts  --      0.3054                 0.3919                 0.9360
 IR Inten    --      6.2475                 4.3996                20.2654

                     13                     14                     15
                      A                      A                      A
 Frequencies --    621.9700               754.0213               768.1325
 Red. masses --      7.4758                 9.4435                 4.4984
 Frc consts  --      1.7039                 3.1634                 1.5638
 IR Inten    --      7.4664                18.2180                 2.9309

                     16                     17                     18
                      A                      A                      A
 Frequencies --    784.4653               810.7062               844.6953
 Red. masses --      1.3653                 1.1812                 1.1131
 Frc consts  --      0.4950                 0.4574                 0.4679
 IR Inten    --     42.9330                 9.8252               155.3198

                     19                     20                     21
                      A                      A                      A
 Frequencies --    942.4914               956.3366              1107.5214
 Red. masses --      1.3060                 1.6357                 3.2570
 Frc consts  --      0.6835                 0.8814                 2.3538
 IR Inten    --     60.0812                18.4364                40.8574

                     22                     23                     24
                      A                      A                      A
 Frequencies --   1133.0367              1180.7827              1274.1010
 Red. masses --      2.7260                 1.8277                 2.5649
 Frc consts  --      2.0619                 1.5014                 2.4532
 IR Inten    --     53.4718                46.8652               422.4650

                     25                     26                     27
                      A                      A                      A
 Frequencies --   1350.9600              1406.9571              1432.8543
 Red. masses --      1.3304                 1.2911                 1.3855
 Frc consts  --      1.4306                 1.5059                 1.6759
 IR Inten    --    176.5586                40.8662                21.6277

                     28                     29                     30
                      A                      A                      A
 Frequencies --   1492.4059              1500.9877              1524.2140
 Red. masses --      1.0400                 1.0489                 1.1039
 Frc consts  --      1.3647                 1.3924                 1.5110
 IR Inten    --      3.9859                 2.8733                25.9469

                     31                     32                     33
                      A                      A                      A
 Frequencies --   1837.2354              2019.0065              3071.5879
 Red. masses --     12.7810                 6.5079                 1.0356
 Frc consts  --     25.4183                15.6302                 5.7566
 IR Inten    --    361.1316                88.2885                 5.3070

                     34                     35                     36
                      A                      A                      A
 Frequencies --   3083.3087              3142.1222              3153.4803
 Red. masses --      1.0665                 1.1021                 1.1007
 Frc consts  --      5.9738                 6.4111                 6.4489
 IR Inten    --     14.2619                 1.0514                13.8510

                     37                     38                     39
                      A                      A                      A
 Frequencies --   3165.1589              3414.9023              3772.5741
 Red. masses --      1.1041                 1.1382                 1.0680
 Frc consts  --      6.5172                 7.8206                 8.9561
 IR Inten    --     25.6092                56.0988                44.9203

 - Thermochemistry -
 -------------------
 Temperature   298.150 Kelvin.  Pressure   1.00000 Atm.
 Atom     1 has atomic number  6 and mass  12.00000

 Molecular mass:   115.03952 amu.
 Principal axes and moments of inertia in atomic units:
                           1         2         3
     Eigenvalues --   516.962241485.128191840.54427
           X            0.99967  -0.02493   0.00688
           Y            0.02499   0.99965  -0.00854
           Z           -0.00667   0.00871   0.99994
 This molecule is an asymmetric top.
 Rotational symmetry number  1.
 Warning -- assumption of classical behavior for rotation
           may cause significant error
 Rotational temperatures (Kelvin)      0.16754     0.05832     0.04706
 Rotational constants (GHZ):           3.49105     1.21521     0.98055
    1 imaginary frequencies ignored.
 Zero-point vibrational energy     295042.9 (Joules/Mol)
                                   70.51694 (Kcal/Mol)
 Warning -- explicit consideration of  11 degrees of freedom as
           vibrations may cause significant error
 Vibrational temperatures:     97.92   136.15   146.76   166.82   289.42
          (Kelvin)            359.61   379.87   463.06   546.20   597.96
                              817.90   894.88  1084.87  1105.17  1128.67
                             1166.43  1215.33  1356.03  1375.96  1593.48
                             1630.19  1698.88  1833.15  1943.73  2024.30
                             2061.56  2147.24  2159.59  2193.00  2643.37
                             2904.90  4419.33  4436.19  4520.81  4537.15
                             4553.96  4913.28  5427.89

 Zero-point correction=                           0.112376 (Hartree/Particle)
 Thermal correction to Energy=                    0.121654
 Thermal correction to Enthalpy=                  0.122598
 Thermal correction to Gibbs Free Energy=         0.077057
 Sum of electronic and zero-point Energies=           -420.086638
 Sum of electronic and thermal Energies=              -420.077360
 Sum of electronic and thermal Enthalpies=            -420.076416
 Sum of electronic and thermal Free Energies=         -420.121958

                     E (Thermal)             CV                S
                      KCal/Mol        Cal/Mol-Kelvin    Cal/Mol-Kelvin
 Total                   76.339             31.453             95.850
 Electronic               0.000              0.000              1.377
 Translational            0.889              2.981             40.136
 Rotational               0.889              2.981             28.737
 Vibrational             74.562             25.491             25.600
 Vibration     1          0.598              1.969              4.209
 Vibration     2          0.603              1.953              3.562
 Vibration     3          0.604              1.948              3.416
 Vibration     4          0.608              1.936              3.167
 Vibration     5          0.638              1.838              2.122
 Vibration     6          0.663              1.763              1.731
 Vibration     7          0.671              1.739              1.635
 Vibration     8          0.707              1.632              1.301
 Vibration     9          0.750              1.514              1.041
 Vibration    10          0.779              1.436              0.907
 Vibration    11          0.924              1.099              0.507

 Normal termination of Gaussian 16 at Fri Mar 28 12:06:20 2025.
