 Gaussian 16, Revision A.03,
 Gaussian 16:  ES64L-G16RevA.03 25-Dec-2016

 --------------------------
 # freq 6-311++g(d,p) m062x
 --------------------------

 -------------------
 Title Card Required
 -------------------
 Symbolic Z-matrix:
 Charge =  0 Multiplicity = 2

                         Standard orientation:
 ---------------------------------------------------------------------
 Center     Atomic      Atomic             Coordinates (Angstroms)
 Number     Number       Type             X           Y           Z
 ---------------------------------------------------------------------
      1          6           0       -1.613860   -1.241873   -0.332907
      2          1           0       -2.000489   -2.221864   -0.540550
      3          6           0       -0.647377   -0.449751   -0.310491
      4          6           0       -0.018268    0.849463   -0.060257
      5          8           0       -0.683501    1.787210    0.279069
      6          8           0        1.296138    0.941466   -0.237956
      7          6           0        2.066334   -0.236551   -0.539311
      8          6           0        2.398203   -1.006061    0.723259
      9          1           0        1.524019   -0.852401   -1.261842
     10          1           0        2.963203    0.148888   -1.021184
     11          1           0        2.918666   -0.361318    1.432419
     12          1           0        1.493233   -1.391172    1.197281
     13          1           0        3.043993   -1.852369    0.481314
     14          8           0       -3.141411   -0.410679    0.261814
     15          1           0       -2.822615    0.494895    0.407386
 ---------------------------------------------------------------------

 SCF Done:  E(UM062X) =  -420.205873162     A.U. after   21 cycles

 The electronic state is 2-A.
 Alpha  occ. eigenvalues --  -19.69484 -19.64395 -19.64267 -10.72057 -10.63550
 Alpha  occ. eigenvalues --  -10.62588 -10.60169 -10.55545  -1.26688  -1.18199
 Alpha  occ. eigenvalues --   -1.10228  -0.91949  -0.89745  -0.78837  -0.75436
 Alpha  occ. eigenvalues --   -0.65964  -0.62639  -0.59898  -0.58249  -0.54357
 Alpha  occ. eigenvalues --   -0.52441  -0.50957  -0.49478  -0.48389  -0.47185
 Alpha  occ. eigenvalues --   -0.43720  -0.42362  -0.40536  -0.39421  -0.36720
 Alpha  occ. eigenvalues --   -0.32371
 Alpha virt. eigenvalues --   -0.03706  -0.01151   0.00426   0.00891   0.01764
 Alpha virt. eigenvalues --    0.02782   0.03481   0.04394   0.05293   0.05673
 Alpha virt. eigenvalues --    0.06930   0.07301   0.08385   0.08752   0.10022

  Beta  occ. eigenvalues --  -19.69490 -19.64256 -19.63393 -10.72096 -10.63708
  Beta  occ. eigenvalues --  -10.62567 -10.59655 -10.55543  -1.26570  -1.17888
  Beta  occ. eigenvalues --   -1.07007  -0.89973  -0.89617  -0.78631  -0.75075
  Beta  occ. eigenvalues --   -0.65675  -0.62211  -0.59385  -0.58055  -0.54136
  Beta  occ. eigenvalues --   -0.50702  -0.50623  -0.48416  -0.47137  -0.43642
  Beta  occ. eigenvalues --   -0.42732  -0.41498  -0.39203  -0.38408  -0.34871
  Beta virt. eigenvalues --   -0.10162  -0.03536  -0.01152   0.00523   0.00889
  Beta virt. eigenvalues --    0.02040   0.03030   0.03859   0.04479   0.05561
  Beta virt. eigenvalues --    0.06134   0.07079   0.07950   0.08579   0.09039

 Mulliken charges and spin densities:
               1          2
     1  C   -0.571239  -0.307165
     2  H    0.231151   0.027233
     3  C    0.707620   0.745924
     4  C   -0.120093  -0.014027
     5  O   -0.274680   0.045815
     6  O   -0.028110   0.013806
     7  C   -0.353434   0.001643
     8  C   -0.413582   0.014020
     9  H    0.173475  -0.001247
    10  H    0.219734   0.003065
    11  H    0.189343  -0.001346
    12  H    0.145483   0.001624
    13  H    0.158925   0.000525
    14  O   -0.310664   0.481477
    15  H    0.246070  -0.011348
 Sum of Mulliken charges =  -0.00000   1.00000

 Dipole moment (field-independent basis, Debye):
    X=              3.8924    Y=             -3.4485    Z=             -1.1874  Tot=              5.3341
 Quadrupole moment (field-independent basis, Debye-Ang):
   XX=            -51.7559   YY=            -48.9927   ZZ=            -47.3971
   XY=             -1.6860   XZ=              0.7857   YZ=              1.0136

  Exact polarizability: 103.320   0.481  71.550  -5.920   4.118  51.643
 Approx polarizability: 110.820   3.265  89.504  -9.067   7.430  61.317

 ******    1 imaginary frequencies (negative Signs) ******

                      1                      2                      3
                      A                      A                      A
 Frequencies --   -798.2932                71.7978               103.0057
 Red. masses --     11.0226                 3.6517                 4.5469
 Frc consts  --      4.1386                 0.0111                 0.0284
 IR Inten    --      1.5547                 0.0582                 0.5109

                      4                      5                      6
                      A                      A                      A
 Frequencies --    124.3123               150.7720               208.1644
 Red. masses --      5.1440                 6.6890                 1.4787
 Frc consts  --      0.0468                 0.0896                 0.0378
 IR Inten    --      1.2179                 1.8125                 0.8175

                      7                      8                      9
                      A                      A                      A
 Frequencies --    260.6905               292.5024               345.1643
 Red. masses --      1.9539                 2.8247                 1.1570
 Frc consts  --      0.0782                 0.1424                 0.0812
 IR Inten    --      2.7697                 0.4294               109.8206

                     10                     11                     12
                      A                      A                      A
 Frequencies --    392.1565               421.9291               569.7100
 Red. masses --      3.5820                 4.1045                 5.0323
 Frc consts  --      0.3246                 0.4305                 0.9623
 IR Inten    --      6.7343                 6.9909                20.3360

                     13                     14                     15
                      A                      A                      A
 Frequencies --    618.4995               748.8188               766.6078
 Red. masses --      7.1309                 7.7168                 4.3638
 Frc consts  --      1.6072                 2.5494                 1.5110
 IR Inten    --      3.1919                13.4539                 1.9362

                     16                     17                     18
                      A                      A                      A
 Frequencies --    790.4069               810.1617               914.7174
 Red. masses --      1.4573                 1.1849                 1.1079
 Frc consts  --      0.5364                 0.4582                 0.5462
 IR Inten    --     46.6114                 5.2460               104.3241

                     19                     20                     21
                      A                      A                      A
 Frequencies --    950.2048              1074.0640              1108.9325
 Red. masses --      2.2310                 1.1531                 2.8711
 Frc consts  --      1.1868                 0.7838                 2.0802
 IR Inten    --      8.6667                82.2526                37.9529

                     22                     23                     24
                      A                      A                      A
 Frequencies --   1133.0794              1179.9302              1272.2693
 Red. masses --      2.7545                 1.8158                 2.5779
 Frc consts  --      2.0836                 1.4895                 2.4585
 IR Inten    --     60.7283                38.6586               389.5457

                     25                     26                     27
                      A                      A                      A
 Frequencies --   1349.3318              1406.5036              1432.2839
 Red. masses --      1.3200                 1.2884                 1.3831
 Frc consts  --      1.4160                 1.5017                 1.6718
 IR Inten    --    163.7480                36.1550                20.3501

                     28                     29                     30
                      A                      A                      A
 Frequencies --   1492.2550              1500.7885              1523.9289
 Red. masses --      1.0399                 1.0490                 1.1036
 Frc consts  --      1.3643                 1.3920                 1.5101
 IR Inten    --      4.2257                 2.3620                23.3647

                     31                     32                     33
                      A                      A                      A
 Frequencies --   1832.8686              1910.9000              3071.4844
 Red. masses --     12.4280                 7.0721                 1.0357
 Frc consts  --     24.5989                15.2150                 5.7566
 IR Inten    --    335.8178               123.8542                 5.1345

                     34                     35                     36
                      A                      A                      A
 Frequencies --   3079.7760              3141.5357              3153.6059
 Red. masses --      1.0671                 1.1018                 1.1005
 Frc consts  --      5.9632                 6.4066                 6.4485
 IR Inten    --     14.8208                 1.0929                14.4595

                     37                     38                     39
                      A                      A                      A
 Frequencies --   3164.6149              3359.7314              3789.3873
 Red. masses --      1.1039                 1.1246                 1.0682
 Frc consts  --      6.5136                 7.4795                 9.0373
 IR Inten    --     24.7252                31.2350                51.2386

 - Thermochemistry -
 -------------------
 Temperature   298.150 Kelvin.  Pressure   1.00000 Atm.
 Atom     1 has atomic number  6 and mass  12.00000

 Molecular mass:   115.03952 amu.
 Principal axes and moments of inertia in atomic units:
                           1         2         3
     Eigenvalues --   513.502851479.472951833.11998
           X            0.99965  -0.02540   0.00674
           Y            0.02546   0.99964  -0.00831
           Z           -0.00653   0.00848   0.99994
 This molecule is an asymmetric top.
 Rotational symmetry number  1.
 Warning -- assumption of classical behavior for rotation
           may cause significant error
 Rotational temperatures (Kelvin)      0.16867     0.05854     0.04725
 Rotational constants (GHZ):           3.51457     1.21985     0.98452
    1 imaginary frequencies ignored.
 Zero-point vibrational energy     296176.8 (Joules/Mol)
                                   70.78795 (Kcal/Mol)
 Warning -- explicit consideration of  12 degrees of freedom as
           vibrations may cause significant error
 Vibrational temperatures:    103.30   148.20   178.86   216.93   299.50
          (Kelvin)            375.08   420.85   496.61   564.23   607.06
                              819.69   889.88  1077.38  1102.98  1137.22
                             1165.64  1316.07  1367.13  1545.34  1595.51
                             1630.25  1697.66  1830.51  1941.39  2023.65
                             2060.74  2147.02  2159.30  2192.59  2637.09
                             2749.36  4419.18  4431.11  4519.97  4537.34
                             4553.17  4833.90  5452.08

 Zero-point correction=                           0.112808 (Hartree/Particle)
 Thermal correction to Energy=                    0.121819
 Thermal correction to Enthalpy=                  0.122763
 Thermal correction to Gibbs Free Energy=         0.078053
 Sum of electronic and zero-point Energies=           -419.3542305
 Sum of electronic and thermal Energies=              -420.084054
 Sum of electronic and thermal Enthalpies=            -420.083110
 Sum of electronic and thermal Free Energies=         -420.127820

                     E (Thermal)             CV                S
                      KCal/Mol        Cal/Mol-Kelvin    Cal/Mol-Kelvin
 Total                   76.442             31.006             94.100
 Electronic               0.000              0.000              1.377
 Translational            0.889              2.981             40.136
 Rotational               0.889              2.981             28.723
 Vibrational             74.665             25.045             23.864
 Vibration     1          0.598              1.967              4.103
 Vibration     2          0.605              1.947              3.397
 Vibration     3          0.610              1.929              3.032
 Vibration     4          0.618              1.902              2.662
 Vibration     5          0.641              1.828              2.060
 Vibration     6          0.669              1.745              1.657
 Vibration     7          0.688              1.688              1.459
 Vibration     8          0.724              1.585              1.188
 Vibration     9          0.760              1.487              0.992
 Vibration    10          0.784              1.423              0.885
 Vibration    11          0.926              1.097              0.505
 Vibration    12          0.978              0.993              0.419

 Normal termination of Gaussian 16 at Fri Mar 28 12:42:14 2025.
