 Gaussian 16, Revision A.03,
 Gaussian 16:  ES64L-G16RevA.03 25-Dec-2016

 --------------------------
 # freq 6-311++g(d,p) m062x
 --------------------------

 -------------------
 Title Card Required
 -------------------
 Symbolic Z-matrix:
 Charge =  0 Multiplicity = 2

                         Standard orientation:
 ---------------------------------------------------------------------
 Center     Atomic      Atomic             Coordinates (Angstroms)
 Number     Number       Type             X           Y           Z
 ---------------------------------------------------------------------
      1          6           0       -1.520964   -1.304845   -0.363158
      2          1           0       -2.028402   -2.230357   -0.521315
      3          6           0       -0.655632   -0.449259   -0.304506
      4          6           0       -0.021618    0.849188   -0.066186
      5          8           0       -0.692138    1.785963    0.265434
      6          8           0        1.292099    0.946145   -0.241154
      7          6           0        2.069319   -0.229914   -0.532719
      8          6           0        2.402062   -0.988791    0.736000
      9          1           0        1.531286   -0.853304   -1.251391
     10          1           0        2.965369    0.157296   -1.014660
     11          1           0        2.917584   -0.336700    1.442091
     12          1           0        1.497786   -1.375772    1.209591
     13          1           0        3.052797   -1.833304    0.501071
     14          8           0       -3.190534   -0.393935    0.276903
     15          1           0       -2.850827    0.508479    0.408573
 ---------------------------------------------------------------------

 SCF Done:  E(UM062X) =  -420.197932070     A.U. after   24 cycles

 The electronic state is 2-A.
 Alpha  occ. eigenvalues --  -19.69367 -19.65238 -19.64137 -10.71963 -10.62381
 Alpha  occ. eigenvalues --  -10.60854 -10.59009 -10.55357  -1.26519  -1.17959
 Alpha  occ. eigenvalues --   -1.11203  -0.91221  -0.89558  -0.78521  -0.75017
 Alpha  occ. eigenvalues --   -0.65615  -0.62683  -0.59626  -0.58045  -0.54141
 Alpha  occ. eigenvalues --   -0.53007  -0.50792  -0.49725  -0.48248  -0.47021
 Alpha  occ. eigenvalues --   -0.43504  -0.42086  -0.40273  -0.39340  -0.37597
 Alpha  occ. eigenvalues --   -0.33810
 Alpha virt. eigenvalues --   -0.03148  -0.00992   0.00486   0.01019   0.01822
 Alpha virt. eigenvalues --    0.02901   0.03483   0.04509   0.04902   0.05659
 Alpha virt. eigenvalues --    0.06882   0.07273   0.08514   0.08819   0.10152

  Beta  occ. eigenvalues --  -19.69368 -19.64070 -19.63875 -10.71987 -10.62369
  Beta  occ. eigenvalues --  -10.60939 -10.58732 -10.55355  -1.26458  -1.17801
  Beta  occ. eigenvalues --   -1.05461  -0.90104  -0.89509  -0.78400  -0.74807
  Beta  occ. eigenvalues --   -0.65449  -0.62341  -0.59370  -0.57938  -0.54020
  Beta  occ. eigenvalues --   -0.50653  -0.50437  -0.48281  -0.46978  -0.43468
  Beta  occ. eigenvalues --   -0.41627  -0.40701  -0.38966  -0.37681  -0.35718
  Beta virt. eigenvalues --   -0.09741  -0.03070  -0.00980   0.00633   0.01019
  Beta virt. eigenvalues --    0.02057   0.03090   0.03730   0.04586   0.05628
  Beta virt. eigenvalues --    0.06040   0.07141   0.07675   0.08705   0.09029

 Mulliken charges and spin densities:
               1          2
     1  C   -0.581448  -0.197978
     2  H    0.241538   0.022061
     3  C    0.691822   0.390269
     4  C   -0.130622  -0.008236
     5  O   -0.283022   0.022619
     6  O   -0.031047   0.009102
     7  C   -0.351152  -0.000605
     8  C   -0.409788   0.009754
     9  H    0.170521  -0.002119
    10  H    0.216697   0.001918
    11  H    0.188112  -0.000975
    12  H    0.143643   0.000108
    13  H    0.159264   0.000815
    14  O   -0.273272   0.768800
    15  H    0.248755  -0.015532
 Sum of Mulliken charges =  -0.00000   1.00000

 Dipole moment (field-independent basis, Debye):
    X=              3.4308    Y=             -3.3413    Z=             -1.0331  Tot=              4.8992
 Quadrupole moment (field-independent basis, Debye-Ang):
   XX=            -49.5131   YY=            -49.1003   ZZ=            -47.4219
   XY=             -1.4491   XZ=              0.4818   YZ=              0.9145

  Exact polarizability: 105.103   0.553  71.756  -6.151   4.032  51.710
 Approx polarizability: 106.346   6.321  90.894  -7.207   6.981  60.431

 ******    1 imaginary frequencies (negative Signs) ******

                      1                      2                      3
                      A                      A                      A
 Frequencies --   -636.2828                27.6686                68.8609
 Red. masses --     11.6074                 6.5747                 5.9613
 Frc consts  --      2.7688                 0.0030                 0.0167
 IR Inten    --     87.0022                 1.5565                 1.4166

                      4                      5                      6
                      A                      A                      A
 Frequencies --     82.1605               109.1866               195.5755
 Red. masses --      3.7982                 3.9908                 1.8697
 Frc consts  --      0.0151                 0.0280                 0.0421
 IR Inten    --      0.8490                 0.8816                 1.8858

                      7                      8                      9
                      A                      A                      A
 Frequencies --    243.9907               256.3829               311.9904
 Red. masses --      1.5716                 4.2968                 1.0612
 Frc consts  --      0.0551                 0.1664                 0.0609
 IR Inten    --      1.9370                 1.0060               110.7094

                     10                     11                     12
                      A                      A                      A
 Frequencies --    373.0710               414.1276               567.9904
 Red. masses --      3.4965                 3.7921                 4.8184
 Frc consts  --      0.2867                 0.3832                 0.9159
 IR Inten    --      5.2665                 3.8125                19.1604

                     13                     14                     15
                      A                      A                      A
 Frequencies --    627.1221               756.6684               769.7692
 Red. masses --      7.6054                10.0657                 4.3889
 Frc consts  --      1.7623                 3.3955                 1.5323
 IR Inten    --      9.9262                21.6483                 5.2343

                     16                     17                     18
                      A                      A                      A
 Frequencies --    780.5735               807.5193               812.6575
 Red. masses --      1.3384                 1.1204                 1.1625
 Frc consts  --      0.4805                 0.4305                 0.4523
 IR Inten    --     39.9075               175.0807                26.9356

                     19                     20                     21
                      A                      A                      A
 Frequencies --    859.8954               952.0899              1107.7865
 Red. masses --      1.0725                 2.2506                 3.2438
 Frc consts  --      0.4672                 1.2020                 2.3454
 IR Inten    --     46.7026                 7.3065                40.8746

                     22                     23                     24
                      A                      A                      A
 Frequencies --   1133.4986              1181.5024              1275.4333
 Red. masses --      2.7482                 1.8229                 2.5471
 Frc consts  --      2.0803                 1.4992                 2.4412
 IR Inten    --     54.3426                46.8648               424.7207

                     25                     26                     27
                      A                      A                      A
 Frequencies --   1351.6991              1407.1533              1433.1572
 Red. masses --      1.3353                 1.2927                 1.3874
 Frc consts  --      1.4375                 1.5081                 1.6790
 IR Inten    --    179.5714                42.3015                22.2625

                     28                     29                     30
                      A                      A                      A
 Frequencies --   1492.4565              1501.1954              1524.4943
 Red. masses --      1.0401                 1.0488                 1.1042
 Frc consts  --      1.3649                 1.3926                 1.5119
 IR Inten    --      3.8652                 2.9757                25.9328

                     31                     32                     33
                      A                      A                      A
 Frequencies --   1838.8728              2093.5180              3071.6328
 Red. masses --     12.8410                 6.2985                 1.0355
 Frc consts  --     25.5830                16.2644                 5.7564
 IR Inten    --    380.1973                76.8440                 5.5229

                     34                     35                     36
                      A                      A                      A
 Frequencies --   3086.1536              3142.5007              3153.2214
 Red. masses --      1.0660                 1.1024                 1.1008
 Frc consts  --      5.9820                 6.4144                 6.4484
 IR Inten    --     13.8807                 1.0622                13.5827

                     37                     38                     39
                      A                      A                      A
 Frequencies --   3165.5025              3450.6106              3763.4840
 Red. masses --      1.1044                 1.1469                 1.0679
 Frc consts  --      6.5202                 8.0455                 8.9117
 IR Inten    --     25.4852                68.3150                37.3849

 - Thermochemistry -
 -------------------
 Temperature   298.150 Kelvin.  Pressure   1.00000 Atm.
 Atom     1 has atomic number  6 and mass  12.00000

 Molecular mass:   115.03952 amu.
 Principal axes and moments of inertia in atomic units:
                           1         2         3
     Eigenvalues --   519.454881489.394361846.08974
           X            0.99967  -0.02463   0.00699
           Y            0.02469   0.99966  -0.00869
           Z           -0.00677   0.00886   0.99994
 This molecule is an asymmetric top.
 Rotational symmetry number  1.
 Warning -- assumption of classical behavior for rotation
           may cause significant error
 Rotational temperatures (Kelvin)      0.16674     0.05815     0.04692
 Rotational constants (GHZ):           3.47430     1.21173     0.97760
    1 imaginary frequencies ignored.
 Zero-point vibrational energy     294228.6 (Joules/Mol)
                                   70.32231 (Kcal/Mol)
 Warning -- explicit consideration of  11 degrees of freedom as
           vibrations may cause significant error
 Vibrational temperatures:     39.81    99.08   118.21   157.10   281.39
          (Kelvin)            351.05   368.88   448.88   536.77   595.84
                              817.21   902.29  1088.68  1107.53  1123.07
                             1161.84  1169.23  1237.20  1369.84  1593.86
                             1630.85  1699.92  1835.06  1944.79  2024.58
                             2061.99  2147.31  2159.89  2193.41  2645.73
                             3012.11  4419.39  4440.29  4521.36  4536.78
                             4554.45  4964.66  5414.81

 Zero-point correction=                           0.112066 (Hartree/Particle)
 Thermal correction to Energy=                    0.121602
 Thermal correction to Enthalpy=                  0.122547
 Thermal correction to Gibbs Free Energy=         0.075462
 Sum of electronic and zero-point Energies=           -420.085866
 Sum of electronic and thermal Energies=              -420.076330
 Sum of electronic and thermal Enthalpies=            -420.075385
 Sum of electronic and thermal Free Energies=         -420.122470

                     E (Thermal)             CV                S
                      KCal/Mol        Cal/Mol-Kelvin    Cal/Mol-Kelvin
 Total                   76.307             31.727             99.098
 Electronic               0.000              0.000              1.377
 Translational            0.889              2.981             40.136
 Rotational               0.889              2.981             28.748
 Vibrational             74.529             25.766             28.837
 Vibration     1          0.593              1.984              5.990
 Vibration     2          0.598              1.969              4.186
 Vibration     3          0.600              1.961              3.839
 Vibration     4          0.606              1.942              3.283
 Vibration     5          0.636              1.846              2.174
 Vibration     6          0.659              1.773              1.774
 Vibration     7          0.666              1.752              1.686
 Vibration     8          0.700              1.651              1.352
 Vibration     9          0.744              1.527              1.067
 Vibration    10          0.778              1.440              0.912
 Vibration    11          0.924              1.100              0.508

 Normal termination of Gaussian 16 at Fri Mar 28 11:42:14 2025.
