 Gaussian 16, Revision A.03,
 Gaussian 16:  ES64L-G16RevA.03 25-Dec-2016

 --------------------------
 # freq 6-311++g(d,p) m062x
 --------------------------

 -------------------
 Title Card Required
 -------------------
 Symbolic Z-matrix:
 Charge =  0 Multiplicity = 2

                         Standard orientation:
 ---------------------------------------------------------------------
 Center     Atomic      Atomic             Coordinates (Angstroms)
 Number     Number       Type             X           Y           Z
 ---------------------------------------------------------------------
      1          6           0       -1.395783   -1.396292   -0.399482
      2          1           0       -1.995134   -2.269486   -0.511443
      3          6           0       -0.651164   -0.456334   -0.301156
      4          6           0       -0.030325    0.848556   -0.075667
      5          8           0       -0.709361    1.784332    0.242845
      6          8           0        1.283524    0.955002   -0.246425
      7          6           0        2.074136   -0.216885   -0.521237
      8          6           0        2.407716   -0.958082    0.757698
      9          1           0        1.546276   -0.853241   -1.235148
     10          1           0        2.969063    0.174664   -1.001729
     11          1           0        2.913850   -0.293387    1.458867
     12          1           0        1.504810   -1.348571    1.230714
     13          1           0        3.067489   -1.798995    0.535267
     14          8           0       -3.268346   -0.371149    0.299062
     15          1           0       -2.880364    0.517760    0.398680
 ---------------------------------------------------------------------

 SCF Done:  E(UM062X) =  -420.202322396     A.U. after   23 cycles

 The electronic state is 2-A.
 Alpha  occ. eigenvalues --  -19.69195 -19.66464 -19.63912 -10.71788 -10.62150
 Alpha  occ. eigenvalues --  -10.59158 -10.58132 -10.55168  -1.26297  -1.17697
 Alpha  occ. eigenvalues --   -1.12197  -0.90528  -0.89352  -0.78252  -0.74658
 Alpha  occ. eigenvalues --   -0.65205  -0.62468  -0.59384  -0.57820  -0.54300
 Alpha  occ. eigenvalues --   -0.53814  -0.50564  -0.49649  -0.48076  -0.46821
 Alpha  occ. eigenvalues --   -0.43302  -0.42271  -0.40184  -0.39340  -0.37934
 Alpha  occ. eigenvalues --   -0.35533
 Alpha virt. eigenvalues --   -0.02865  -0.00872   0.00551   0.01131   0.01816
 Alpha virt. eigenvalues --    0.03014   0.03443   0.04575   0.04833   0.05730
 Alpha virt. eigenvalues --    0.07014   0.07342   0.08576   0.08887   0.10176

  Beta  occ. eigenvalues --  -19.69194 -19.64908 -19.63893 -10.71798 -10.62145
  Beta  occ. eigenvalues --  -10.59169 -10.58016 -10.55167  -1.26276  -1.17646
  Beta  occ. eigenvalues --   -1.04679  -0.90024  -0.89326  -0.78196  -0.74564
  Beta  occ. eigenvalues --   -0.65127  -0.62246  -0.59286  -0.57778  -0.53906
  Beta  occ. eigenvalues --   -0.51201  -0.50400  -0.48115  -0.46800  -0.43294
  Beta  occ. eigenvalues --   -0.41105  -0.40174  -0.38790  -0.37349  -0.36849
  Beta virt. eigenvalues --   -0.08198  -0.02811  -0.00851   0.00666   0.01135
  Beta virt. eigenvalues --    0.02025   0.03147   0.03614   0.04685   0.05488
  Beta virt. eigenvalues --    0.05863   0.07216   0.07380   0.08801   0.09019

 Mulliken charges and spin densities:
               1          2
     1  C   -0.706907  -0.101179
     2  H    0.237705   0.010212
     3  C    0.818114   0.176339
     4  C   -0.141021  -0.001190
     5  O   -0.287841   0.006029
     6  O   -0.030890   0.003887
     7  C   -0.346202   0.001424
     8  C   -0.407563   0.003934
     9  H    0.164941  -0.001941
    10  H    0.212896   0.001256
    11  H    0.187429  -0.000593
    12  H    0.141819   0.000180
    13  H    0.159601   0.000676
    14  O   -0.252764   0.917940
    15  H    0.250681  -0.016974
 Sum of Mulliken charges =  -0.00000   1.00000

 Dipole moment (field-independent basis, Debye):
    X=              3.0496    Y=             -3.2329    Z=             -0.8898  Tot=              4.5325
 Quadrupole moment (field-independent basis, Debye-Ang):
   XX=            -48.0287   YY=            -49.2808   ZZ=            -47.4967
   XY=             -1.4345   XZ=              0.2843   YZ=              0.8651

  Exact polarizability:  89.617   2.209  72.711  -2.607   3.760  50.970
 Approx polarizability:  92.701   7.899  93.726  -3.823   7.021  59.400

 ******    2 imaginary frequencies (negative Signs) ******

                      1                      2                      3
                      A                      A                      A
 Frequencies --    -72.1903               -29.9525                80.5731
 Red. masses --      6.8009                 7.6711                 3.5936
 Frc consts  --      0.0209                 0.0041                 0.0137
 IR Inten    --      1.2471                 3.9997                 0.3069

                      4                      5                      6
                      A                      A                      A
 Frequencies --    108.5340               179.4903               228.3007
 Red. masses --      4.1175                 2.6585                 1.8384
 Frc consts  --      0.0286                 0.0505                 0.0565
 IR Inten    --      0.8702                 2.6465                 0.4856

                      7                      8                      9
                      A                      A                      A
 Frequencies --    241.2341               252.9083               302.9870
 Red. masses --      2.8603                 4.2705                 1.0613
 Frc consts  --      0.0981                 0.1609                 0.0574
 IR Inten    --      1.2550                 4.1593               113.3340

                     10                     11                     12
                      A                      A                      A
 Frequencies --    364.4522               413.0666               565.6323
 Red. masses --      3.1295                 3.7475                 4.7776
 Frc consts  --      0.2449                 0.3767                 0.9006
 IR Inten    --      3.3679                 3.8743                16.4446

                     13                     14                     15
                      A                      A                      A
 Frequencies --    635.4260               658.5032               760.9613
 Red. masses --      6.1608                 1.0706                 5.3262
 Frc consts  --      1.4656                 0.2735                 1.8172
 IR Inten    --      1.2743               219.4175                25.6572

                     16                     17                     18
                      A                      A                      A
 Frequencies --    768.7175               778.1933               785.4701
 Red. masses --      2.0236                 2.0330                 1.2944
 Frc consts  --      0.7046                 0.7254                 0.4705
 IR Inten    --     28.4856                21.4102                32.7208

                     19                     20                     21
                      A                      A                      A
 Frequencies --    814.3200               952.3694              1108.2681
 Red. masses --      1.1916                 2.2555                 3.2647
 Frc consts  --      0.4656                 1.2053                 2.3626
 IR Inten    --      4.4225                 7.6779                40.2269

                     22                     23                     24
                      A                      A                      A
 Frequencies --   1133.9388              1182.8227              1277.6680
 Red. masses --      2.7700                 1.8072                 2.5216
 Frc consts  --      2.0985                 1.4897                 2.4253
 IR Inten    --     57.2949                40.3801               380.7410

                     25                     26                     27
                      A                      A                      A
 Frequencies --   1352.5516              1407.6265              1433.7560
 Red. masses --      1.3385                 1.2954                 1.3893
 Frc consts  --      1.4428                 1.5123                 1.6827
 IR Inten    --    168.2144                39.8402                21.9964

                     28                     29                     30
                      A                      A                      A
 Frequencies --   1492.5638              1501.8896              1525.9365
 Red. masses --      1.0402                 1.0484                 1.1049
 Frc consts  --      1.3654                 1.3933                 1.5159
 IR Inten    --      3.8323                 2.6211                21.6100

                     31                     32                     33
                      A                      A                      A
 Frequencies --   1841.3384              2219.7042              3071.6933
 Red. masses --     12.9003                 5.8420                 1.0354
 Frc consts  --     25.7703                16.9589                 5.7561
 IR Inten    --    442.6416                65.6105                 5.9610

                     34                     35                     36
                      A                      A                      A
 Frequencies --   3093.5656              3143.5900              3152.4865
 Red. masses --      1.0646                 1.1032                 1.1010
 Frc consts  --      6.0027                 6.4232                 6.4467
 IR Inten    --     13.7402                 1.4038                12.5690

                     37                     38                     39
                      A                      A                      A
 Frequencies --   3166.5500              3486.8183              3742.6167
 Red. masses --      1.1051                 1.1653                 1.0677
 Frc consts  --      6.5289                 8.3476                 8.8113
 IR Inten    --     23.1574                74.3572                29.3276

 - Thermochemistry -
 -------------------
 Temperature   298.150 Kelvin.  Pressure   1.00000 Atm.
 Atom     1 has atomic number  6 and mass  12.00000

 Molecular mass:   115.03952 amu.
 Principal axes and moments of inertia in atomic units:
                           1         2         3
     Eigenvalues --   529.461021507.417661869.28892
           X            0.99969  -0.02354   0.00750
           Y            0.02361   0.99968  -0.00877
           Z           -0.00729   0.00895   0.99993
 This molecule is an asymmetric top.
 Rotational symmetry number  1.
 Warning -- assumption of classical behavior for rotation
           may cause significant error
 Rotational temperatures (Kelvin)      0.16359     0.05746     0.04634
 Rotational constants (GHZ):           3.40864     1.19724     0.96547
    2 imaginary frequencies ignored.
 Zero-point vibrational energy     294440.0 (Joules/Mol)
                                   70.37285 (Kcal/Mol)
 Warning -- explicit consideration of  10 degrees of freedom as
           vibrations may cause significant error
 Vibrational temperatures:    115.93   156.16   258.25   328.47   347.08
          (Kelvin)            363.88   435.93   524.37   594.31   813.82
                              914.24   947.44  1094.85  1106.01  1119.65
                             1130.12  1171.62  1370.25  1594.55  1631.48
                             1701.82  1838.28  1946.02  2025.26  2062.86
                             2147.47  2160.88  2195.48  2649.28  3193.66
                             4419.48  4450.95  4522.92  4535.72  4555.96
                             5016.75  5384.79

 Zero-point correction=                           0.112146 (Hartree/Particle)
 Thermal correction to Energy=                    0.120652
 Thermal correction to Enthalpy=                  0.121596
 Thermal correction to Gibbs Free Energy=         0.078169
 Sum of electronic and zero-point Energies=           -419.3501644
 Sum of electronic and thermal Energies=              -420.081670
 Sum of electronic and thermal Enthalpies=            -420.080726
 Sum of electronic and thermal Free Energies=         -420.124154

                     E (Thermal)             CV                S
                      KCal/Mol        Cal/Mol-Kelvin    Cal/Mol-Kelvin
 Total                   75.710             30.009             91.401
 Electronic               0.000              0.000              1.377
 Translational            0.889              2.981             40.136
 Rotational               0.889              2.981             28.791
 Vibrational             73.933             24.047             21.097
 Vibration     1          0.600              1.962              3.877
 Vibration     2          0.606              1.942              3.295
 Vibration     3          0.629              1.867              2.334
 Vibration     4          0.651              1.798              1.892
 Vibration     5          0.658              1.777              1.794
 Vibration     6          0.664              1.758              1.710
 Vibration     7          0.694              1.668              1.400
 Vibration     8          0.738              1.545              1.103
 Vibration     9          0.777              1.442              0.916
 Vibration    10          0.921              1.106              0.513

 Normal termination of Gaussian 16 at Fri Mar 28 10:17:49 2025.
