 Gaussian 16, Revision A.03,
 Gaussian 16:  ES64L-G16RevA.03 25-Dec-2016

 --------------------------
 # ccsd(t)/6-311++g(d,p) sp
 --------------------------

 -------------------
 Title Card Required
 -------------------
 Symbolic Z-matrix:
 Charge =  0 Multiplicity = 2

                         Standard orientation:
 ---------------------------------------------------------------------
 Center     Atomic      Atomic             Coordinates (Angstroms)
 Number     Number       Type             X           Y           Z
 ---------------------------------------------------------------------
      1          6           0       -1.361612   -1.421697   -0.407881
      2          1           0       -1.962824   -2.294117   -0.515708
      3          6           0       -0.646917   -0.461112   -0.301232
      4          6           0       -0.033671    0.847948   -0.078780
      5          8           0       -0.716105    1.782771    0.235412
      6          8           0        1.280181    0.958313   -0.248082
      7          6           0        2.075904   -0.211651   -0.517389
      8          6           0        2.409556   -0.947364    0.764710
      9          1           0        1.552321   -0.852197   -1.230499
     10          1           0        2.970451    0.182009   -0.996848
     11          1           0        2.912269   -0.278590    1.464464
     12          1           0        1.507223   -1.339372    1.237468
     13          1           0        3.072590   -1.786770    0.546284
     14          8           0       -3.291809   -0.364496    0.305679
     15          1           0       -2.889726    0.519594    0.394193
 ---------------------------------------------------------------------

 SCF Done:  E(UHF) =  -417.985558619     A.U. after   35 cycles
 E2 =    -0.1261123369D+01 EUMP2 =    -0.41924668198796D+03
 CCSD(T)= -0.41935139584D+03

 The electronic state is 2-A.
 Alpha  occ. eigenvalues --  -20.62105 -20.61881 -20.56788 -11.42430 -11.31309
 Alpha  occ. eigenvalues --  -11.27707 -11.27017 -11.24019  -1.48773  -1.39492
 Alpha  occ. eigenvalues --   -1.37343  -1.08599  -1.05846  -0.92243  -0.88128
 Alpha  occ. eigenvalues --   -0.76572  -0.73722  -0.70776  -0.67739  -0.66532
 Alpha  occ. eigenvalues --   -0.64767  -0.64077  -0.59420  -0.56790  -0.55623
 Alpha  occ. eigenvalues --   -0.54631  -0.51965  -0.49651  -0.47636  -0.43696
 Alpha  occ. eigenvalues --   -0.42672
 Alpha virt. eigenvalues --    0.03357   0.04517   0.05264   0.06495   0.07522
 Alpha virt. eigenvalues --    0.07847   0.08154   0.09322   0.11125   0.11643
 Alpha virt. eigenvalues --    0.12836   0.14418   0.14618   0.15188   0.16552

  Beta  occ. eigenvalues --  -20.62134 -20.57805 -20.56467 -11.42643 -11.31293
  Beta  occ. eigenvalues --  -11.28616 -11.25936 -11.24018  -1.48661  -1.38979
  Beta  occ. eigenvalues --   -1.21928  -1.07616  -1.05825  -0.92495  -0.88290
  Beta  occ. eigenvalues --   -0.76500  -0.73667  -0.70354  -0.67640  -0.63948
  Beta  occ. eigenvalues --   -0.62139  -0.59144  -0.56313  -0.55521  -0.51876
  Beta  occ. eigenvalues --   -0.49935  -0.48837  -0.47000  -0.43876  -0.43255
  Beta virt. eigenvalues --    0.03362   0.04465   0.05286   0.06330   0.07160
  Beta virt. eigenvalues --    0.07452   0.08016   0.09032   0.10394   0.11469
  Beta virt. eigenvalues --    0.11985   0.13043   0.14619   0.14840   0.15196

 Mulliken charges and spin densities:
               1          2
     1  C   -1.160398  -0.521318
     2  H    0.247052   0.040239
     3  C    1.259943   0.544621
     4  C   -0.018181  -0.087167
     5  O   -0.373632   0.063363
     6  O   -0.128504   0.003639
     7  C   -0.214077   0.002782
     8  C   -0.409067   0.003828
     9  H    0.142082  -0.002966
    10  H    0.186792   0.000656
    11  H    0.169654  -0.000729
    12  H    0.129761  -0.000172
    13  H    0.129214   0.000655
    14  O   -0.221773   0.987131
    15  H    0.261134  -0.034561
 Sum of Mulliken charges =  -0.00000   1.00000

 Dipole moment (field-independent basis, Debye):
    X=              2.7148    Y=             -3.5453    Z=             -0.8974  Tot=              4.5546
 Quadrupole moment (field-independent basis, Debye-Ang):
   XX=            -47.0150   YY=            -50.0577   ZZ=            -47.4625
   XY=             -1.2907   XZ=              0.0905   YZ=              0.8502

 PMP3-0=-419.2786422\MP4SDQ=-419.2982181\CCSD=-419.2986302\CCSD(T)=-419
 Normal termination of Gaussian 16 at Tue May 13 02:08:39 2025.
