 Gaussian 16, Revision A.03,
 Gaussian 16:  ES64L-G16RevA.03 25-Dec-2016

 --------------------------
 # ccsd(t)/6-311++g(d,p) sp
 --------------------------

 -------------------
 Title Card Required
 -------------------
 Symbolic Z-matrix:
 Charge =  0 Multiplicity = 2

                         Standard orientation:
 ---------------------------------------------------------------------
 Center     Atomic      Atomic             Coordinates (Angstroms)
 Number     Number       Type             X           Y           Z
 ---------------------------------------------------------------------
      1          6           0       -1.613860   -1.241873   -0.332907
      2          1           0       -2.000489   -2.221864   -0.540550
      3          6           0       -0.647377   -0.449751   -0.310491
      4          6           0       -0.018268    0.849463   -0.060257
      5          8           0       -0.683501    1.787210    0.279069
      6          8           0        1.296138    0.941466   -0.237956
      7          6           0        2.066334   -0.236551   -0.539311
      8          6           0        2.398203   -1.006061    0.723259
      9          1           0        1.524019   -0.852401   -1.261842
     10          1           0        2.963203    0.148888   -1.021184
     11          1           0        2.918666   -0.361318    1.432419
     12          1           0        1.493233   -1.391172    1.197281
     13          1           0        3.043993   -1.852369    0.481314
     14          8           0       -3.141411   -0.410679    0.261814
     15          1           0       -2.822615    0.494895    0.407386
 ---------------------------------------------------------------------

 SCF Done:  E(UHF) =  -417.974463554     A.U. after   33 cycles
 E2 =    -0.1252323299D+01 EUMP2 =    -0.41922678685256D+03
 CCSD(T)= -0.41935423051D+03

 The electronic state is 2-A.
 Alpha  occ. eigenvalues --  -20.62032 -20.60692 -20.57080 -11.41916 -11.31572
 Alpha  occ. eigenvalues --  -11.29508 -11.28537 -11.24268  -1.48885  -1.39922
 Alpha  occ. eigenvalues --   -1.36083  -1.09914  -1.06048  -0.92148  -0.88176
 Alpha  occ. eigenvalues --   -0.77157  -0.73194  -0.71375  -0.67910  -0.64524
 Alpha  occ. eigenvalues --   -0.64246  -0.63183  -0.59779  -0.57244  -0.55924
 Alpha  occ. eigenvalues --   -0.53726  -0.52226  -0.50935  -0.48093  -0.44286
 Alpha  occ. eigenvalues --   -0.42797
 Alpha virt. eigenvalues --    0.03223   0.04569   0.05093   0.06519   0.07547
 Alpha virt. eigenvalues --    0.07964   0.08174   0.09603   0.11057   0.11779
 Alpha virt. eigenvalues --    0.12771   0.14136   0.14594   0.15559   0.16182

  Beta  occ. eigenvalues --  -20.62122 -20.57622 -20.56250 -11.42400 -11.31923
  Beta  occ. eigenvalues --  -11.31523 -11.25575 -11.24263  -1.48588  -1.38609
  Beta  occ. eigenvalues --   -1.25750  -1.06591  -1.05967  -0.92595  -0.88335
  Beta  occ. eigenvalues --   -0.76713  -0.72969  -0.70090  -0.67652  -0.63828
  Beta  occ. eigenvalues --   -0.62001  -0.59102  -0.56199  -0.55646  -0.52104
  Beta  occ. eigenvalues --   -0.51807  -0.48821  -0.46426  -0.46213  -0.42497
  Beta virt. eigenvalues --    0.03176   0.04386   0.05022   0.05674   0.06794
  Beta virt. eigenvalues --    0.07375   0.08095   0.08690   0.09586   0.11109
  Beta virt. eigenvalues --    0.11774   0.12936   0.14212   0.14587   0.15284

 Mulliken charges and spin densities:
               1          2
     1  C   -0.757667  -1.172280
     2  H    0.236320   0.087682
     3  C    0.902124   1.386763
     4  C   -0.045106  -0.199417
     5  O   -0.360009   0.162037
     6  O   -0.137891   0.014110
     7  C   -0.213196  -0.001196
     8  C   -0.412532   0.013560
     9  H    0.146355  -0.002905
    10  H    0.194397   0.000569
    11  H    0.170377  -0.001438
    12  H    0.132742  -0.000588
    13  H    0.129011   0.000604
    14  O   -0.251331   0.740145
    15  H    0.266407  -0.027646
 Sum of Mulliken charges =  -0.00000   1.00000

 Dipole moment (field-independent basis, Debye):
    X=              3.1660    Y=             -3.6968    Z=             -1.1241  Tot=              4.9953
 Quadrupole moment (field-independent basis, Debye-Ang):
   XX=            -49.2445   YY=            -50.3257   ZZ=            -47.2438
   XY=             -1.7353   XZ=              0.2943   YZ=              0.8256

 49\PMP3-0=-419.2822151\MP4SDQ=-419.2873882\CCSD=-419.2984882\CCSD(T)=-
 Normal termination of Gaussian 16 at Mon May 12 21:09:45 2025.
