 Gaussian 16, Revision A.03,
 Gaussian 16:  ES64L-G16RevA.03 25-Dec-2016

 --------------------------
 # ccsd(t)/6-311++g(d,p) sp
 --------------------------

 -------------------
 Title Card Required
 -------------------
 Symbolic Z-matrix:
 Charge =  0 Multiplicity = 2

                         Standard orientation:
 ---------------------------------------------------------------------
 Center     Atomic      Atomic             Coordinates (Angstroms)
 Number     Number       Type             X           Y           Z
 ---------------------------------------------------------------------
      1          6           0       -1.344825   -1.434141   -0.411712
      2          1           0       -1.943407   -2.308606   -0.518865
      3          6           0       -0.644454   -0.463983   -0.301434
      4          6           0       -0.035516    0.847405   -0.080404
      5          8           0       -0.719929    1.781539    0.231579
      6          8           0        1.278320    0.960126   -0.248898
      7          6           0        2.076939   -0.208633   -0.515385
      8          6           0        2.410559   -0.941649    0.768279
      9          1           0        1.555811   -0.851329   -1.228265
     10          1           0        2.971285    0.186345   -0.994125
     11          1           0        2.911369   -0.270814    1.467426
     12          1           0        1.508523   -1.334581    1.240789
     13          1           0        3.075373   -1.780174    0.551879
     14          8           0       -3.303517   -0.361069    0.309002
     15          1           0       -2.894170    0.520389    0.391638
 ---------------------------------------------------------------------

 SCF Done:  E(UHF) =  -417.986554968     A.U. after   42 cycles
 E2 =    -0.1261567347D+01 EUMP2 =    -0.41924812231484D+03
 CCSD(T)= -0.41935195383D+03

 The electronic state is 2-A.
 Alpha  occ. eigenvalues --  -20.62123 -20.61885 -20.56797 -11.42472 -11.31314
 Alpha  occ. eigenvalues --  -11.27745 -11.27032 -11.24023  -1.48783  -1.39486
 Alpha  occ. eigenvalues --   -1.37309  -1.08574  -1.05852  -0.92274  -0.88154
 Alpha  occ. eigenvalues --   -0.76555  -0.73716  -0.70771  -0.67749  -0.66543
 Alpha  occ. eigenvalues --   -0.64753  -0.64085  -0.59418  -0.56779  -0.55624
 Alpha  occ. eigenvalues --   -0.54605  -0.51970  -0.49616  -0.47629  -0.43699
 Alpha  occ. eigenvalues --   -0.42738
 Alpha virt. eigenvalues --    0.03355   0.04513   0.05261   0.06492   0.07505
 Alpha virt. eigenvalues --    0.07829   0.08159   0.09302   0.11122   0.11629
 Alpha virt. eigenvalues --    0.12832   0.14413   0.14590   0.15177   0.16539

  Beta  occ. eigenvalues --  -20.62149 -20.57801 -20.56503 -11.42667 -11.31299
  Beta  occ. eigenvalues --  -11.28576 -11.26041 -11.24022  -1.48679  -1.39015
  Beta  occ. eigenvalues --   -1.21817  -1.07664  -1.05834  -0.92507  -0.88303
  Beta  occ. eigenvalues --   -0.76493  -0.73679  -0.70384  -0.67655  -0.63974
  Beta  occ. eigenvalues --   -0.62118  -0.59162  -0.56338  -0.55532  -0.51888
  Beta  occ. eigenvalues --   -0.49856  -0.48879  -0.47042  -0.43855  -0.43289
  Beta virt. eigenvalues --    0.03359   0.04468   0.05283   0.06343   0.07163
  Beta virt. eigenvalues --    0.07437   0.08001   0.09034   0.10394   0.11463
  Beta virt. eigenvalues --    0.11997   0.13064   0.14603   0.14849   0.15173

 Mulliken charges and spin densities:
               1          2
     1  C   -1.205641  -0.482060
     2  H    0.246453   0.036996
     3  C    1.307491   0.503198
     4  C   -0.018639  -0.080204
     5  O   -0.372770   0.058211
     6  O   -0.128050   0.003272
     7  C   -0.214605   0.002826
     8  C   -0.408922   0.003486
     9  H    0.141754  -0.002806
    10  H    0.186688   0.000649
    11  H    0.169740  -0.000684
    12  H    0.129500  -0.000130
    13  H    0.129284   0.000619
    14  O   -0.222586   0.991428
    15  H    0.260301  -0.034800
 Sum of Mulliken charges =  -0.00000   1.00000

 Dipole moment (field-independent basis, Debye):
    X=              2.7479    Y=             -3.5453    Z=             -0.8982  Tot=              4.5746
 Quadrupole moment (field-independent basis, Debye-Ang):
   XX=            -47.1524   YY=            -49.9885   ZZ=            -47.4714
   XY=             -1.2996   XZ=              0.1200   YZ=              0.8750

 PMP3-0=-419.2793414\MP4SDQ=-419.2992762\CCSD=-419.2992771\CCSD(T)=-419
 Normal termination of Gaussian 16 at Tue May 13 07:47:20 2025.
