 Gaussian 16, Revision A.03,
 Gaussian 16:  ES64L-G16RevA.03 25-Dec-2016

 --------------------------
 # ccsd(t)/6-311++g(d,p) sp
 --------------------------

 -------------------
 Title Card Required
 -------------------
 Symbolic Z-matrix:
 Charge =  0 Multiplicity = 2

                         Standard orientation:
 ---------------------------------------------------------------------
 Center     Atomic      Atomic             Coordinates (Angstroms)
 Number     Number       Type             X           Y           Z
 ---------------------------------------------------------------------
      1          6           0       -1.502474   -1.317736   -0.368928
      2          1           0       -2.031138   -2.232267   -0.517892
      3          6           0       -0.656333   -0.449532   -0.303598
      4          6           0       -0.022583    0.849065   -0.067428
      5          8           0       -0.694151    1.785769    0.262526
      6          8           0        1.291131    0.947206   -0.241833
      7          6           0        2.069960   -0.228380   -0.531278
      8          6           0        2.402868   -0.984961    0.738773
      9          1           0        1.533028   -0.853425   -1.249165
     10          1           0        2.965867    0.159289   -1.013117
     11          1           0        2.917258   -0.331265    1.444215
     12          1           0        1.498740   -1.372358    1.212260
     13          1           0        3.054710   -1.829062    0.505411
     14          8           0       -3.200857   -0.390757    0.279900
     15          1           0       -2.856085    0.510607    0.408297
 ---------------------------------------------------------------------

 SCF Done:  E(UHF) =  -417.975321756     A.U. after   35 cycles
 E2 =    -0.1254376612D+01 EUMP2 =    -0.41922969836816D+03
 CCSD(T)= -0.41934695600D+03

 The electronic state is 2-A.
 Alpha  occ. eigenvalues --  -20.61986 -20.61592 -20.56795 -11.42072 -11.31346
 Alpha  occ. eigenvalues --  -11.27785 -11.27255 -11.24059  -1.48743  -1.39632
 Alpha  occ. eigenvalues --   -1.37266  -1.09077  -1.05855  -0.92033  -0.87938
 Alpha  occ. eigenvalues --   -0.76822  -0.73594  -0.70953  -0.67721  -0.65871
 Alpha  occ. eigenvalues --   -0.64493  -0.64079  -0.59514  -0.56958  -0.55694
 Alpha  occ. eigenvalues --   -0.54562  -0.52002  -0.50192  -0.47786  -0.43860
 Alpha  occ. eigenvalues --   -0.42375
 Alpha virt. eigenvalues --    0.03328   0.04548   0.05232   0.06524   0.07587
 Alpha virt. eigenvalues --    0.07990   0.08141   0.09535   0.11125   0.11751
 Alpha virt. eigenvalues --    0.12834   0.14357   0.14748   0.15393   0.16455

  Beta  occ. eigenvalues --  -20.62044 -20.57767 -20.56204 -11.42447 -11.31314
  Beta  occ. eigenvalues --  -11.29549 -11.25207 -11.24056  -1.48538  -1.38689
  Beta  occ. eigenvalues --   -1.23359  -1.07186  -1.05812  -0.92430  -0.88192
  Beta  occ. eigenvalues --   -0.76588  -0.73411  -0.70124  -0.67557  -0.63773
  Beta  occ. eigenvalues --   -0.62191  -0.59039  -0.56141  -0.55493  -0.51839
  Beta  occ. eigenvalues --   -0.50804  -0.48488  -0.46627  -0.44559  -0.42969
  Beta virt. eigenvalues --    0.03329   0.04398   0.05242   0.06119   0.07043
  Beta virt. eigenvalues --    0.07494   0.08163   0.08950   0.10111   0.11320
  Beta virt. eigenvalues --    0.11844   0.12923   0.14520   0.14769   0.15393

 Mulliken charges and spin densities:
               1          2
     1  C   -0.835399  -0.913946
     2  H    0.250398   0.073104
     3  C    0.933928   0.983871
     4  C   -0.030014  -0.157195
     5  O   -0.372511   0.115345
     6  O   -0.135243   0.009048
     7  C   -0.213179   0.001075
     8  C   -0.410538   0.008529
     9  H    0.145759  -0.003967
    10  H    0.189653   0.000593
    11  H    0.169341  -0.001183
    12  H    0.131587  -0.000824
    13  H    0.128676   0.000887
    14  O   -0.219648   0.917094
    15  H    0.267191  -0.032428
 Sum of Mulliken charges =  -0.00000   1.00000

 Dipole moment (field-independent basis, Debye):
    X=              2.6884    Y=             -3.5938    Z=             -0.9558  Tot=              4.5887
 Quadrupole moment (field-independent basis, Debye-Ang):
   XX=            -46.9701   YY=            -50.3197   ZZ=            -47.3475
   XY=             -1.3876   XZ=              0.0096   YZ=              0.7655

 MP3-0=-419.2736743\MP4SDQ=-419.2865734\CCSD=-419.2928091\CCSD(T)=-419.
 Normal termination of Gaussian 16 at Tue May 13 04:35:59 2025.
