 Gaussian 16, Revision A.03,
 Gaussian 16:  ES64L-G16RevA.03 25-Dec-2016

 --------------------------
 # freq 6-311++g(d,p) m062x
 --------------------------

 -------------------
 Title Card Required
 -------------------
 Symbolic Z-matrix:
 Charge =  0 Multiplicity = 2

                         Standard orientation:
 ---------------------------------------------------------------------
 Center     Atomic      Atomic             Coordinates (Angstroms)
 Number     Number       Type             X           Y           Z
 ---------------------------------------------------------------------
      1          6           0       -1.650213   -1.216857   -0.320350
      2          1           0       -1.986603   -2.213867   -0.547627
      3          6           0       -0.642877   -0.451519   -0.313493
      4          6           0       -0.017865    0.849050   -0.057990
      5          8           0       -0.680798    1.787793    0.284277
      6          8           0        1.297346    0.939951   -0.236681
      7          6           0        2.065285   -0.238543   -0.541716
      8          6           0        2.396887   -1.012072    0.718528
      9          1           0        1.521896   -0.851700   -1.265727
     10          1           0        2.962563    0.146545   -1.023196
     11          1           0        2.919039   -0.370008    1.428884
     12          1           0        1.491674   -1.396659    1.192551
     13          1           0        3.041037   -1.858894    0.473963
     14          8           0       -3.122143   -0.418283    0.255464
     15          1           0       -2.812138    0.488544    0.406790
 ---------------------------------------------------------------------

 SCF Done:  E(UM062X) =  -420.213959674     A.U. after   20 cycles

 The electronic state is 2-A.
 Alpha  occ. eigenvalues --  -19.69379 -19.64393 -19.64324 -10.71903 -10.64299
 Alpha  occ. eigenvalues --  -10.62533 -10.60303 -10.55513  -1.26576  -1.18114
 Alpha  occ. eigenvalues --   -1.10518  -0.91902  -0.89683  -0.78799  -0.75428
 Alpha  occ. eigenvalues --   -0.65960  -0.62458  -0.59868  -0.58166  -0.54304
 Alpha  occ. eigenvalues --   -0.52796  -0.50884  -0.49496  -0.48362  -0.47124
 Alpha  occ. eigenvalues --   -0.43699  -0.42705  -0.40569  -0.39372  -0.36368
 Alpha  occ. eigenvalues --   -0.32137
 Alpha virt. eigenvalues --   -0.03809  -0.01158   0.00445   0.00890   0.01765
 Alpha virt. eigenvalues --    0.02814   0.03533   0.04384   0.05471   0.05874
 Alpha virt. eigenvalues --    0.07142   0.07424   0.08354   0.08794   0.09995

  Beta  occ. eigenvalues --  -19.69387 -19.64165 -19.63735 -10.71942 -10.64457
  Beta  occ. eigenvalues --  -10.62509 -10.59699 -10.55510  -1.26440  -1.17759
  Beta  occ. eigenvalues --   -1.08123  -0.89774  -0.89424  -0.78560  -0.75004
  Beta  occ. eigenvalues --   -0.65627  -0.61988  -0.59258  -0.57946  -0.54048
  Beta  occ. eigenvalues --   -0.51243  -0.50615  -0.48343  -0.47080  -0.43829
  Beta  occ. eigenvalues --   -0.43439  -0.41988  -0.39198  -0.38522  -0.34730
  Beta virt. eigenvalues --   -0.09669  -0.03564  -0.01164   0.00514   0.00892
  Beta virt. eigenvalues --    0.02035   0.03035   0.03901   0.04468   0.05576
  Beta virt. eigenvalues --    0.06197   0.07142   0.08101   0.08556   0.09097

 Mulliken charges and spin densities:
               1          2
     1  C   -0.554337  -0.294528
     2  H    0.224676   0.027587
     3  C    0.686286   0.842543
     4  C   -0.109456  -0.015647
     5  O   -0.275171   0.052317
     6  O   -0.028639   0.014518
     7  C   -0.352197   0.003679
     8  C   -0.415798   0.013909
     9  H    0.174696  -0.000114
    10  H    0.219909   0.003474
    11  H    0.189397  -0.001368
    12  H    0.146698   0.002662
    13  H    0.158351   0.000185
    14  O   -0.312887   0.359817
    15  H    0.248472  -0.009034
 Sum of Mulliken charges =  -0.00000   1.00000

 Dipole moment (field-independent basis, Debye):
    X=              3.8331    Y=             -3.4635    Z=             -1.1946  Tot=              5.3024
 Quadrupole moment (field-independent basis, Debye-Ang):
   XX=            -51.8430   YY=            -49.1706   ZZ=            -47.4051
   XY=             -1.7996   XZ=              0.7735   YZ=              0.9996

  Exact polarizability:  99.861   0.915  71.436  -5.133   4.050  51.484
 Approx polarizability: 108.508   2.812  88.912  -8.665   7.415  61.399

 ******    1 imaginary frequencies (negative Signs) ******

                      1                      2                      3
                      A                      A                      A
 Frequencies --   -685.1798                73.2295               104.4032
 Red. masses --     11.6508                 3.5863                 4.3733
 Frc consts  --      3.2227                 0.0113                 0.0281
 IR Inten    --     27.0159                 0.0384                 0.4135

                      4                      5                      6
                      A                      A                      A
 Frequencies --    133.5825               161.4998               210.5702
 Red. masses --      5.1565                 7.2190                 1.4117
 Frc consts  --      0.0542                 0.1109                 0.0369
 IR Inten    --      2.2067                 1.3598                 0.5560

                      7                      8                      9
                      A                      A                      A
 Frequencies --    267.1268               314.9524               371.7983
 Red. masses --      2.0756                 2.2597                 1.2549
 Frc consts  --      0.0873                 0.1321                 0.1022
 IR Inten    --      2.5001                 2.8354               109.6053

                     10                     11                     12
                      A                      A                      A
 Frequencies --    398.1253               430.3199               571.3537
 Red. masses --      3.5070                 4.3303                 4.9096
 Frc consts  --      0.3275                 0.4724                 0.9443
 IR Inten    --      4.8319                 9.1750                19.5982

                     13                     14                     15
                      A                      A                      A
 Frequencies --    626.7814               746.6863               767.3743
 Red. masses --      7.0298                 7.8201                 4.3310
 Frc consts  --      1.6271                 2.5688                 1.5026
 IR Inten    --      3.1806                14.0931                 2.3179

                     16                     17                     18
                      A                      A                      A
 Frequencies --    801.5887               809.6742               949.9800
 Red. masses --      1.4764                 1.1896                 2.2303
 Frc consts  --      0.5589                 0.4595                 1.1859
 IR Inten    --     44.5294                 4.1207                 6.5481

                     19                     20                     21
                      A                      A                      A
 Frequencies --    971.5908              1104.0868              1129.1218
 Red. masses --      1.1057                 3.0284                 2.0427
 Frc consts  --      0.6150                 2.1751                 1.5344
 IR Inten    --     68.5779                46.2783                27.3531

                     22                     23                     24
                      A                      A                      A
 Frequencies --   1149.6634              1181.7852              1272.0486
 Red. masses --      1.4622                 1.6591                 2.5272
 Frc consts  --      1.1387                 1.3652                 2.4093
 IR Inten    --    161.9884                 9.4132               349.4281

                     25                     26                     27
                      A                      A                      A
 Frequencies --   1347.9504              1406.1318              1431.8867
 Red. masses --      1.3120                 1.2865                 1.3823
 Frc consts  --      1.4045                 1.4987                 1.6699
 IR Inten    --    153.1826                32.6686                19.6956

                     28                     29                     30
                      A                      A                      A
 Frequencies --   1492.1102              1500.7214              1522.9648
 Red. masses --      1.0398                 1.0492                 1.1036
 Frc consts  --      1.3639                 1.3922                 1.5081
 IR Inten    --      4.3735                 2.1442                21.1986

                     31                     32                     33
                      A                      A                      A
 Frequencies --   1826.9793              1861.0851              3071.3819
 Red. masses --     11.1754                 8.0708                 1.0357
 Frc consts  --     21.9776                16.4702                 5.7562
 IR Inten    --    300.2402               194.0743                 5.1924

                     34                     35                     36
                      A                      A                      A
 Frequencies --   3078.6748              3141.1333              3153.4233
 Red. masses --      1.0672                 1.1016                 1.1005
 Frc consts  --      5.9598                 6.4042                 6.4475
 IR Inten    --     15.0342                 1.0719                15.0112

                     37                     38                     39
                      A                      A                      A
 Frequencies --   3164.1811              3326.5845              3797.4401
 Red. masses --      1.1039                 1.1168                 1.0682
 Frc consts  --      6.5117                 7.2817                 9.0755
 IR Inten    --     24.1470                19.1797                50.7819

 - Thermochemistry -
 -------------------
 Temperature   298.150 Kelvin.  Pressure   1.00000 Atm.
 Atom     1 has atomic number  6 and mass  12.00000

 Molecular mass:   115.03952 amu.
 Principal axes and moments of inertia in atomic units:
                           1         2         3
     Eigenvalues --   511.226241475.869141828.32117
           X            0.99965  -0.02572   0.00665
           Y            0.02577   0.99963  -0.00819
           Z           -0.00643   0.00836   0.99994
 This molecule is an asymmetric top.
 Rotational symmetry number  1.
 Warning -- assumption of classical behavior for rotation
           may cause significant error
 Rotational temperatures (Kelvin)      0.16942     0.05869     0.04737
 Rotational constants (GHZ):           3.53022     1.22283     0.98710
    1 imaginary frequencies ignored.
 Zero-point vibrational energy     297092.5 (Joules/Mol)
                                   71.00682 (Kcal/Mol)
 Warning -- explicit consideration of  11 degrees of freedom as
           vibrations may cause significant error
 Vibrational temperatures:    105.36   150.21   192.20   232.36   302.96
          (Kelvin)            384.34   453.15   534.93   572.81   619.13
                              822.05   901.80  1074.32  1104.08  1153.31
                             1164.94  1366.81  1397.90  1588.53  1624.55
                             1654.11  1700.33  1830.19  1939.40  2023.11
                             2060.17  2146.81  2159.20  2191.21  2628.62
                             2677.69  4419.03  4429.53  4519.39  4537.07
                             4552.55  4786.21  5463.67

 Zero-point correction=                           0.113157 (Hartree/Particle)
 Thermal correction to Energy=                    0.122020
 Thermal correction to Enthalpy=                  0.122964
 Thermal correction to Gibbs Free Energy=         0.078617
 Sum of electronic and zero-point Energies=           -419.3615657
 Sum of electronic and thermal Energies=              -420.091939
 Sum of electronic and thermal Enthalpies=            -420.090995
 Sum of electronic and thermal Free Energies=         -420.135343

                     E (Thermal)             CV                S
                      KCal/Mol        Cal/Mol-Kelvin    Cal/Mol-Kelvin
 Total                   76.569             30.681             93.338
 Electronic               0.000              0.000              1.377
 Translational            0.889              2.981             40.136
 Rotational               0.889              2.981             28.713
 Vibrational             74.791             24.720             23.112
 Vibration     1          0.599              1.967              4.065
 Vibration     2          0.605              1.946              3.370
 Vibration     3          0.613              1.920              2.894
 Vibration     4          0.622              1.890              2.532
 Vibration     5          0.643              1.825              2.039
 Vibration     6          0.672              1.733              1.615
 Vibration     7          0.702              1.645              1.336
 Vibration     8          0.744              1.530              1.072
 Vibration     9          0.764              1.474              0.970
 Vibration    10          0.792              1.404              0.858
 Vibration    11          0.928              1.093              0.502

 Normal termination of Gaussian 16 at Fri Mar 28 13:06:02 2025.
