 Gaussian 16, Revision A.03,
 Gaussian 16:  ES64L-G16RevA.03 25-Dec-2016

 --------------------------
 # freq 6-311++g(d,p) m062x
 --------------------------

 -------------------
 Title Card Required
 -------------------
 Symbolic Z-matrix:
 Charge =  0 Multiplicity = 2

                         Standard orientation:
 ---------------------------------------------------------------------
 Center     Atomic      Atomic             Coordinates (Angstroms)
 Number     Number       Type             X           Y           Z
 ---------------------------------------------------------------------
      1          6           0       -1.667954   -1.204194   -0.314040
      2          1           0       -1.980515   -2.208281   -0.550486
      3          6           0       -0.640855   -0.452751   -0.315038
      4          6           0       -0.017804    0.848686   -0.056876
      5          8           0       -0.679580    1.788046    0.286894
      6          8           0        1.297875    0.939266   -0.236022
      7          6           0        2.064799   -0.239394   -0.542905
      8          6           0        2.396295   -1.014936    0.716171
      9          1           0        1.520956   -0.851238   -1.267644
     10          1           0        2.962297    0.145610   -1.024100
     11          1           0        2.919243   -0.374192    1.427142
     12          1           0        1.490962   -1.399319    1.190134
     13          1           0        3.039685   -1.861968    0.470296
     14          8           0       -3.112315   -0.422363    0.252144
     15          1           0       -2.807354    0.485332    0.406642
 ---------------------------------------------------------------------

 SCF Done:  E(UM062X) =  -420.218821385     A.U. after   20 cycles

 The electronic state is 2-A.
 Alpha  occ. eigenvalues --  -19.69297 -19.64570 -19.64255 -10.71793 -10.64555
 Alpha  occ. eigenvalues --  -10.62477 -10.60289 -10.55474  -1.26484  -1.18034
 Alpha  occ. eigenvalues --   -1.10849  -0.91800  -0.89624  -0.78741  -0.75386
 Alpha  occ. eigenvalues --   -0.65934  -0.62360  -0.59825  -0.58091  -0.54248
 Alpha  occ. eigenvalues --   -0.53072  -0.50820  -0.49561  -0.48329  -0.47070
 Alpha  occ. eigenvalues --   -0.43680  -0.42913  -0.40576  -0.39323  -0.36210
 Alpha  occ. eigenvalues --   -0.32092
 Alpha virt. eigenvalues --   -0.03814  -0.01146   0.00463   0.00902   0.01771
 Alpha virt. eigenvalues --    0.02839   0.03566   0.04388   0.05521   0.06010
 Alpha virt. eigenvalues --    0.07236   0.07586   0.08343   0.08835   0.09990

  Beta  occ. eigenvalues --  -19.69306 -19.64089 -19.64009 -10.71830 -10.64708
  Beta  occ. eigenvalues --  -10.62451 -10.59645 -10.55470  -1.26341  -1.17662
  Beta  occ. eigenvalues --   -1.08804  -0.89678  -0.89258  -0.78487  -0.74930
  Beta  occ. eigenvalues --   -0.65583  -0.61867  -0.59174  -0.57860  -0.53976
  Beta  occ. eigenvalues --   -0.51628  -0.50545  -0.48281  -0.47026  -0.44348
  Beta  occ. eigenvalues --   -0.43464  -0.42300  -0.39167  -0.38516  -0.34644
  Beta virt. eigenvalues --   -0.09376  -0.03532  -0.01156   0.00519   0.00906
  Beta virt. eigenvalues --    0.02033   0.03044   0.03917   0.04469   0.05593
  Beta virt. eigenvalues --    0.06233   0.07186   0.08188   0.08546   0.09140

 Mulliken charges and spin densities:
               1          2
     1  C   -0.545705  -0.279672
     2  H    0.221320   0.027679
     3  C    0.671610   0.877006
     4  C   -0.103882  -0.015794
     5  O   -0.276264   0.054814
     6  O   -0.029083   0.014754
     7  C   -0.351407   0.004385
     8  C   -0.416844   0.013682
     9  H    0.175410   0.000649
    10  H    0.219777   0.003634
    11  H    0.189310  -0.001343
    12  H    0.147382   0.003172
    13  H    0.157981  -0.000017
    14  O   -0.309827   0.305073
    15  H    0.250222  -0.008022
 Sum of Mulliken charges =  -0.00000   1.00000

 Dipole moment (field-independent basis, Debye):
    X=              3.7480    Y=             -3.4635    Z=             -1.1850  Tot=              5.2390
 Quadrupole moment (field-independent basis, Debye-Ang):
   XX=            -51.6815   YY=            -49.3009   ZZ=            -47.4119
   XY=             -1.8508   XZ=              0.7348   YZ=              0.9786

  Exact polarizability:  98.381   1.149  71.376  -4.776   4.010  51.418
 Approx polarizability: 107.091   2.817  88.608  -8.336   7.351  61.401

 ******    1 imaginary frequencies (negative Signs) ******

                      1                      2                      3
                      A                      A                      A
 Frequencies --   -606.3877                74.2346               105.0793
 Red. masses --     11.8213                 3.5547                 4.3436
 Frc consts  --      2.5610                 0.0115                 0.0283
 IR Inten    --     56.8080                 0.0426                 0.3825

                      4                      5                      6
                      A                      A                      A
 Frequencies --    137.7060               165.1030               211.4346
 Red. masses --      5.1201                 7.3921                 1.3890
 Frc consts  --      0.0572                 0.1187                 0.0366
 IR Inten    --      2.9674                 1.1517                 0.5051

                      7                      8                      9
                      A                      A                      A
 Frequencies --    269.9435               325.3386               387.6554
 Red. masses --      2.1241                 2.1097                 1.3116
 Frc consts  --      0.0912                 0.1316                 0.1161
 IR Inten    --      2.3087                 4.0929               109.9269

                     10                     11                     12
                      A                      A                      A
 Frequencies --    400.3718               435.2638               572.2679
 Red. masses --      3.3646                 4.4180                 4.8234
 Frc consts  --      0.3178                 0.4931                 0.9307
 IR Inten    --      3.4659                 9.8450                19.2391

                     13                     14                     15
                      A                      A                      A
 Frequencies --    634.1696               746.5438               768.1361
 Red. masses --      6.9381                 8.2789                 4.3280
 Frc consts  --      1.6440                 2.7185                 1.5046
 IR Inten    --      3.7510                15.5759                 2.6771

                     16                     17                     18
                      A                      A                      A
 Frequencies --    809.3604               810.2476               949.8507
 Red. masses --      1.2001                 1.4575                 2.2344
 Frc consts  --      0.4632                 0.5638                 1.1877
 IR Inten    --      4.7046                41.4380                 6.1882

                     19                     20                     21
                      A                      A                      A
 Frequencies --   1001.8227              1104.8089              1130.4843
 Red. masses --      1.1051                 3.2191                 2.3875
 Frc consts  --      0.6535                 2.3150                 1.7977
 IR Inten    --     55.2200                42.5017                34.7183

                     22                     23                     24
                      A                      A                      A
 Frequencies --   1167.3447              1191.1327              1272.8702
 Red. masses --      1.6667                 1.3276                 2.4283
 Frc consts  --      1.3381                 1.1098                 2.3180
 IR Inten    --    168.8556                26.8639               315.3021

                     25                     26                     27
                      A                      A                      A
 Frequencies --   1347.3816              1405.9275              1431.6933
 Red. masses --      1.3084                 1.2855                 1.3820
 Frc consts  --      1.3995                 1.4971                 1.6690
 IR Inten    --    147.9108                30.9877                19.4151

                     28                     29                     30
                      A                      A                      A
 Frequencies --   1492.0292              1500.7154              1522.5216
 Red. masses --      1.0398                 1.0493                 1.1036
 Frc consts  --      1.3638                 1.3923                 1.5072
 IR Inten    --      4.4187                 2.0661                20.1266

                     31                     32                     33
                      A                      A                      A
 Frequencies --   1818.3596              1844.0071              3071.3349
 Red. masses --      9.3248                 9.8084                 1.0357
 Frc consts  --     18.1655                19.6505                 5.7560
 IR Inten    --    231.9754               284.6692                 5.2675

                     34                     35                     36
                      A                      A                      A
 Frequencies --   3078.5076              3140.9480              3153.2699
 Red. masses --      1.0672                 1.1016                 1.1004
 Frc consts  --      5.9592                 6.4032                 6.4468
 IR Inten    --     15.0999                 1.0398                15.3236

                     37                     38                     39
                      A                      A                      A
 Frequencies --   3163.9642              3308.8701              3799.9126
 Red. masses --      1.1039                 1.1133                 1.0681
 Frc consts  --      6.5110                 7.1815                 9.0869
 IR Inten    --     23.9818                14.9298                50.6956

 - Thermochemistry -
 -------------------
 Temperature   298.150 Kelvin.  Pressure   1.00000 Atm.
 Atom     1 has atomic number  6 and mass  12.00000

 Molecular mass:   115.03952 amu.
 Principal axes and moments of inertia in atomic units:
                           1         2         3
     Eigenvalues --   510.070261474.059051825.89126
           X            0.99964  -0.02587   0.00660
           Y            0.02593   0.99963  -0.00816
           Z           -0.00638   0.00833   0.99994
 This molecule is an asymmetric top.
 Rotational symmetry number  1.
 Warning -- assumption of classical behavior for rotation
           may cause significant error
 Rotational temperatures (Kelvin)      0.16981     0.05876     0.04744
 Rotational constants (GHZ):           3.53822     1.22433     0.98842
    1 imaginary frequencies ignored.
 Zero-point vibrational energy     297574.7 (Joules/Mol)
                                   71.12207 (Kcal/Mol)
 Warning -- explicit consideration of  11 degrees of freedom as
           vibrations may cause significant error
 Vibrational temperatures:    106.81   151.19   198.13   237.55   304.21
          (Kelvin)            388.39   468.09   557.75   576.05   626.25
                              823.37   912.43  1074.11  1105.18  1164.49
                             1165.77  1366.62  1441.40  1589.57  1626.51
                             1679.55  1713.77  1831.38  1938.58  2022.82
                             2059.89  2146.70  2159.19  2190.57  2616.21
                             2653.11  4418.97  4429.29  4519.12  4536.85
                             4552.24  4760.73  5467.23

 Zero-point correction=                           0.113340 (Hartree/Particle)
 Thermal correction to Energy=                    0.122133
 Thermal correction to Enthalpy=                  0.123078
 Thermal correction to Gibbs Free Energy=         0.078895
 Sum of electronic and zero-point Energies=           -420.105481
 Sum of electronic and thermal Energies=              -420.096688
 Sum of electronic and thermal Enthalpies=            -420.095744
 Sum of electronic and thermal Free Energies=         -420.139926

                     E (Thermal)             CV                S
                      KCal/Mol        Cal/Mol-Kelvin    Cal/Mol-Kelvin
 Total                   76.640             30.511             92.990
 Electronic               0.000              0.000              1.377
 Translational            0.889              2.981             40.136
 Rotational               0.889              2.981             28.708
 Vibrational             74.862             24.550             22.769
 Vibration     1          0.599              1.966              4.038
 Vibration     2          0.605              1.945              3.358
 Vibration     3          0.614              1.916              2.836
 Vibration     4          0.624              1.885              2.491
 Vibration     5          0.643              1.823              2.031
 Vibration     6          0.674              1.729              1.597
 Vibration     7          0.709              1.625              1.283
 Vibration     8          0.756              1.497              1.009
 Vibration     9          0.766              1.469              0.961
 Vibration    10          0.796              1.393              0.842
 Vibration    11          0.928              1.091              0.500

 Normal termination of Gaussian 16 at Fri Mar 28 13:17:54 2025.
