 Gaussian 16, Revision A.03,
 Gaussian 16:  ES64L-G16RevA.03 25-Dec-2016

 --------------------------
 # ccsd(t)/6-311++g(d,p) sp
 --------------------------

 -------------------
 Title Card Required
 -------------------
 Symbolic Z-matrix:
 Charge =  0 Multiplicity = 2

                         Standard orientation:
 ---------------------------------------------------------------------
 Center     Atomic      Atomic             Coordinates (Angstroms)
 Number     Number       Type             X           Y           Z
 ---------------------------------------------------------------------
      1          6           0       -1.395783   -1.396292   -0.399482
      2          1           0       -1.995134   -2.269486   -0.511443
      3          6           0       -0.651164   -0.456334   -0.301156
      4          6           0       -0.030325    0.848556   -0.075667
      5          8           0       -0.709361    1.784332    0.242845
      6          8           0        1.283524    0.955002   -0.246425
      7          6           0        2.074136   -0.216885   -0.521237
      8          6           0        2.407716   -0.958082    0.757698
      9          1           0        1.546276   -0.853241   -1.235148
     10          1           0        2.969063    0.174664   -1.001729
     11          1           0        2.913850   -0.293387    1.458867
     12          1           0        1.504810   -1.348571    1.230714
     13          1           0        3.067489   -1.798995    0.535267
     14          8           0       -3.268346   -0.371149    0.299062
     15          1           0       -2.880364    0.517760    0.398680
 ---------------------------------------------------------------------

 SCF Done:  E(UHF) =  -417.983304850     A.U. after   36 cycles
 E2 =    -0.1259998142D+01 EUMP2 =    -0.41924330299202D+03
 CCSD(T)= -0.41935016440D+03

 The electronic state is 2-A.
 Alpha  occ. eigenvalues --  -20.62070 -20.61856 -20.56772 -11.42343 -11.31303
 Alpha  occ. eigenvalues --  -11.27646 -11.26998 -11.24015  -1.48755  -1.39510
 Alpha  occ. eigenvalues --   -1.37394  -1.08668  -1.05834  -0.92182  -0.88075
 Alpha  occ. eigenvalues --   -0.76616  -0.73730  -0.70795  -0.67721  -0.66476
 Alpha  occ. eigenvalues --   -0.64766  -0.64065  -0.59428  -0.56818  -0.55624
 Alpha  occ. eigenvalues --   -0.54669  -0.51959  -0.49737  -0.47656  -0.43703
 Alpha  occ. eigenvalues --   -0.42547
 Alpha virt. eigenvalues --    0.03357   0.04525   0.05266   0.06501   0.07551
 Alpha virt. eigenvalues --    0.07886   0.08146   0.09366   0.11130   0.11673
 Alpha virt. eigenvalues --    0.12842   0.14420   0.14677   0.15214   0.16571

  Beta  occ. eigenvalues --  -20.62105 -20.57806 -20.56393 -11.42591 -11.31285
  Beta  occ. eigenvalues --  -11.28729 -11.25721 -11.24013  -1.48623  -1.38905
  Beta  occ. eigenvalues --   -1.22180  -1.07521  -1.05810  -0.92470  -0.88262
  Beta  occ. eigenvalues --   -0.76517  -0.73635  -0.70294  -0.67610  -0.63896
  Beta  occ. eigenvalues --   -0.62171  -0.59111  -0.56264  -0.55502  -0.51855
  Beta  occ. eigenvalues --   -0.50108  -0.48748  -0.46913  -0.43945  -0.43188
  Beta virt. eigenvalues --    0.03362   0.04453   0.05288   0.06300   0.07151
  Beta virt. eigenvalues --    0.07478   0.08051   0.09024   0.10379   0.11471
  Beta virt. eigenvalues --    0.11954   0.13001   0.14641   0.14820   0.15253

 Mulliken charges and spin densities:
               1          2
     1  C   -1.065668  -0.605213
     2  H    0.248238   0.047459
     3  C    1.160415   0.634211
     4  C   -0.017114  -0.102341
     5  O   -0.374976   0.074480
     6  O   -0.129902   0.004544
     7  C   -0.213233   0.002612
     8  C   -0.409296   0.004628
     9  H    0.142919  -0.003274
    10  H    0.187100   0.000662
    11  H    0.169487  -0.000826
    12  H    0.130271  -0.000283
    13  H    0.129062   0.000725
    14  O   -0.220211   0.976708
    15  H    0.262908  -0.034093
 Sum of Mulliken charges =  -0.00000   1.00000

 Dipole moment (field-independent basis, Debye):
    X=              2.6637    Y=             -3.5498    Z=             -0.9004  Tot=              4.5285
 Quadrupole moment (field-independent basis, Debye-Ang):
   XX=            -46.8052   YY=            -50.1685   ZZ=            -47.4413
   XY=             -1.2782   XZ=              0.0426   YZ=              0.8084

 \PMP3-0=-419.2771253\MP4SDQ=-419.2957734\CCSD=-419.2971827\CCSD(T)=-41
 Normal termination of Gaussian 16 at Tue May 13 11:03:22 2025.
