 Gaussian 16, Revision A.03,
 Gaussian 16:  ES64L-G16RevA.03 25-Dec-2016

 --------------------------
 # freq 6-311++g(d,p) m062x
 --------------------------

 -------------------
 Title Card Required
 -------------------
 Symbolic Z-matrix:
 Charge =  0 Multiplicity = 2

                         Standard orientation:
 ---------------------------------------------------------------------
 Center     Atomic      Atomic             Coordinates (Angstroms)
 Number     Number       Type             X           Y           Z
 ---------------------------------------------------------------------
      1          6           0       -1.413161   -1.383349   -0.394909
      2          1           0       -2.007396   -2.259664   -0.510591
      3          6           0       -0.652849   -0.454463   -0.301293
      4          6           0       -0.028819    0.848694   -0.074184
      5          8           0       -0.706376    1.784788    0.246407
      6          8           0        1.285024    0.953501   -0.245608
      7          6           0        2.073362   -0.219162   -0.523068
      8          6           0        2.406857   -0.963078    0.754303
      9          1           0        1.543657   -0.853496   -1.237517
     10          1           0        2.968479    0.171543   -1.003904
     11          1           0        2.914540   -0.300367    1.456225
     12          1           0        1.503686   -1.352936    1.227382
     13          1           0        3.065137   -1.804640    0.529927
     14          8           0       -3.256694   -0.374435    0.295788
     15          1           0       -2.876078    0.516878    0.400693
 ---------------------------------------------------------------------

 SCF Done:  E(UM062X) =  -420.201608857     A.U. after   23 cycles

 The electronic state is 2-A.
 Alpha  occ. eigenvalues --  -19.69201 -19.66357 -19.63915 -10.71789 -10.62163
 Alpha  occ. eigenvalues --  -10.59258 -10.58169 -10.55178  -1.26307  -1.17709
 Alpha  occ. eigenvalues --   -1.12141  -0.90573  -0.89362  -0.78264  -0.74677
 Alpha  occ. eigenvalues --   -0.65238  -0.62495  -0.59395  -0.57830  -0.54224
 Alpha  occ. eigenvalues --   -0.53800  -0.50581  -0.49682  -0.48085  -0.46832
 Alpha  occ. eigenvalues --   -0.43312  -0.42267  -0.40172  -0.39330  -0.37903
 Alpha  occ. eigenvalues --   -0.35351
 Alpha virt. eigenvalues --   -0.02869  -0.00877   0.00548   0.01125   0.01822
 Alpha virt. eigenvalues --    0.03016   0.03455   0.04577   0.04854   0.05726
 Alpha virt. eigenvalues --    0.07015   0.07323   0.08576   0.08885   0.10186

  Beta  occ. eigenvalues --  -19.69201 -19.64813 -19.63893 -10.71801 -10.62157
  Beta  occ. eigenvalues --  -10.59275 -10.58040 -10.55177  -1.26282  -1.17650
  Beta  occ. eigenvalues --   -1.04745  -0.90019  -0.89334  -0.78202  -0.74573
  Beta  occ. eigenvalues --   -0.65151  -0.62254  -0.59285  -0.57783  -0.53904
  Beta  occ. eigenvalues --   -0.51147  -0.50405  -0.48123  -0.46809  -0.43302
  Beta  occ. eigenvalues --   -0.41145  -0.40229  -0.38801  -0.37355  -0.36741
  Beta virt. eigenvalues --   -0.08287  -0.02813  -0.00856   0.00671   0.01128
  Beta virt. eigenvalues --    0.02034   0.03148   0.03628   0.04679   0.05545
  Beta virt. eigenvalues --    0.05875   0.07232   0.07387   0.08798   0.09023

 Mulliken charges and spin densities:
               1          2
     1  C   -0.677721  -0.104770
     2  H    0.239046   0.011522
     3  C    0.784343   0.188793
     4  C   -0.136766  -0.002685
     5  O   -0.288186   0.007260
     6  O   -0.031572   0.004338
     7  C   -0.346419   0.001243
     8  C   -0.407776   0.004409
     9  H    0.165658  -0.001985
    10  H    0.213197   0.001313
    11  H    0.187423  -0.000627
    12  H    0.142074   0.000146
    13  H    0.159517   0.000694
    14  O   -0.253818   0.907118
    15  H    0.251001  -0.016769
 Sum of Mulliken charges =  -0.00000   1.00000

 Dipole moment (field-independent basis, Debye):
    X=              3.0586    Y=             -3.2417    Z=             -0.8994  Tot=              4.5467
 Quadrupole moment (field-independent basis, Debye-Ang):
   XX=            -48.0529   YY=            -49.2933   ZZ=            -47.4878
   XY=             -1.4219   XZ=              0.2839   YZ=              0.8572

  Exact polarizability:  91.100   2.078  72.536  -2.936   3.774  51.035
 Approx polarizability:  94.053   7.866  93.296  -4.116   6.982  59.487

 ******    2 imaginary frequencies (negative Signs) ******

                      1                      2                      3
                      A                      A                      A
 Frequencies --    -75.4946               -30.3259                80.0913
 Red. masses --      6.7740                 7.6256                 3.5660
 Frc consts  --      0.0227                 0.0041                 0.0135
 IR Inten    --      1.3067                 3.4802                 0.2916

                      4                      5                      6
                      A                      A                      A
 Frequencies --    108.3444               179.0076               208.8860
 Red. masses --      4.1108                 2.9976                 3.9682
 Frc consts  --      0.0284                 0.0566                 0.1020
 IR Inten    --      0.8529                 2.7456                 1.6179

                      7                      8                      9
                      A                      A                      A
 Frequencies --    236.2890               252.6995               303.5528
 Red. masses --      1.4843                 4.2862                 1.0599
 Frc consts  --      0.0488                 0.1613                 0.0575
 IR Inten    --      1.3679                 3.7658               113.1552

                     10                     11                     12
                      A                      A                      A
 Frequencies --    365.0597               413.1109               566.0957
 Red. masses --      3.1732                 3.7502                 4.7709
 Frc consts  --      0.2492                 0.3771                 0.9008
 IR Inten    --      3.5263                 3.8206                16.8684

                     13                     14                     15
                      A                      A                      A
 Frequencies --    635.2947               676.2496               760.9496
 Red. masses --      6.9094                 1.0569                 7.5405
 Frc consts  --      1.6430                 0.2848                 2.5726
 IR Inten    --      3.5641               212.8054                25.7587

                     16                     17                     18
                      A                      A                      A
 Frequencies --    770.7817               780.5792               787.7763
 Red. masses --      2.4330                 1.5661                 1.2793
 Frc consts  --      0.8516                 0.5622                 0.4678
 IR Inten    --     21.8191                30.3996                33.4775

                     19                     20                     21
                      A                      A                      A
 Frequencies --    814.0615               952.4097              1108.3133
 Red. masses --      1.1943                 2.2556                 3.2499
 Frc consts  --      0.4663                 1.2055                 2.3521
 IR Inten    --      4.3998                 7.6965                39.9563

                     22                     23                     24
                      A                      A                      A
 Frequencies --   1134.0293              1182.7643              1277.7274
 Red. masses --      2.7783                 1.8078                 2.5169
 Frc consts  --      2.1052                 1.4901                 2.4210
 IR Inten    --     57.3675                40.7862               385.0255

                     25                     26                     27
                      A                      A                      A
 Frequencies --   1352.5714              1407.5895              1433.7102
 Red. masses --      1.3399                 1.2956                 1.3897
 Frc consts  --      1.4443                 1.5124                 1.6831
 IR Inten    --    170.3500                40.4161                22.1537

                     28                     29                     30
                      A                      A                      A
 Frequencies --   1492.5482              1501.8089              1525.7372
 Red. masses --      1.0402                 1.0485                 1.1050
 Frc consts  --      1.3653                 1.3932                 1.5155
 IR Inten    --      3.8233                 2.6639                22.0953

                     31                     32                     33
                      A                      A                      A
 Frequencies --   1841.1725              2212.4124              3071.6657
 Red. masses --     12.8974                 5.8697                 1.0354
 Frc consts  --     25.7597                16.9278                 5.7560
 IR Inten    --    436.7325                65.5685                 5.9253

                     34                     35                     36
                      A                      A                      A
 Frequencies --   3092.7750              3143.4255              3152.5679
 Red. masses --      1.0647                 1.1031                 1.1010
 Frc consts  --      6.0005                 6.4221                 6.4469
 IR Inten    --     13.7206                 1.3624                12.6876

                     37                     38                     39
                      A                      A                      A
 Frequencies --   3166.4046              3484.7149              3744.0387
 Red. masses --      1.1051                 1.1642                 1.0677
 Frc consts  --      6.5278                 8.3295                 8.8181
 IR Inten    --     23.4152                74.3126                29.3178

 - Thermochemistry -
 -------------------
 Temperature   298.150 Kelvin.  Pressure   1.00000 Atm.
 Atom     1 has atomic number  6 and mass  12.00000

 Molecular mass:   115.03952 amu.
 Principal axes and moments of inertia in atomic units:
                           1         2         3
     Eigenvalues --   527.963681504.557321865.67208
           X            0.99969  -0.02369   0.00742
           Y            0.02376   0.99968  -0.00883
           Z           -0.00721   0.00900   0.99993
 This molecule is an asymmetric top.
 Rotational symmetry number  1.
 Warning -- assumption of classical behavior for rotation
           may cause significant error
 Rotational temperatures (Kelvin)      0.16405     0.05757     0.04643
 Rotational constants (GHZ):           3.41831     1.19952     0.96734
    2 imaginary frequencies ignored.
 Zero-point vibrational energy     294384.3 (Joules/Mol)
                                   70.35954 (Kcal/Mol)
 Warning -- explicit consideration of  10 degrees of freedom as
           vibrations may cause significant error
 Vibrational temperatures:    115.23   155.88   257.55   300.54   339.97
          (Kelvin)            363.58   436.74   525.24   594.37   814.49
                              914.05   972.97  1094.84  1108.98  1123.08
                             1133.43  1171.25  1370.31  1594.62  1631.62
                             1701.73  1838.36  1946.05  2025.21  2062.79
                             2147.44  2160.77  2195.20  2649.04  3183.17
                             4419.44  4449.81  4522.69  4535.84  4555.75
                             5013.73  5386.84

 Zero-point correction=                           0.112125 (Hartree/Particle)
 Thermal correction to Energy=                    0.120658
 Thermal correction to Enthalpy=                  0.121602
 Thermal correction to Gibbs Free Energy=         0.078091
 Sum of electronic and zero-point Energies=           -419.349514
 Sum of electronic and thermal Energies=              -420.080951
 Sum of electronic and thermal Enthalpies=            -420.080006
 Sum of electronic and thermal Free Energies=         -420.123518

                     E (Thermal)             CV                S
                      KCal/Mol        Cal/Mol-Kelvin    Cal/Mol-Kelvin
 Total                   75.714             29.998             91.578
 Electronic               0.000              0.000              1.377
 Translational            0.889              2.981             40.136
 Rotational               0.889              2.981             28.784
 Vibrational             73.937             24.036             21.281
 Vibration     1          0.600              1.963              3.889
 Vibration     2          0.606              1.943              3.298
 Vibration     3          0.629              1.868              2.339
 Vibration     4          0.642              1.827              2.053
 Vibration     5          0.655              1.785              1.831
 Vibration     6          0.664              1.758              1.712
 Vibration     7          0.695              1.667              1.397
 Vibration     8          0.738              1.544              1.100
 Vibration     9          0.777              1.442              0.916
 Vibration    10          0.922              1.105              0.512

 Normal termination of Gaussian 16 at Fri Mar 28 10:29:50 2025.
