 Gaussian 16, Revision A.03,
 Gaussian 16:  ES64L-G16RevA.03 25-Dec-2016

 --------------------------
 # freq 6-311++g(d,p) m062x
 --------------------------

 -------------------
 Title Card Required
 -------------------
 Symbolic Z-matrix:
 Charge =  0 Multiplicity = 2

                         Standard orientation:
 ---------------------------------------------------------------------
 Center     Atomic      Atomic             Coordinates (Angstroms)
 Number     Number       Type             X           Y           Z
 ---------------------------------------------------------------------
      1          6           0       -1.595333   -1.254278   -0.339115
      2          1           0       -2.007680   -2.224431   -0.536637
      3          6           0       -0.649667   -0.449260   -0.309075
      4          6           0       -0.018643    0.849533   -0.061409
      5          8           0       -0.685002    1.786909    0.276449
      6          8           0        1.295452    0.942300   -0.238585
      7          6           0        2.066894   -0.235407   -0.538080
      8          6           0        2.398922   -1.002886    0.725665
      9          1           0        1.525233   -0.852656   -1.259852
     10          1           0        2.963578    0.150293   -1.020061
     11          1           0        2.918486   -0.356764    1.434234
     12          1           0        1.494078   -1.388313    1.199635
     13          1           0        3.045602   -1.848893    0.485052
     14          8           0       -3.150961   -0.407139    0.264878
     15          1           0       -2.828251    0.497995    0.407777
 ---------------------------------------------------------------------

 SCF Done:  E(UM062X) =  -420.202834973     A.U. after   20 cycles

 The electronic state is 2-A.
 Alpha  occ. eigenvalues --  -19.69501 -19.64389 -19.64338 -10.72091 -10.63058
 Alpha  occ. eigenvalues --  -10.62581 -10.60008 -10.55534  -1.26701  -1.18198
 Alpha  occ. eigenvalues --   -1.10270  -0.91883  -0.89741  -0.78812  -0.75393
 Alpha  occ. eigenvalues --   -0.65931  -0.62698  -0.59879  -0.58250  -0.54347
 Alpha  occ. eigenvalues --   -0.52391  -0.50959  -0.49516  -0.48384  -0.47185
 Alpha  occ. eigenvalues --   -0.43705  -0.42235  -0.40503  -0.39421  -0.36920
 Alpha  occ. eigenvalues --   -0.32570
 Alpha virt. eigenvalues --   -0.03612  -0.01132   0.00427   0.00905   0.01771
 Alpha virt. eigenvalues --    0.02783   0.03467   0.04409   0.05175   0.05636
 Alpha virt. eigenvalues --    0.06869   0.07280   0.08406   0.08750   0.10043

  Beta  occ. eigenvalues --  -19.69505 -19.64264 -19.63350 -10.72128 -10.63208
  Beta  occ. eigenvalues --  -10.62562 -10.59543 -10.55531  -1.26594  -1.17915
  Beta  occ. eigenvalues --   -1.06576  -0.90058  -0.89645  -0.78623  -0.75063
  Beta  occ. eigenvalues --   -0.65667  -0.62287  -0.59418  -0.58072  -0.54147
  Beta  occ. eigenvalues --   -0.50714  -0.50429  -0.48421  -0.47135  -0.43632
  Beta  occ. eigenvalues --   -0.42404  -0.41302  -0.39177  -0.38286  -0.34965
  Beta virt. eigenvalues --   -0.10320  -0.03473  -0.01130   0.00538   0.00902
  Beta virt. eigenvalues --    0.02044   0.03036   0.03833   0.04493   0.05563
  Beta virt. eigenvalues --    0.06109   0.07069   0.07887   0.08595   0.09024

 Mulliken charges and spin densities:
               1          2
     1  C   -0.577906  -0.300208
     2  H    0.234045   0.026876
     3  C    0.712087   0.682047
     4  C   -0.124487  -0.012659
     5  O   -0.275371   0.041736
     6  O   -0.028165   0.013223
     7  C   -0.353696   0.000510
     8  C   -0.412525   0.013768
     9  H    0.172959  -0.001583
    10  H    0.219383   0.002821
    11  H    0.189188  -0.001296
    12  H    0.144985   0.001148
    13  H    0.159107   0.000648
    14  O   -0.305223   0.545510
    15  H    0.245619  -0.012541
 Sum of Mulliken charges =  -0.00000   1.00000

 Dipole moment (field-independent basis, Debye):
    X=              3.8579    Y=             -3.4326    Z=             -1.1689  Tot=              5.2946
 Quadrupole moment (field-independent basis, Debye-Ang):
   XX=            -51.4839   YY=            -48.9544   ZZ=            -47.3968
   XY=             -1.6273   XZ=              0.7551   YZ=              1.0057

  Exact polarizability: 105.062   0.331  71.588  -6.289   4.133  51.721
 Approx polarizability: 111.365   3.744  89.788  -9.054   7.374  61.218

 ******    1 imaginary frequencies (negative Signs) ******

                      1                      2                      3
                      A                      A                      A
 Frequencies --   -827.6643                71.2458               101.9170
 Red. masses --     10.7160                 3.7007                 4.7445
 Frc consts  --      4.3250                 0.0111                 0.0290
 IR Inten    --     19.3980                 0.0821                 0.5963

                      4                      5                      6
                      A                      A                      A
 Frequencies --    118.8566               141.6067               206.3284
 Red. masses --      5.0829                 6.2393                 1.5307
 Frc consts  --      0.0423                 0.0737                 0.0384
 IR Inten    --      0.8749                 2.0426                 1.0083

                      7                      8                      9
                      A                      A                      A
 Frequencies --    257.1243               281.4434               335.2827
 Red. masses --      1.8733                 3.2280                 1.1181
 Frc consts  --      0.0730                 0.1506                 0.0741
 IR Inten    --      2.7327                 0.0257               109.7119

                     10                     11                     12
                      A                      A                      A
 Frequencies --    388.2098               419.0316               569.1840
 Red. masses --      3.6103                 3.9967                 5.0220
 Frc consts  --      0.3206                 0.4135                 0.9586
 IR Inten    --      6.9578                 5.8859                20.5419

                     13                     14                     15
                      A                      A                      A
 Frequencies --    618.1203               750.5847               766.7579
 Red. masses --      7.2276                 8.2272                 4.3973
 Frc consts  --      1.6270                 2.7309                 1.5232
 IR Inten    --      4.0795                14.7028                 2.0113

                     16                     17                     18
                      A                      A                      A
 Frequencies --    787.9638               810.3583               889.1872
 Red. masses --      1.4256                 1.1833                 1.1109
 Frc consts  --      0.5215                 0.4578                 0.5175
 IR Inten    --     45.9588                 6.1646               124.2258

                     19                     20                     21
                      A                      A                      A
 Frequencies --    950.2289              1036.0071              1107.7653
 Red. masses --      2.2200                 1.1014                 3.1880
 Frc consts  --      1.1810                 0.6965                 2.3050
 IR Inten    --      9.9794                76.1648                39.1822

                     22                     23                     24
                      A                      A                      A
 Frequencies --   1132.8333              1180.1445              1272.7990
 Red. masses --      2.7330                 1.8260                 2.5773
 Frc consts  --      2.0664                 1.4984                 2.4600
 IR Inten    --     55.4235                43.2883               403.2460

                     25                     26                     27
                      A                      A                      A
 Frequencies --   1349.9890              1406.6707              1432.4844
 Red. masses --      1.3240                 1.2894                 1.3838
 Frc consts  --      1.4217                 1.5032                 1.6730
 IR Inten    --    168.6852                37.8815                20.7492

                     28                     29                     30
                      A                      A                      A
 Frequencies --   1492.3160              1500.8385              1524.1855
 Red. masses --      1.0399                 1.0489                 1.1037
 Frc consts  --      1.3645                 1.3921                 1.5107
 IR Inten    --      4.1405                 2.5251                24.4278

                     31                     32                     33
                      A                      A                      A
 Frequencies --   1834.5489              1942.5249              3071.5321
 Red. masses --     12.6111                 6.8309                 1.0356
 Frc consts  --     25.0071                15.1866                 5.7567
 IR Inten    --    343.5112               107.4717                 5.1599

                     34                     35                     36
                      A                      A                      A
 Frequencies --   3080.7304              3141.7425              3153.6130
 Red. masses --      1.0669                 1.1019                 1.1006
 Frc consts  --      5.9661                 6.4081                 6.4488
 IR Inten    --     14.6616                 1.0795                14.2338

                     37                     38                     39
                      A                      A                      A
 Frequencies --   3164.8141              3376.9670              3784.0475
 Red. masses --      1.1040                 1.1289                 1.0682
 Frc consts  --      6.5147                 7.5854                 9.0117
 IR Inten    --     25.0852                39.1031                50.4944

 - Thermochemistry -
 -------------------
 Temperature   298.150 Kelvin.  Pressure   1.00000 Atm.
 Atom     1 has atomic number  6 and mass  12.00000

 Molecular mass:   115.03952 amu.
 Principal axes and moments of inertia in atomic units:
                           1         2         3
     Eigenvalues --   514.638771481.301641835.53339
           X            0.99966  -0.02524   0.00679
           Y            0.02530   0.99964  -0.00838
           Z           -0.00657   0.00855   0.99994
 This molecule is an asymmetric top.
 Rotational symmetry number  1.
 Warning -- assumption of classical behavior for rotation
           may cause significant error
 Rotational temperatures (Kelvin)      0.16830     0.05847     0.04719
 Rotational constants (GHZ):           3.50681     1.21835     0.98322
    1 imaginary frequencies ignored.
 Zero-point vibrational energy     295776.6 (Joules/Mol)
                                   70.69230 (Kcal/Mol)
 Warning -- explicit consideration of  12 degrees of freedom as
           vibrations may cause significant error
 Vibrational temperatures:    102.51   146.64   171.01   203.74   296.86
          (Kelvin)            369.94   404.93   482.40   558.55   602.89
                              818.93   889.34  1079.92  1103.19  1133.70
                             1165.92  1279.34  1367.17  1490.58  1593.83
                             1629.89  1697.96  1831.27  1942.33  2023.89
                             2061.03  2147.11  2159.37  2192.96  2639.51
                             2794.86  4419.25  4432.48  4520.27  4537.35
                             4553.46  4858.70  5444.40

 Zero-point correction=                           0.112655 (Hartree/Particle)
 Thermal correction to Energy=                    0.121745
 Thermal correction to Enthalpy=                  0.122690
 Thermal correction to Gibbs Free Energy=         0.077765
 Sum of electronic and zero-point Energies=           -420.090180
 Sum of electronic and thermal Energies=              -420.081090
 Sum of electronic and thermal Enthalpies=            -420.080145
 Sum of electronic and thermal Free Energies=         -420.125070

                     E (Thermal)             CV                S
                      KCal/Mol        Cal/Mol-Kelvin    Cal/Mol-Kelvin
 Total                   76.396             31.158             94.551
 Electronic               0.000              0.000              1.377
 Translational            0.889              2.981             40.136
 Rotational               0.889              2.981             28.727
 Vibrational             74.619             25.196             24.311
 Vibration     1          0.598              1.968              4.119
 Vibration     2          0.604              1.948              3.417
 Vibration     3          0.609              1.934              3.119
 Vibration     4          0.615              1.912              2.782
 Vibration     5          0.641              1.831              2.076
 Vibration     6          0.667              1.751              1.681
 Vibration     7          0.681              1.708              1.525
 Vibration     8          0.716              1.605              1.235
 Vibration     9          0.756              1.495              1.007
 Vibration    10          0.782              1.429              0.895
 Vibration    11          0.925              1.098              0.506
 Vibration    12          0.978              0.994              0.420

 Normal termination of Gaussian 16 at Fri Mar 28 12:30:17 2025.
