 Gaussian 16, Revision A.03,
 Gaussian 16:  ES64L-G16RevA.03 25-Dec-2016

 --------------------------
 # ccsd(t)/6-311++g(d,p) sp
 --------------------------

 -------------------
 Title Card Required
 -------------------
 Symbolic Z-matrix:
 Charge =  0 Multiplicity = 2

                         Standard orientation:
 ---------------------------------------------------------------------
 Center     Atomic      Atomic             Coordinates (Angstroms)
 Number     Number       Type             X           Y           Z
 ---------------------------------------------------------------------
      1          6           0       -1.595333   -1.254278   -0.339115
      2          1           0       -2.007680   -2.224431   -0.536637
      3          6           0       -0.649667   -0.449260   -0.309075
      4          6           0       -0.018643    0.849533   -0.061409
      5          8           0       -0.685002    1.786909    0.276449
      6          8           0        1.295452    0.942300   -0.238585
      7          6           0        2.066894   -0.235407   -0.538080
      8          6           0        2.398922   -1.002886    0.725665
      9          1           0        1.525233   -0.852656   -1.259852
     10          1           0        2.963578    0.150293   -1.020061
     11          1           0        2.918486   -0.356764    1.434234
     12          1           0        1.494078   -1.388313    1.199635
     13          1           0        3.045602   -1.848893    0.485052
     14          8           0       -3.150961   -0.407139    0.264878
     15          1           0       -2.828251    0.497995    0.407777
 ---------------------------------------------------------------------

 SCF Done:  E(UHF) =  -417.973304818     A.U. after   33 cycles
 E2 =    -0.1251420504D+01 EUMP2 =    -0.41922472532121D+03
 CCSD(T)= -0.41935153861D+03

 The electronic state is 2-A.
 Alpha  occ. eigenvalues --  -20.62017 -20.60904 -20.57017 -11.41930 -11.31526
 Alpha  occ. eigenvalues --  -11.29043 -11.28267 -11.24224  -1.48858  -1.39872
 Alpha  occ. eigenvalues --   -1.36377  -1.09748  -1.06008  -0.92104  -0.88094
 Alpha  occ. eigenvalues --   -0.77084  -0.73255  -0.71293  -0.67871  -0.64715
 Alpha  occ. eigenvalues --   -0.64266  -0.63498  -0.59728  -0.57193  -0.55882
 Alpha  occ. eigenvalues --   -0.53920  -0.52181  -0.50824  -0.48039  -0.44212
 Alpha  occ. eigenvalues --   -0.42705
 Alpha virt. eigenvalues --    0.03247   0.04567   0.05122   0.06523   0.07558
 Alpha virt. eigenvalues --    0.07983   0.08162   0.09610   0.11072   0.11777
 Alpha virt. eigenvalues --    0.12783   0.14184   0.14628   0.15547   0.16230

  Beta  occ. eigenvalues --  -20.62101 -20.57646 -20.56222 -11.42402 -11.31480
  Beta  occ. eigenvalues --  -11.31400 -11.25441 -11.24220  -1.48577  -1.38613
  Beta  occ. eigenvalues --   -1.25216  -1.06714  -1.05936  -0.92556  -0.88296
  Beta  occ. eigenvalues --   -0.76680  -0.73043  -0.70086  -0.67630  -0.63806
  Beta  occ. eigenvalues --   -0.62046  -0.59083  -0.56174  -0.55610  -0.52002
  Beta  occ. eigenvalues --   -0.51640  -0.48640  -0.46438  -0.45899  -0.42616
  Beta virt. eigenvalues --    0.03216   0.04380   0.05076   0.05762   0.06839
  Beta virt. eigenvalues --    0.07404   0.08125   0.08743   0.09668   0.11137
  Beta virt. eigenvalues --    0.11784   0.12930   0.14267   0.14628   0.15316

 Mulliken charges and spin densities:
               1          2
     1  C   -0.768971  -1.153022
     2  H    0.239871   0.087099
     3  C    0.904156   1.329486
     4  C   -0.046198  -0.195576
     5  O   -0.362304   0.155003
     6  O   -0.137482   0.013462
     7  C   -0.213420  -0.000863
     8  C   -0.412235   0.012866
     9  H    0.146390  -0.003298
    10  H    0.193603   0.000541
    11  H    0.170124  -0.001418
    12  H    0.132552  -0.000771
    13  H    0.128921   0.000706
    14  O   -0.241733   0.784701
    15  H    0.266726  -0.028915
 Sum of Mulliken charges =  -0.00000   1.00000

 Dipole moment (field-independent basis, Debye):
    X=              3.0603    Y=             -3.6743    Z=             -1.0887  Tot=              4.9042
 Quadrupole moment (field-independent basis, Debye-Ang):
   XX=            -48.7293   YY=            -50.3288   ZZ=            -47.2609
   XY=             -1.6712   XZ=              0.2237   YZ=              0.8103

 P3-0=-419.2794877\MP4SDQ=-419.2851729\CCSD=-419.2959639\CCSD(T)=-419.3
 Normal termination of Gaussian 16 at Tue May 13 14:44:01 2025.
