 Gaussian 16, Revision A.03,
 Gaussian 16:  ES64L-G16RevA.03 25-Dec-2016

 --------------------------
 # freq 6-311++g(d,p) m062x
 --------------------------

 -------------------
 Title Card Required
 -------------------
 Symbolic Z-matrix:
 Charge =  0 Multiplicity = 2

                         Standard orientation:
 ---------------------------------------------------------------------
 Center     Atomic      Atomic             Coordinates (Angstroms)
 Number     Number       Type             X           Y           Z
 ---------------------------------------------------------------------
      1          6           0       -1.466227   -1.343903   -0.379917
      2          1           0       -2.028903   -2.239300   -0.512976
      3          6           0       -0.656030   -0.450709   -0.302321
      4          6           0       -0.024836    0.848873   -0.070008
      5          8           0       -0.698574    1.785489    0.256421
      6          8           0        1.288951    0.949511   -0.243275
      7          6           0        2.071271   -0.225037   -0.528183
      8          6           0        2.404420   -0.976787    0.744676
      9          1           0        1.536895   -0.853634   -1.244584
     10          1           0        2.966913    0.163655   -1.009689
     11          1           0        2.916287   -0.319675    1.448808
     12          1           0        1.500592   -1.365054    1.217942
     13          1           0        3.058656   -1.819994    0.514777
     14          8           0       -3.222574   -0.384297    0.286159
     15          1           0       -2.864467    0.513762    0.405802
 ---------------------------------------------------------------------

 SCF Done:  E(UM062X) =  -420.199303196     A.U. after   23 cycles

 The electronic state is 2-A.
 Alpha  occ. eigenvalues --  -19.69248 -19.65924 -19.63968 -10.71830 -10.62232
 Alpha  occ. eigenvalues --  -10.59769 -10.58415 -10.55234  -1.26369  -1.17782
 Alpha  occ. eigenvalues --   -1.11841  -0.90793  -0.89422  -0.78338  -0.74780
 Alpha  occ. eigenvalues --   -0.65379  -0.62577  -0.59463  -0.57893  -0.54056
 Alpha  occ. eigenvalues --   -0.53604  -0.50657  -0.49754  -0.48136  -0.46891
 Alpha  occ. eigenvalues --   -0.43370  -0.42209  -0.40171  -0.39312  -0.37792
 Alpha  occ. eigenvalues --   -0.34688
 Alpha virt. eigenvalues --   -0.02932  -0.00912   0.00528   0.01091   0.01834
 Alpha virt. eigenvalues --    0.02988   0.03486   0.04562   0.04899   0.05704
 Alpha virt. eigenvalues --    0.06980   0.07287   0.08563   0.08867   0.10195

  Beta  occ. eigenvalues --  -19.69248 -19.64435 -19.63930 -10.71846 -10.62225
  Beta  occ. eigenvalues --  -10.59811 -10.58231 -10.55233  -1.26331  -1.17688
  Beta  occ. eigenvalues --   -1.05011  -0.90033  -0.89386  -0.78254  -0.74636
  Beta  occ. eigenvalues --   -0.65259  -0.62284  -0.59301  -0.57824  -0.53925
  Beta  occ. eigenvalues --   -0.50912  -0.50439  -0.48170  -0.46860  -0.43351
  Beta  occ. eigenvalues --   -0.41319  -0.40426  -0.38851  -0.37432  -0.36329
  Beta virt. eigenvalues --   -0.08796  -0.02868  -0.00893   0.00673   0.01094
  Beta virt. eigenvalues --    0.02053   0.03129   0.03677   0.04648   0.05645
  Beta virt. eigenvalues --    0.05952   0.07210   0.07508   0.08772   0.09034

 Mulliken charges and spin densities:
               1          2
     1  C   -0.608483  -0.130761
     2  H    0.242164   0.016467
     3  C    0.708844   0.251655
     4  C   -0.129777  -0.006305
     5  O   -0.287604   0.012703
     6  O   -0.032608   0.006201
     7  C   -0.348136   0.000464
     8  C   -0.408605   0.006448
     9  H    0.168101  -0.002113
    10  H    0.214548   0.001535
    11  H    0.187560  -0.000766
    12  H    0.142862   0.000050
    13  H    0.159305   0.000758
    14  O   -0.259330   0.859818
    15  H    0.251159  -0.016154
 Sum of Mulliken charges =  -0.00000   1.00000

 Dipole moment (field-independent basis, Debye):
    X=              3.1577    Y=             -3.2799    Z=             -0.9461  Tot=              4.6501
 Quadrupole moment (field-independent basis, Debye-Ang):
   XX=            -48.4181   YY=            -49.2569   ZZ=            -47.4562
   XY=             -1.4088   XZ=              0.3288   YZ=              0.8612

  Exact polarizability:  97.274   1.444  72.069  -4.336   3.865  51.327
 Approx polarizability:  99.279   7.466  91.993  -5.343   6.897  59.846

 ******    2 imaginary frequencies (negative Signs) ******

                      1                      2                      3
                      A                      A                      A
 Frequencies --   -278.8312               -74.2202                31.2707
 Red. masses --     12.6286                 6.6968                 7.1490
 Frc consts  --      0.5785                 0.0217                 0.0041
 IR Inten    --     18.9982                 1.5106                 3.7681

                      4                      5                      6
                      A                      A                      A
 Frequencies --     79.4033               108.0878               188.6418
 Red. masses --      3.5281                 4.0854                 2.1316
 Frc consts  --      0.0131                 0.0281                 0.0447
 IR Inten    --      0.4782                 0.7950                 2.2926

                      7                      8                      9
                      A                      A                      A
 Frequencies --    238.1167               252.3021               307.3558
 Red. masses --      1.4560                 4.2964                 1.0570
 Frc consts  --      0.0486                 0.1611                 0.0588
 IR Inten    --      1.4816                 2.3538               112.3382

                     10                     11                     12
                      A                      A                      A
 Frequencies --    367.5442               413.3371               567.2338
 Red. masses --      3.3184                 3.7607                 4.7698
 Frc consts  --      0.2641                 0.3786                 0.9042
 IR Inten    --      4.2037                 3.6759                17.8521

                     13                     14                     15
                      A                      A                      A
 Frequencies --    632.5264               742.0521               759.7636
 Red. masses --      7.4766                 1.1279                 9.1656
 Frc consts  --      1.7624                 0.3659                 3.1172
 IR Inten    --      8.7406               194.8960                29.7100

                     16                     17                     18
                      A                      A                      A
 Frequencies --    773.8218               784.3792               801.0888
 Red. masses --      3.1489                 1.3291                 1.1332
 Frc consts  --      1.1109                 0.4818                 0.4285
 IR Inten    --     25.0644                34.5377                33.8856

                     19                     20                     21
                      A                      A                      A
 Frequencies --    813.2912               952.3266              1108.2239
 Red. masses --      1.2053                 2.2558                 3.2276
 Frc consts  --      0.4697                 1.2054                 2.3355
 IR Inten    --      3.9625                 7.8736                39.9182

                     22                     23                     24
                      A                      A                      A
 Frequencies --   1134.0276              1182.3680              1277.1740
 Red. masses --      2.7813                 1.8132                 2.5196
 Frc consts  --      2.1074                 1.4935                 2.4215
 IR Inten    --     56.5279                43.3467               403.9237

                     25                     26                     27
                      A                      A                      A
 Frequencies --   1352.4132              1407.4179              1433.5079
 Red. masses --      1.3405                 1.2950                 1.3896
 Frc consts  --      1.4446                 1.5114                 1.6824
 IR Inten    --    176.4516                41.9230                22.4632

                     28                     29                     30
                      A                      A                      A
 Frequencies --   1492.5015              1501.5424              1525.1551
 Red. masses --      1.0402                 1.0486                 1.1047
 Frc consts  --      1.3652                 1.3929                 1.5140
 IR Inten    --      3.8052                 2.8257                23.9545

                     31                     32                     33
                      A                      A                      A
 Frequencies --   1840.4106              2174.0213              3071.6183
 Red. masses --     12.8807                 6.0157                 1.0355
 Frc consts  --     25.7052                16.7518                 5.7560
 IR Inten    --    412.7984                66.3470                 5.7780

                     34                     35                     36
                      A                      A                      A
 Frequencies --   3089.9752              3142.9542              3152.8443
 Red. masses --      1.0653                 1.1028                 1.1009
 Frc consts  --      5.9927                 6.4185                 6.4476
 IR Inten    --     13.6775                 1.2041                13.1018

                     37                     38                     39
                      A                      A                      A
 Frequencies --   3165.9515              3472.3516              3750.5486
 Red. masses --      1.1048                 1.1583                 1.0678
 Frc consts  --      6.5242                 8.2288                 8.8494
 IR Inten    --     24.4390                73.6146                31.0059

 - Thermochemistry -
 -------------------
 Temperature   298.150 Kelvin.  Pressure   1.00000 Atm.
 Atom     1 has atomic number  6 and mass  12.00000

 Molecular mass:   115.03952 amu.
 Principal axes and moments of inertia in atomic units:
                           1         2         3
     Eigenvalues --   523.523521496.510621855.31398
           X            0.99968  -0.02416   0.00718
           Y            0.02422   0.99967  -0.00885
           Z           -0.00697   0.00902   0.99994
 This molecule is an asymmetric top.
 Rotational symmetry number  1.
 Warning -- assumption of classical behavior for rotation
           may cause significant error
 Rotational temperatures (Kelvin)      0.16544     0.05788     0.04668
 Rotational constants (GHZ):           3.44730     1.20597     0.97274
    2 imaginary frequencies ignored.
 Zero-point vibrational energy     293608.8 (Joules/Mol)
                                   70.17418 (Kcal/Mol)
 Warning -- explicit consideration of  10 degrees of freedom as
           vibrations may cause significant error
 Vibrational temperatures:     44.99   114.24   155.51   271.41   342.60
          (Kelvin)            363.01   442.22   528.81   594.70   816.12
                              910.06  1067.65  1093.13  1113.36  1128.55
                             1152.59  1170.14  1370.19  1594.49  1631.61
                             1701.16  1837.57  1945.82  2024.96  2062.50
                             2147.38  2160.38  2194.36  2647.94  3127.93
                             4419.37  4445.79  4522.01  4536.24  4555.10
                             4995.94  5396.20

 Zero-point correction=                           0.111830 (Hartree/Particle)
 Thermal correction to Energy=                    0.120637
 Thermal correction to Enthalpy=                  0.121581
 Thermal correction to Gibbs Free Energy=         0.076422
 Sum of electronic and zero-point Energies=           -419.3476694
 Sum of electronic and thermal Energies=              -420.078666
 Sum of electronic and thermal Enthalpies=            -420.077722
 Sum of electronic and thermal Free Energies=         -420.122881

                     E (Thermal)             CV                S
                      KCal/Mol        Cal/Mol-Kelvin    Cal/Mol-Kelvin
 Total                   75.701             29.977             95.045
 Electronic               0.000              0.000              1.377
 Translational            0.889              2.981             40.136
 Rotational               0.889              2.981             28.765
 Vibrational             73.923             24.016             24.767
 Vibration     1          0.594              1.983              5.747
 Vibration     2          0.600              1.963              3.906
 Vibration     3          0.606              1.943              3.303
 Vibration     4          0.633              1.855              2.241
 Vibration     5          0.656              1.782              1.817
 Vibration     6          0.664              1.759              1.714
 Vibration     7          0.697              1.660              1.377
 Vibration     8          0.740              1.539              1.090
 Vibration     9          0.777              1.441              0.915
 Vibration    10          0.923              1.102              0.510

 Normal termination of Gaussian 16 at Fri Mar 28 11:05:58 2025.
