 Gaussian 16, Revision A.03,
 Gaussian 16:  ES64L-G16RevA.03 25-Dec-2016

 --------------------------
 # ccsd(t)/6-311++g(d,p) sp
 --------------------------

 -------------------
 Title Card Required
 -------------------
 Symbolic Z-matrix:
 Charge =  0 Multiplicity = 2

                         Standard orientation:
 ---------------------------------------------------------------------
 Center     Atomic      Atomic             Coordinates (Angstroms)
 Number     Number       Type             X           Y           Z
 ---------------------------------------------------------------------
      1          6           0       -1.576669   -1.266705   -0.345264
      2          1           0       -2.014562   -2.226222   -0.532626
      3          6           0       -0.651806   -0.449010   -0.307738
      4          6           0       -0.019161    0.849526   -0.062574
      5          8           0       -0.686609    1.786618    0.273794
      6          8           0        1.294711    0.943185   -0.239216
      7          6           0        2.067477   -0.234167   -0.536817
      8          6           0        2.399678   -0.999581    0.728121
      9          1           0        1.526573   -0.852864   -1.257822
     10          1           0        2.963993    0.151844   -1.018850
     11          1           0        2.918296   -0.352040    1.436096
     12          1           0        1.494965   -1.385355    1.202018
     13          1           0        3.047296   -1.845256    0.488873
     14          8           0       -3.160545   -0.403739    0.267892
     15          1           0       -2.834135    0.501003    0.408186
 ---------------------------------------------------------------------

 SCF Done:  E(UHF) =  -417.972792396     A.U. after   33 cycles
 E2 =    -0.1251217097D+01 EUMP2 =    -0.41922400949346D+03
 CCSD(T)= -0.41934951844D+03

 The electronic state is 2-A.
 Alpha  occ. eigenvalues --  -20.62004 -20.61090 -20.56957 -11.41950 -11.31481
 Alpha  occ. eigenvalues --  -11.28653 -11.28007 -11.24183  -1.48830  -1.39820
 Alpha  occ. eigenvalues --   -1.36632  -1.09590  -1.05969  -0.92070  -0.88029
 Alpha  occ. eigenvalues --   -0.77020  -0.73324  -0.71212  -0.67833  -0.64960
 Alpha  occ. eigenvalues --   -0.64245  -0.63764  -0.59677  -0.57140  -0.55838
 Alpha  occ. eigenvalues --   -0.54098  -0.52136  -0.50697  -0.47983  -0.44132
 Alpha  occ. eigenvalues --   -0.42611
 Alpha virt. eigenvalues --    0.03269   0.04565   0.05150   0.06526   0.07567
 Alpha virt. eigenvalues --    0.07996   0.08153   0.09609   0.11086   0.11774
 Alpha virt. eigenvalues --    0.12795   0.14228   0.14661   0.15527   0.16278

  Beta  occ. eigenvalues --  -20.62083 -20.57674 -20.56201 -11.42407 -11.31438
  Beta  occ. eigenvalues --  -11.30921 -11.25330 -11.24179  -1.48564  -1.38621
  Beta  occ. eigenvalues --   -1.24746  -1.06829  -1.05904  -0.92518  -0.88259
  Beta  occ. eigenvalues --   -0.76652  -0.73120  -0.70085  -0.67609  -0.63788
  Beta  occ. eigenvalues --   -0.62087  -0.59067  -0.56156  -0.55577  -0.51944
  Beta  occ. eigenvalues --   -0.51455  -0.48535  -0.46467  -0.45576  -0.42715
  Beta virt. eigenvalues --    0.03249   0.04378   0.05122   0.05849   0.06884
  Beta virt. eigenvalues --    0.07429   0.08149   0.08796   0.09756   0.11168
  Beta virt. eigenvalues --    0.11796   0.12925   0.14322   0.14666   0.15345

 Mulliken charges and spin densities:
               1          2
     1  C   -0.779018  -1.120152
     2  H    0.243186   0.085693
     3  C    0.905263   1.265609
     4  C   -0.045431  -0.190063
     5  O   -0.364632   0.147293
     6  O   -0.137070   0.012706
     7  C   -0.213540  -0.000507
     8  C   -0.411928   0.012078
     9  H    0.146394  -0.003600
    10  H    0.192777   0.000531
    11  H    0.169895  -0.001388
    12  H    0.132367  -0.000887
    13  H    0.128836   0.000785
    14  O   -0.234143   0.821850
    15  H    0.267044  -0.029947
 Sum of Mulliken charges =  -0.00000   1.00000

 Dipole moment (field-independent basis, Debye):
    X=              2.9614    Y=             -3.6538    Z=             -1.0556  Tot=              4.8202
 Quadrupole moment (field-independent basis, Debye-Ang):
   XX=            -48.2534   YY=            -50.3310   ZZ=            -47.2780
   XY=             -1.6067   XZ=              0.1609   YZ=              0.7965

 06\PMP3-0=-419.2772715\MP4SDQ=-419.2840293\CCSD=-419.294182\CCSD(T)=-4
 Normal termination of Gaussian 16 at Tue May 13 17:55:23 2025.
