 Gaussian 16, Revision A.03,
 Gaussian 16:  ES64L-G16RevA.03 25-Dec-2016

 --------------------------
 # ccsd(t)/6-311++g(d,p) sp
 --------------------------

 -------------------
 Title Card Required
 -------------------
 Symbolic Z-matrix:
 Charge =  0 Multiplicity = 2

                         Standard orientation:
 ---------------------------------------------------------------------
 Center     Atomic      Atomic             Coordinates (Angstroms)
 Number     Number       Type             X           Y           Z
 ---------------------------------------------------------------------
      1          6           0       -1.685371   -1.191417   -0.307730
      2          1           0       -1.975266   -2.201677   -0.552768
      3          6           0       -0.639058   -0.454170   -0.316586
      4          6           0       -0.017818    0.848206   -0.055778
      5          8           0       -0.678441    1.788256    0.289529
      6          8           0        1.298359    0.938627   -0.235346
      7          6           0        2.064337   -0.240149   -0.544089
      8          6           0        2.395747   -1.017718    0.713808
      9          1           0        1.520084   -0.850697   -1.269556
     10          1           0        2.962064    0.144825   -1.024948
     11          1           0        2.919463   -0.378285    1.425408
     12          1           0        1.490296   -1.401936    1.187668
     13          1           0        3.038416   -1.864931    0.466614
     14          8           0       -3.102313   -0.426621    0.248718
     15          1           0       -2.802915    0.482105    0.406619
 ---------------------------------------------------------------------

 SCF Done:  E(UHF) =  -417.987085275     A.U. after   31 cycles
 E2 =    -0.1262360265D+01 EUMP2 =    -0.41924944554010D+03
 CCSD(T)= -0.41937097153D+03

 The electronic state is 2-A.
 Alpha  occ. eigenvalues --  -20.62067 -20.59718 -20.57270 -11.41870 -11.31893
 Alpha  occ. eigenvalues --  -11.31713 -11.29493 -11.24413  -1.48915  -1.40010
 Alpha  occ. eigenvalues --   -1.34804  -1.10505  -1.06167  -0.92355  -0.88580
 Alpha  occ. eigenvalues --   -0.77488  -0.73085  -0.71642  -0.68002  -0.64526
 Alpha  occ. eigenvalues --   -0.63669  -0.61842  -0.59919  -0.57378  -0.56007
 Alpha  occ. eigenvalues --   -0.53066  -0.52329  -0.51071  -0.48216  -0.44304
 Alpha  occ. eigenvalues --   -0.42927
 Alpha virt. eigenvalues --    0.03128   0.04570   0.04990   0.06498   0.07497
 Alpha virt. eigenvalues --    0.07888   0.08212   0.09522   0.11006   0.11795
 Alpha virt. eigenvalues --    0.12739   0.13930   0.14461   0.15549   0.16023

  Beta  occ. eigenvalues --  -20.62173 -20.57766 -20.56347 -11.42362 -11.34134
  Beta  occ. eigenvalues --  -11.31654 -11.26125 -11.24407  -1.48575  -1.38556
  Beta  occ. eigenvalues --   -1.28796  -1.06140  -1.05876  -0.92668  -0.88421
  Beta  occ. eigenvalues --   -0.76873  -0.72721  -0.70076  -0.67685  -0.63885
  Beta  occ. eigenvalues --   -0.61944  -0.59141  -0.56319  -0.55763  -0.53239
  Beta  occ. eigenvalues --   -0.52064  -0.51052  -0.47135  -0.46333  -0.41765
  Beta virt. eigenvalues --    0.02984   0.04451   0.04781   0.05417   0.06659
  Beta virt. eigenvalues --    0.07259   0.07983   0.08513   0.09338   0.11033
  Beta virt. eigenvalues --    0.11750   0.12977   0.14001   0.14434   0.15157

 Mulliken charges and spin densities:
               1          2
     1  C   -0.688636  -1.085649
     2  H    0.223184   0.084035
     3  C    0.869224   1.537988
     4  C   -0.025261  -0.197979
     5  O   -0.353862   0.179877
     6  O   -0.139297   0.015803
     7  C   -0.210989  -0.002210
     8  C   -0.414128   0.015115
     9  H    0.146337  -0.000673
    10  H    0.196746   0.000834
    11  H    0.171324  -0.001419
    12  H    0.133850   0.000747
    13  H    0.129180   0.000025
    14  O   -0.303940   0.473172
    15  H    0.266267  -0.019666
 Sum of Mulliken charges =  -0.00000   1.00000

 Dipole moment (field-independent basis, Debye):
    X=              3.5287    Y=             -3.7947    Z=             -1.2585  Tot=              5.3325
 Quadrupole moment (field-independent basis, Debye-Ang):
   XX=            -51.1763   YY=            -50.3710   ZZ=            -47.1874
   XY=             -1.9450   XZ=              0.5764   YZ=              0.8699

 28\PMP3-0=-419.2973042\MP4SDQ=-419.3072485\CCSD=-419.315325\CCSD(T)=-4
 Normal termination of Gaussian 16 at Tue May 13 19:28:40 2025.
