 Gaussian 16, Revision A.03,
 Gaussian 16:  ES64L-G16RevA.03 25-Dec-2016

 --------------------------
 # freq 6-311++g(d,p) m062x
 --------------------------

 -------------------
 Title Card Required
 -------------------
 Symbolic Z-matrix:
 Charge =  0 Multiplicity = 2

                         Standard orientation:
 ---------------------------------------------------------------------
 Center     Atomic      Atomic             Coordinates (Angstroms)
 Number     Number       Type             X           Y           Z
 ---------------------------------------------------------------------
      1          6           0       -1.448383   -1.357102   -0.385118
      2          1           0       -2.024260   -2.244665   -0.511419
      3          6           0       -0.655289   -0.451663   -0.301874
      4          6           0       -0.026080    0.848822   -0.071356
      5          8           0       -0.701001    1.785328    0.253195
      6          8           0        1.287734    0.950762   -0.244031
      7          6           0        2.071944   -0.223215   -0.526540
      8          6           0        2.405215   -0.972421    0.747788
      9          1           0        1.538999   -0.853668   -1.242245
     10          1           0        2.967424    0.166078   -1.007861
     11          1           0        2.915753   -0.313506    1.451205
     12          1           0        1.501579   -1.361176    1.220978
     13          1           0        3.060732   -1.815125    0.519677
     14          8           0       -3.233774   -0.381018    0.289333
     15          1           0       -2.868330    0.514960    0.404295
 ---------------------------------------------------------------------

 SCF Done:  E(UM062X) =  -420.200065608     A.U. after   23 cycles

 The electronic state is 2-A.
 Alpha  occ. eigenvalues --  -19.69226 -19.66091 -19.63941 -10.71808 -10.62202
 Alpha  occ. eigenvalues --  -10.59553 -10.58304 -10.55210  -1.26340  -1.17749
 Alpha  occ. eigenvalues --   -1.11969  -0.90702  -0.89395  -0.78304  -0.74736
 Alpha  occ. eigenvalues --   -0.65324  -0.62549  -0.59432  -0.57864  -0.54086
 Alpha  occ. eigenvalues --   -0.53712  -0.50627  -0.49736  -0.48114  -0.46865
 Alpha  occ. eigenvalues --   -0.43345  -0.42237  -0.40163  -0.39314  -0.37833
 Alpha  occ. eigenvalues --   -0.34931
 Alpha virt. eigenvalues --   -0.02900  -0.00896   0.00537   0.01106   0.01831
 Alpha virt. eigenvalues --    0.03003   0.03478   0.04571   0.04889   0.05713
 Alpha virt. eigenvalues --    0.06999   0.07295   0.08570   0.08876   0.10196

  Beta  occ. eigenvalues --  -19.69226 -19.64578 -19.63909 -10.71822 -10.62196
  Beta  occ. eigenvalues --  -10.59585 -10.58142 -10.55209  -1.26308  -1.17669
  Beta  occ. eigenvalues --   -1.04908  -0.90022  -0.89363  -0.78229  -0.74607
  Beta  occ. eigenvalues --   -0.65216  -0.62272  -0.59291  -0.57804  -0.53912
  Beta  occ. eigenvalues --   -0.51003  -0.50424  -0.48149  -0.46837  -0.43329
  Beta  occ. eigenvalues --   -0.41249  -0.40354  -0.38830  -0.37393  -0.36485
  Beta virt. eigenvalues --   -0.08578  -0.02839  -0.00877   0.00675   0.01109
  Beta virt. eigenvalues --    0.02048   0.03138   0.03660   0.04661   0.05627
  Beta virt. eigenvalues --    0.05920   0.07225   0.07456   0.08784   0.09031

 Mulliken charges and spin densities:
               1          2
     1  C   -0.627525  -0.118445
     2  H    0.241372   0.014680
     3  C    0.728402   0.224716
     4  C   -0.130977  -0.005285
     5  O   -0.288161   0.010520
     6  O   -0.032513   0.005479
     7  C   -0.347385   0.000766
     8  C   -0.408290   0.005646
     9  H    0.167259  -0.002074
    10  H    0.214012   0.001450
    11  H    0.187480  -0.000712
    12  H    0.142597   0.000076
    13  H    0.159363   0.000735
    14  O   -0.256940   0.878802
    15  H    0.251308  -0.016354
 Sum of Mulliken charges =  -0.00000   1.00000

 Dipole moment (field-independent basis, Debye):
    X=              3.1095    Y=             -3.2650    Z=             -0.9269  Tot=              4.6030
 Quadrupole moment (field-independent basis, Debye-Ang):
   XX=            -48.2344   YY=            -49.2820   ZZ=            -47.4675
   XY=             -1.4084   XZ=              0.3044   YZ=              0.8549

  Exact polarizability:  94.898   1.700  72.213  -3.793   3.824  51.213
 Approx polarizability:  97.320   7.662  92.422  -4.867   6.915  59.706

 ******    2 imaginary frequencies (negative Signs) ******

                      1                      2                      3
                      A                      A                      A
 Frequencies --   -139.8932               -77.6047                33.5642
 Red. masses --     11.9835                 6.7220                 7.2709
 Frc consts  --      0.1382                 0.0239                 0.0048
 IR Inten    --      6.8510                 1.4288                 5.8096

                      4                      5                      6
                      A                      A                      A
 Frequencies --     79.6989               108.0988               187.1539
 Red. masses --      3.5646                 4.0975                 2.1839
 Frc consts  --      0.0133                 0.0282                 0.0451
 IR Inten    --      0.6037                 0.8126                 2.3527

                      7                      8                      9
                      A                      A                      A
 Frequencies --    236.9629               252.3618               305.6873
 Red. masses --      1.4283                 4.3025                 1.0576
 Frc consts  --      0.0473                 0.1614                 0.0582
 IR Inten    --      1.3754                 2.8491               112.6911

                     10                     11                     12
                      A                      A                      A
 Frequencies --    366.5121               413.2321               566.9005
 Red. masses --      3.2670                 3.7562                 4.7674
 Frc consts  --      0.2586                 0.3779                 0.9027
 IR Inten    --      3.9324                 3.7161                17.5292

                     13                     14                     15
                      A                      A                      A
 Frequencies --    633.7332               717.9068               760.1851
 Red. masses --      7.3646                 1.0711                 9.6052
 Frc consts  --      1.7427                 0.3252                 3.2703
 IR Inten    --      7.4703               202.2588                26.7808

                     16                     17                     18
                      A                      A                      A
 Frequencies --    773.0076               783.9673               796.3731
 Red. masses --      3.3120                 1.3368                 1.1742
 Frc consts  --      1.1660                 0.4841                 0.4388
 IR Inten    --     15.8681                35.1939                39.1340

                     19                     20                     21
                      A                      A                      A
 Frequencies --    813.5206               952.3906              1108.2974
 Red. masses --      1.2001                 2.2558                 3.2306
 Frc consts  --      0.4680                 1.2055                 2.3380
 IR Inten    --      4.2673                 7.8072                39.7777

                     22                     23                     24
                      A                      A                      A
 Frequencies --   1134.0851              1182.5441              1277.4933
 Red. masses --      2.7847                 1.8108                 2.5157
 Frc consts  --      2.1102                 1.4919                 2.4190
 IR Inten    --     56.9995                42.2694               396.6405

                     25                     26                     27
                      A                      A                      A
 Frequencies --   1352.5111              1407.4858              1433.5876
 Red. masses --      1.3410                 1.2955                 1.3899
 Frc consts  --      1.4453                 1.5120                 1.6830
 IR Inten    --    174.5134                41.4728                22.3945

                     28                     29                     30
                      A                      A                      A
 Frequencies --   1492.5175              1501.6369              1525.3493
 Red. masses --      1.0402                 1.0485                 1.1049
 Frc consts  --      1.3652                 1.3930                 1.5146
 IR Inten    --      3.8079                 2.7662                23.2650

                     31                     32                     33
                      A                      A                      A
 Frequencies --   1840.7134              2190.1071              3071.6247
 Red. masses --     12.8878                 5.9544                 1.0355
 Frc consts  --     25.7278                16.8274                 5.7560
 IR Inten    --    421.9275                65.6590                 5.8365

                     34                     35                     36
                      A                      A                      A
 Frequencies --   3091.0019              3143.1078              3152.7377
 Red. masses --      1.0651                 1.1029                 1.1009
 Frc consts  --      5.9955                 6.4198                 6.4473
 IR Inten    --     13.6829                 1.2608                12.9529

                     37                     38                     39
                      A                      A                      A
 Frequencies --   3166.1034              3477.2998              3747.8594
 Red. masses --      1.1049                 1.1608                 1.0677
 Frc consts  --      6.5255                 8.2699                 8.8365
 IR Inten    --     24.0606                73.9904                30.0551

 - Thermochemistry -
 -------------------
 Temperature   298.150 Kelvin.  Pressure   1.00000 Atm.
 Atom     1 has atomic number  6 and mass  12.00000

 Molecular mass:   115.03952 amu.
 Principal axes and moments of inertia in atomic units:
                           1         2         3
     Eigenvalues --   524.980531499.101661858.66910
           X            0.99969  -0.02400   0.00726
           Y            0.02407   0.99967  -0.00886
           Z           -0.00704   0.00904   0.99993
 This molecule is an asymmetric top.
 Rotational symmetry number  1.
 Warning -- assumption of classical behavior for rotation
           may cause significant error
 Rotational temperatures (Kelvin)      0.16499     0.05778     0.04660
 Rotational constants (GHZ):           3.43773     1.20388     0.97099
    2 imaginary frequencies ignored.
 Zero-point vibrational energy     293547.6 (Joules/Mol)
                                   70.15955 (Kcal/Mol)
 Warning -- explicit consideration of  10 degrees of freedom as
           vibrations may cause significant error
 Vibrational temperatures:     48.29   114.67   155.53   269.27   340.94
          (Kelvin)            363.09   439.82   527.33   594.55   815.64
                              911.80  1032.91  1093.74  1112.19  1127.95
                             1145.80  1170.47  1370.28  1594.59  1631.70
                             1701.42  1838.03  1945.96  2025.06  2062.61
                             2147.40  2160.52  2194.64  2648.38  3151.08
                             4419.38  4447.26  4522.23  4536.09  4555.32
                             5003.06  5392.33

 Zero-point correction=                           0.111806 (Hartree/Particle)
 Thermal correction to Energy=                    0.120625
 Thermal correction to Enthalpy=                  0.121569
 Thermal correction to Gibbs Free Energy=         0.076447
 Sum of electronic and zero-point Energies=           -420.088259
 Sum of electronic and thermal Energies=              -420.079440
 Sum of electronic and thermal Enthalpies=            -420.078496
 Sum of electronic and thermal Free Energies=         -420.123619

                     E (Thermal)             CV                S
                      KCal/Mol        Cal/Mol-Kelvin    Cal/Mol-Kelvin
 Total                   75.693             30.036             94.969
 Electronic               0.000              0.000              1.377
 Translational            0.889              2.981             40.136
 Rotational               0.889              2.981             28.771
 Vibrational             73.916             24.075             24.685
 Vibration     1          0.594              1.983              5.607
 Vibration     2          0.600              1.963              3.898
 Vibration     3          0.606              1.943              3.303
 Vibration     4          0.632              1.857              2.256
 Vibration     5          0.656              1.784              1.826
 Vibration     6          0.664              1.759              1.714
 Vibration     7          0.696              1.663              1.386
 Vibration     8          0.739              1.541              1.094
 Vibration     9          0.777              1.442              0.915
 Vibration    10          0.923              1.103              0.510

 Normal termination of Gaussian 16 at Fri Mar 28 10:53:54 2025.
