 Gaussian 16, Revision A.03,
 Gaussian 16:  ES64L-G16RevA.03 25-Dec-2016

 --------------------------
 # freq 6-311++g(d,p) m062x
 --------------------------

 -------------------
 Title Card Required
 -------------------
 Symbolic Z-matrix:
 Charge =  0 Multiplicity = 2

                         Standard orientation:
 ---------------------------------------------------------------------
 Center     Atomic      Atomic             Coordinates (Angstroms)
 Number     Number       Type             X           Y           Z
 ---------------------------------------------------------------------
      1          8           0       -1.420808    1.564215    0.123236
      2          1           0       -2.034189    1.726918    0.851446
      3          6           0       -2.770076   -0.504546   -0.457093
      4          1           0       -3.797724   -0.563542   -0.738109
      5          6           0       -1.613676   -0.125721   -0.121788
      6          6           0       -0.221779   -0.563399    0.216261
      7          8           0        0.105979   -0.951018    1.300643
      8          8           0        0.581921   -0.344001   -0.814620
      9          6           0        1.997370   -0.432745   -0.544485
     10          6           0        2.481651    0.820891    0.156950
     11          1           0        2.447782   -0.547023   -1.528564
     12          1           0        2.185920   -1.327446    0.049633
     13          1           0        3.563445    0.768593    0.294446
     14          1           0        2.244681    1.703429   -0.438274
     15          1           0        2.012407    0.918622    1.136282
 ---------------------------------------------------------------------

 SCF Done:  E(UM062X) =  -420.217872069     A.U. after   19 cycles

 The electronic state is 2-A.
 Alpha  occ. eigenvalues --  -19.68192 -19.64399 -19.63222 -10.70359 -10.63219
 Alpha  occ. eigenvalues --  -10.60396 -10.59582 -10.53379  -1.25748  -1.16463
 Alpha  occ. eigenvalues --   -1.11438  -0.91254  -0.87621  -0.78153  -0.70919
 Alpha  occ. eigenvalues --   -0.64643  -0.62112  -0.58923  -0.57916  -0.53887
 Alpha  occ. eigenvalues --   -0.53074  -0.49705  -0.48155  -0.46133  -0.45135
 Alpha  occ. eigenvalues --   -0.41741  -0.40463  -0.39615  -0.38396  -0.36244
 Alpha  occ. eigenvalues --   -0.31377
 Alpha virt. eigenvalues --   -0.00254   0.00382   0.00932   0.01318   0.02278
 Alpha virt. eigenvalues --    0.02704   0.03193   0.04326   0.05780   0.06139
 Alpha virt. eigenvalues --    0.07132   0.07715   0.08391   0.10022   0.10498

  Beta  occ. eigenvalues --  -19.68188 -19.63788 -19.63229 -10.70303 -10.63379
  Beta  occ. eigenvalues --  -10.60395 -10.58976 -10.53380  -1.25713  -1.16463
  Beta  occ. eigenvalues --   -1.09287  -0.90058  -0.86574  -0.77492  -0.70079
  Beta  occ. eigenvalues --   -0.64422  -0.61219  -0.58705  -0.57551  -0.53095
  Beta  occ. eigenvalues --   -0.52792  -0.48771  -0.47031  -0.45271  -0.43245
  Beta  occ. eigenvalues --   -0.41681  -0.39231  -0.38958  -0.38366  -0.34850
  Beta virt. eigenvalues --   -0.08861  -0.00211   0.00458   0.01448   0.02073
  Beta virt. eigenvalues --    0.02355   0.02762   0.03392   0.04376   0.05753
  Beta virt. eigenvalues --    0.06019   0.07235   0.07600   0.08439   0.09876

 Mulliken charges and spin densities:
               1          2
     1  O   -0.285536   0.301399
     2  H    0.252861  -0.000977
     3  C   -0.027553   0.981381
     4  H    0.221612  -0.028908
     5  C    0.152715  -0.318602
     6  C   -0.368987   0.062432
     7  O   -0.208212  -0.002413
     8  O    0.048096   0.003323
     9  C   -0.279925   0.001583
    10  C   -0.419893   0.001830
    11  H    0.195429   0.000256
    12  H    0.189179  -0.000227
    13  H    0.166338  -0.000078
    14  H    0.174055  -0.000301
    15  H    0.189822  -0.000697
 Sum of Mulliken charges =  -0.00000   1.00000

 Dipole moment (field-independent basis, Debye):
    X=             -0.6902    Y=             -0.4748    Z=             -0.8061  Tot=              1.1626
 Quadrupole moment (field-independent basis, Debye-Ang):
   XX=            -30.2512   YY=            -50.0513   ZZ=            -50.9421
   XY=              0.7540   XZ=             -1.5352   YZ=              4.9511

  Exact polarizability:  88.175   6.186  67.422   3.644   2.149  59.271
 Approx polarizability:  90.754   8.442  80.139   5.571   0.348  76.715

 ******    1 imaginary frequencies (negative Signs) ******

                      1                      2                      3
                      A                      A                      A
 Frequencies --   -529.0888                75.9059                94.5035
 Red. masses --      6.9787                 2.0064                 4.2314
 Frc consts  --      1.1510                 0.0068                 0.0223
 IR Inten    --     65.8390                11.9937                 9.3870

                      4                      5                      6
                      A                      A                      A
 Frequencies --    111.7743               149.1721               188.4103
 Red. masses --      2.4543                 1.8176                 1.7408
 Frc consts  --      0.0181                 0.0238                 0.0364
 IR Inten    --      7.1192                48.9830                 6.6853

                      7                      8                      9
                      A                      A                      A
 Frequencies --    234.0720               246.2436               264.7012
 Red. masses --      1.3858                 1.5847                 5.2485
 Frc consts  --      0.0447                 0.0566                 0.2167
 IR Inten    --     28.1640                11.1039                 1.2784

                     10                     11                     12
                      A                      A                      A
 Frequencies --    339.0428               352.7081               447.8801
 Red. masses --      3.1392                 8.5816                 3.5378
 Frc consts  --      0.2126                 0.6290                 0.4181
 IR Inten    --     10.9192                 2.7129                 8.0195

                     13                     14                     15
                      A                      A                      A
 Frequencies --    590.0110               633.8324               694.1852
 Red. masses --      3.9983                 5.1983                 1.4054
 Frc consts  --      0.8201                 1.2304                 0.3990
 IR Inten    --      8.3318                15.1203                40.4004

                     16                     17                     18
                      A                      A                      A
 Frequencies --    782.7664               801.8627               894.2853
 Red. masses --     10.6763                 1.2120                 3.2411
 Frc consts  --      3.8542                 0.4592                 1.5272
 IR Inten    --     16.8575                 4.8692                16.3252

                     19                     20                     21
                      A                      A                      A
 Frequencies --    918.4771              1051.7007              1077.7044
 Red. masses --      2.6703                 1.5309                 2.1955
 Frc consts  --      1.3272                 0.9976                 1.5024
 IR Inten    --      1.6548                24.3026                54.0109

                     22                     23                     24
                      A                      A                      A
 Frequencies --   1129.1709              1203.0603              1282.5634
 Red. masses --      2.0788                 1.7728                 3.9091
 Frc consts  --      1.5616                 1.5118                 3.7887
 IR Inten    --     21.9887                 7.7947               509.0198

                     25                     26                     27
                      A                      A                      A
 Frequencies --   1344.1522              1402.0186              1430.4217
 Red. masses --      1.2368                 1.2808                 1.3658
 Frc consts  --      1.3166                 1.4833                 1.6465
 IR Inten    --     83.7672                20.3953                11.9801

                     28                     29                     30
                      A                      A                      A
 Frequencies --   1491.7077              1501.8357              1514.2879
 Red. masses --      1.0400                 1.0541                 1.0928
 Frc consts  --      1.3635                 1.4008                 1.4764
 IR Inten    --     10.5942                 0.9256                18.9316

                     31                     32                     33
                      A                      A                      A
 Frequencies --   1825.6239              1877.9060              3076.8593
 Red. masses --      8.5940                 9.4169                 1.0353
 Frc consts  --     16.8759                19.5663                 5.7748
 IR Inten    --    163.3100               179.8837                 9.0206

                     34                     35                     36
                      A                      A                      A
 Frequencies --   3109.7434              3154.2413              3155.4621
 Red. masses --      1.0608                 1.1011                 1.1052
 Frc consts  --      6.0441                 6.4543                 6.4834
 IR Inten    --     19.7376                16.3936                 0.0932

                     37                     38                     39
                      A                      A                      A
 Frequencies --   3177.0463              3439.6235              3856.6861
 Red. masses --      1.1075                 1.1244                 1.0676
 Frc consts  --      6.5862                 7.8378                 9.3561
 IR Inten    --     14.3945                79.9012                64.9805

 - Thermochemistry -
 -------------------
 Temperature   298.150 Kelvin.  Pressure   1.00000 Atm.
 Atom     1 has atomic number  8 and mass  15.99491

 Molecular mass:   115.03952 amu.
 Principal axes and moments of inertia in atomic units:
                           1         2         3
     Eigenvalues --   474.212231373.738751491.34026
           X            0.99993   0.01161   0.00017
           Y           -0.01157   0.99533   0.09579
           Z            0.00094  -0.09579   0.99540
 This molecule is an asymmetric top.
 Rotational symmetry number  1.
 Warning -- assumption of classical behavior for rotation
           may cause significant error
 Rotational temperatures (Kelvin)      0.18265     0.06305     0.05808
 Rotational constants (GHZ):           3.80577     1.31374     1.21015
    1 imaginary frequencies ignored.
 Zero-point vibrational energy     292616.4 (Joules/Mol)
                                   69.93701 (Kcal/Mol)
 Warning -- explicit consideration of  12 degrees of freedom as
           vibrations may cause significant error
 Vibrational temperatures:    109.21   135.97   160.82   214.63   271.08
          (Kelvin)            336.78   354.29   380.85   487.81   507.47
                              644.40   848.89   911.94   998.78  1126.23
                             1153.70  1286.68  1321.48  1513.16  1550.58
                             1624.63  1730.94  1845.32  1933.94  2017.19
                             2058.06  2146.23  2160.81  2178.72  2626.67
                             2701.89  4426.91  4474.23  4538.25  4540.01
                             4571.06  4948.85  5548.91

 Zero-point correction=                           0.111452 (Hartree/Particle)
 Thermal correction to Energy=                    0.121050
 Thermal correction to Enthalpy=                  0.121994
 Thermal correction to Gibbs Free Energy=         0.076263
 Sum of electronic and zero-point Energies=           -420.106420
 Sum of electronic and thermal Energies=              -420.096822
 Sum of electronic and thermal Enthalpies=            -420.095878
 Sum of electronic and thermal Free Energies=         -420.141609

                     E (Thermal)             CV                S
                      KCal/Mol        Cal/Mol-Kelvin    Cal/Mol-Kelvin
 Total                   75.960             32.405             96.250
 Electronic               0.000              0.000              1.377
 Translational            0.889              2.981             40.136
 Rotational               0.889              2.981             28.365
 Vibrational             74.183             26.443             26.373
 Vibration     1          0.599              1.965              3.994
 Vibration     2          0.603              1.953              3.565
 Vibration     3          0.607              1.940              3.238
 Vibration     4          0.618              1.904              2.683
 Vibration     5          0.633              1.856              2.243
 Vibration     6          0.654              1.789              1.847
 Vibration     7          0.661              1.769              1.757
 Vibration     8          0.671              1.738              1.631
 Vibration     9          0.719              1.597              1.217
 Vibration    10          0.729              1.570              1.154
 Vibration    11          0.807              1.366              0.802
 Vibration    12          0.947              1.053              0.467

 1\1\GINC-AJ\Freq\UM062X\6-311++G(d,p)\C5H7O3(2)\AAYUSH\16-Aug-2025\0\\
 # freq 6-311++g(d,p) m062x\\Title Card Required\\0,2\O,-1.361063,1.591
 925,0.08412\H,-1.973478,1.772625,0.808891\C,-2.714204,-0.487658,-0.446
 371\H,-3.742216,-0.551546,-0.724975\C,-1.556875,-0.102968,-0.121099\C,
 -0.165355,-0.534874,0.225811\O,0.162828,-0.897537,1.318665\O,0.637699,
 -0.340972,-0.810669\C,2.053264,-0.425668,-0.539845\C,2.540231,0.843254
 ,0.131603\H,2.502542,-0.563681,-1.521396\H,2.240954,-1.306523,0.074879
 \H,3.622072,0.792431,0.269281\H,2.304101,1.712002,-0.483897\H,2.07209,

 Normal termination of Gaussian 16 at Sat Aug 16 16:21:06 2025.
