 Gaussian 16, Revision A.03,
 Gaussian 16:  ES64L-G16RevA.03 25-Dec-2016

 -------------------
 # freq 6-31+g m062x
 -------------------

 -------------------
 Title Card Required
 -------------------
 Symbolic Z-matrix:
 Charge =  0 Multiplicity = 2

                         Standard orientation:
 ---------------------------------------------------------------------
 Center     Atomic      Atomic             Coordinates (Angstroms)
 Number     Number       Type             X           Y           Z
 ---------------------------------------------------------------------
      1          8           0       -1.390533    1.806765    0.075306
      2          1           0       -2.021846    1.849263    0.812635
      3          6           0       -2.798540   -0.496366   -0.431484
      4          1           0       -3.830347   -0.507786   -0.695211
      5          6           0       -1.630348   -0.471611   -0.151918
      6          6           0       -0.225967   -0.588666    0.238727
      7          8           0        0.118400   -0.871975    1.352214
      8          8           0        0.577360   -0.384162   -0.797979
      9          6           0        1.991681   -0.462494   -0.527046
     10          6           0        2.487492    0.819377    0.110938
     11          1           0        2.439053   -0.627524   -1.505525
     12          1           0        2.178175   -1.327756    0.110282
     13          1           0        3.569778    0.767742    0.245073
     14          1           0        2.253703    1.673762   -0.525493
     15          1           0        2.023761    0.965840    1.086607
 ---------------------------------------------------------------------

 SCF Done:  E(UM062X) =  -419.960485269     A.U. after   24 cycles

 The electronic state is 2-A.
 Alpha  occ. eigenvalues --  -19.70336 -19.70298 -19.66018 -10.72855 -10.61237
 Alpha  occ. eigenvalues --  -10.59453 -10.59091 -10.54091  -1.27783  -1.18424
 Alpha  occ. eigenvalues --   -1.14648  -0.91244  -0.87784  -0.78350  -0.71028
 Alpha  occ. eigenvalues --   -0.64391  -0.61943  -0.58372  -0.57024  -0.54723
 Alpha  occ. eigenvalues --   -0.53671  -0.50491  -0.48728  -0.46388  -0.44944
 Alpha  occ. eigenvalues --   -0.42512  -0.41658  -0.39411  -0.37974  -0.36699
 Alpha  occ. eigenvalues --   -0.36343
 Alpha virt. eigenvalues --   -0.01186   0.01985   0.02497   0.03653   0.03777
 Alpha virt. eigenvalues --    0.04523   0.05466   0.05911   0.07702   0.08377
 Alpha virt. eigenvalues --    0.08854   0.08907   0.10073   0.11859   0.12287

  Beta  occ. eigenvalues --  -19.70302 -19.68693 -19.66031 -10.72842 -10.61237
  Beta  occ. eigenvalues --  -10.59440 -10.59004 -10.54091  -1.27790  -1.18448
  Beta  occ. eigenvalues --   -1.07356  -0.91013  -0.87602  -0.78271  -0.70944
  Beta  occ. eigenvalues --   -0.64358  -0.61714  -0.58274  -0.56700  -0.53658
  Beta  occ. eigenvalues --   -0.51710  -0.49217  -0.46572  -0.44983  -0.41656
  Beta  occ. eigenvalues --   -0.39386  -0.39037  -0.38379  -0.38000  -0.36415
  Beta virt. eigenvalues --   -0.09196  -0.00721   0.02036   0.02508   0.03766
  Beta virt. eigenvalues --    0.03818   0.04703   0.05535   0.06003   0.07762
  Beta virt. eigenvalues --    0.08327   0.08910   0.09027   0.10147   0.11981

 Mulliken charges and spin densities:
               1          2
     1  O   -0.412889   0.941030
     2  H    0.404299  -0.034715
     3  C   -0.266191   0.094803
     4  H    0.342327  -0.005389
     5  C   -0.171117  -0.040401
     6  C    0.281221   0.052209
     7  O   -0.334543  -0.005883
     8  O   -0.164677  -0.000366
     9  C   -0.232492  -0.001240
    10  C   -0.565149   0.000193
    11  H    0.219067  -0.000014
    12  H    0.231205  -0.000055
    13  H    0.204506  -0.000026
    14  H    0.227411  -0.000062
    15  H    0.237020  -0.000084
 Sum of Mulliken charges =  -0.00000   1.00000

 Dipole moment (field-independent basis, Debye):
    X=             -0.7832    Y=              0.2328    Z=             -0.3415  Tot=              0.8856
 Quadrupole moment (field-independent basis, Debye-Ang):
   XX=            -29.9569   YY=            -48.7274   ZZ=            -52.5202
   XY=             -1.0914   XZ=             -2.4243   YZ=              5.6817

  Exact polarizability:  87.312   3.978  58.344   3.646  -0.233  56.790
 Approx polarizability:  93.183   2.858  57.712   7.399  -3.730  71.371

 ******    4 imaginary frequencies (negative Signs) ******

                      1                      2                      3
                      A                      A                      A
 Frequencies --   -460.1052              -164.6641               -74.2249
 Red. masses --      1.0896                 2.1874                 5.0121
 Frc consts  --      0.1359                 0.0349                 0.0163
 IR Inten    --    124.2285                68.2013                 8.2918

                      4                      5                      6
                      A                      A                      A
 Frequencies --    -15.9018                76.9462                90.0647
 Red. masses --      2.7988                 3.2855                 3.2281
 Frc consts  --      0.0004                 0.0115                 0.0154
 IR Inten    --      0.2467                 2.3501                 7.3939

                      7                      8                      9
                      A                      A                      A
 Frequencies --    131.1233               174.0573               222.1016
 Red. masses --      4.3792                 1.3387                 2.8737
 Frc consts  --      0.0444                 0.0239                 0.0835
 IR Inten    --     14.3481                 2.0218                 7.9450

                     10                     11                     12
                      A                      A                      A
 Frequencies --    291.4983               311.7108               423.9931
 Red. masses --      2.7779                 2.9948                 3.8281
 Frc consts  --      0.1391                 0.1714                 0.4055
 IR Inten    --     47.5515                17.7698                 0.9477

                     13                     14                     15
                      A                      A                      A
 Frequencies --    572.2803               624.2511               762.6523
 Red. masses --      4.2300                 5.3347                 3.4139
 Frc consts  --      0.8162                 1.2248                 1.1699
 IR Inten    --      2.8426                13.0485                82.7957

                     16                     17                     18
                      A                      A                      A
 Frequencies --    786.8657               816.5575               825.1143
 Red. masses --      1.5414                 1.2935                 1.5760
 Frc consts  --      0.5623                 0.5082                 0.6322
 IR Inten    --     51.7123                10.1332                15.3433

                     19                     20                     21
                      A                      A                      A
 Frequencies --    899.4549               945.7750              1112.9721
 Red. masses --      3.4192                 2.5259                 4.1599
 Frc consts  --      1.6298                 1.3312                 3.0360
 IR Inten    --     20.9463                 5.5401                 8.2508

                     22                     23                     24
                      A                      A                      A
 Frequencies --   1159.4860              1228.7081              1329.8010
 Red. masses --      2.0887                 1.7539                 1.8313
 Frc consts  --      1.6545                 1.5601                 1.9080
 IR Inten    --     18.7897                 4.5416               287.8433

                     25                     26                     27
                      A                      A                      A
 Frequencies --   1373.7325              1443.8767              1457.4493
 Red. masses --      1.8537                 1.3871                 1.2698
 Frc consts  --      2.0611                 1.7038                 1.5892
 IR Inten    --    305.6429                42.0007                17.0857

                     28                     29                     30
                      A                      A                      A
 Frequencies --   1525.8053              1536.5509              1544.3419
 Red. masses --      1.0415                 1.0605                 1.0849
 Frc consts  --      1.4286                 1.4752                 1.5246
 IR Inten    --     14.6568                 2.0851                27.0126

                     31                     32                     33
                      A                      A                      A
 Frequencies --   1907.5715              2307.1136              3107.7509
 Red. masses --     12.2573                 5.6447                 1.0351
 Frc consts  --     26.2789                17.7023                 5.8900
 IR Inten    --    309.4684                61.4020                13.2497

                     34                     35                     36
                      A                      A                      A
 Frequencies --   3136.2140              3187.9160              3190.1768
 Red. masses --      1.0601                 1.1022                 1.1009
 Frc consts  --      6.1435                 6.5995                 6.6015
 IR Inten    --     21.7508                 6.7566                14.2642

                     37                     38                     39
                      A                      A                      A
 Frequencies --   3211.0752              3529.8989              3806.6879
 Red. masses --      1.1050                 1.1748                 1.0672
 Frc consts  --      6.7132                 8.6246                 9.1112
 IR Inten    --     17.6631                60.3975                10.3711

 - Thermochemistry -
 -------------------
 Temperature   298.150 Kelvin.  Pressure   1.00000 Atm.
 Atom     1 has atomic number  8 and mass  15.99491

 Molecular mass:   115.03952 amu.
 Principal axes and moments of inertia in atomic units:
                           1         2         3
     Eigenvalues --   530.172321382.839311548.88471
           X            0.99995   0.01008  -0.00138
           Y           -0.00997   0.99790   0.06398
           Z            0.00202  -0.06396   0.99795
 This molecule is an asymmetric top.
 Rotational symmetry number  1.
 Warning -- assumption of classical behavior for rotation
           may cause significant error
 Rotational temperatures (Kelvin)      0.16337     0.06263     0.05592
 Rotational constants (GHZ):           3.40407     1.30510     1.16519
    4 imaginary frequencies ignored.
 Zero-point vibrational energy     293393.6 (Joules/Mol)
                                   70.12275 (Kcal/Mol)
 Warning -- explicit consideration of   9 degrees of freedom as
           vibrations may cause significant error
 Vibrational temperatures:    110.71   129.58   188.66   250.43   319.55
          (Kelvin)            419.40   448.48   610.03   823.38   898.16
                             1097.29  1132.12  1174.84  1187.16  1294.12
                             1360.76  1601.32  1668.24  1767.84  1913.29
                             1976.49  2077.42  2096.94  2195.29  2210.75
                             2221.96  2744.57  3319.42  4471.36  4512.31
                             4586.70  4589.95  4620.02  5078.74  5476.97

 Zero-point correction=                           0.111748 (Hartree/Particle)
 Thermal correction to Energy=                    0.119885
 Thermal correction to Enthalpy=                  0.120830
 Thermal correction to Gibbs Free Energy=         0.077652
 Sum of electronic and zero-point Energies=           -419.848738
 Sum of electronic and thermal Energies=              -419.840600
 Sum of electronic and thermal Enthalpies=            -419.839656
 Sum of electronic and thermal Free Energies=         -419.882833

                     E (Thermal)             CV                S
                      KCal/Mol        Cal/Mol-Kelvin    Cal/Mol-Kelvin
 Total                   75.229             27.216             90.875
 Electronic               0.000              0.000              1.377
 Translational            0.889              2.981             40.136
 Rotational               0.889              2.981             28.520
 Vibrational             73.452             21.254             20.842
 Vibration     1          0.599              1.965              3.967
 Vibration     2          0.602              1.956              3.659
 Vibration     3          0.612              1.922              2.930
 Vibration     4          0.627              1.874              2.391
 Vibration     5          0.648              1.807              1.942
 Vibration     6          0.687              1.690              1.465
 Vibration     7          0.700              1.651              1.353
 Vibration     8          0.786              1.418              0.879
 Vibration     9          0.928              1.091              0.500

 Normal termination of Gaussian 16 at Fri Jun 20 13:37:54 2025.
