 Gaussian 16, Revision A.03,
 Gaussian 16:  ES64L-G16RevA.03 25-Dec-2016

 --------------------------
 # freq 6-311++g(d,p) m062x
 --------------------------

 -------------------
 Title Card Required
 -------------------
 Symbolic Z-matrix:
 Charge =  0 Multiplicity = 2

                         Standard orientation:
 ---------------------------------------------------------------------
 Center     Atomic      Atomic             Coordinates (Angstroms)
 Number     Number       Type             X           Y           Z
 ---------------------------------------------------------------------
      1          8           0       -1.399437    1.744684    0.087529
      2          1           0       -2.032937    1.825776    0.819010
      3          6           0       -2.790960   -0.491932   -0.436857
      4          1           0       -3.820140   -0.540073   -0.706745
      5          6           0       -1.625836   -0.397145   -0.147902
      6          6           0       -0.223646   -0.572646    0.234689
      7          8           0        0.114003   -0.892943    1.339534
      8          8           0        0.579967   -0.372236   -0.801978
      9          6           0        1.993860   -0.456061   -0.530917
     10          6           0        2.485892    0.819745    0.122456
     11          1           0        2.442414   -0.609176   -1.510728
     12          1           0        2.180011   -1.328648    0.096305
     13          1           0        3.567910    0.769450    0.258883
     14          1           0        2.251146    1.680540   -0.504904
     15          1           0        2.019479    0.954329    1.098680
 ---------------------------------------------------------------------

 SCF Done:  E(UM062X) =  -420.204970189     A.U. after   24 cycles

 The electronic state is 2-A.
 Alpha  occ. eigenvalues --  -19.68013 -19.67047 -19.62912 -10.70529 -10.60307
 Alpha  occ. eigenvalues --  -10.58142 -10.57748 -10.53358  -1.25531  -1.16230
 Alpha  occ. eigenvalues --   -1.12943  -0.90696  -0.87222  -0.77978  -0.70520
 Alpha  occ. eigenvalues --   -0.64333  -0.61751  -0.58414  -0.57084  -0.54480
 Alpha  occ. eigenvalues --   -0.53238  -0.50446  -0.48578  -0.46154  -0.45036
 Alpha  occ. eigenvalues --   -0.42018  -0.41703  -0.39486  -0.38258  -0.36456
 Alpha  occ. eigenvalues --   -0.35400
 Alpha virt. eigenvalues --   -0.00909  -0.00203   0.00513   0.01472   0.02526
 Alpha virt. eigenvalues --    0.02793   0.03653   0.04398   0.05635   0.06185
 Alpha virt. eigenvalues --    0.07148   0.07663   0.08467   0.09815   0.10736

  Beta  occ. eigenvalues --  -19.68018 -19.65516 -19.62928 -10.70512 -10.60307
  Beta  occ. eigenvalues --  -10.58144 -10.57615 -10.53359  -1.25538  -1.16264
  Beta  occ. eigenvalues --   -1.05931  -0.90332  -0.86908  -0.77830  -0.70371
  Beta  occ. eigenvalues --   -0.64272  -0.61423  -0.58367  -0.56590  -0.53216
  Beta  occ. eigenvalues --   -0.51905  -0.49022  -0.46514  -0.45079  -0.41699
  Beta  occ. eigenvalues --   -0.39427  -0.39017  -0.38377  -0.38077  -0.36028
  Beta virt. eigenvalues --   -0.09166  -0.00308   0.00096   0.00565   0.01766
  Beta virt. eigenvalues --    0.02637   0.02825   0.03674   0.04485   0.05706
  Beta virt. eigenvalues --    0.06195   0.07243   0.07661   0.08497   0.09905

 Mulliken charges and spin densities:
               1          2
     1  O   -0.223643   0.880108
     2  H    0.234812  -0.019889
     3  C   -1.401761   0.199956
     4  H    0.183307  -0.010514
     5  C    1.423922  -0.096973
     6  C   -0.306428   0.054350
     7  O   -0.198743  -0.007571
     8  O    0.060602   0.000352
     9  C   -0.270320  -0.000274
    10  C   -0.416195   0.001357
    11  H    0.194869   0.000119
    12  H    0.189123   0.000000
    13  H    0.170253   0.000068
    14  H    0.171111  -0.000204
    15  H    0.189091  -0.000887
 Sum of Mulliken charges =  -0.00000   1.00000

 Dipole moment (field-independent basis, Debye):
    X=             -0.6413    Y=              0.1411    Z=             -0.6412  Tot=              0.9178
 Quadrupole moment (field-independent basis, Debye-Ang):
   XX=            -30.2488   YY=            -48.6438   ZZ=            -51.2576
   XY=             -0.3952   XZ=             -1.8659   YZ=              5.1066

  Exact polarizability:  91.501   5.686  67.113   4.412   1.563  59.380
 Approx polarizability:  99.073   5.236  71.474   7.449  -1.525  76.706

 ******    1 imaginary frequencies (negative Signs) ******

                      1                      2                      3
                      A                      A                      A
 Frequencies --    -31.4117                 1.1997                86.2688
 Red. masses --      4.5586                 5.1852                 6.0402
 Frc consts  --      0.0027                 0.0000                 0.0265
 IR Inten    --      2.8780                10.6813                 7.7186

                      4                      5                      6
                      A                      A                      A
 Frequencies --    117.0861               131.2690               160.0104
 Red. masses --      4.9895                 4.4293                 2.5586
 Frc consts  --      0.0403                 0.0450                 0.0386
 IR Inten    --      3.4677                10.5771                10.7009

                      7                      8                      9
                      A                      A                      A
 Frequencies --    207.9454               225.9007               255.3501
 Red. masses --      1.5663                 1.3907                 1.9952
 Frc consts  --      0.0399                 0.0418                 0.0766
 IR Inten    --     38.6071                 2.0953                31.5625

                     10                     11                     12
                      A                      A                      A
 Frequencies --    336.5020               427.4100               557.8356
 Red. masses --      2.9132                 3.7723                 3.2295
 Frc consts  --      0.1944                 0.4060                 0.5921
 IR Inten    --      9.8397                 3.6099                13.4651

                     13                     14                     15
                      A                      A                      A
 Frequencies --    606.1373               617.5001               722.9866
 Red. masses --      3.3721                 1.4132                 1.3288
 Frc consts  --      0.7300                 0.3175                 0.4092
 IR Inten    --     32.2695                58.6231                36.2003

                     16                     17                     18
                      A                      A                      A
 Frequencies --    747.5473               775.9667               803.0557
 Red. masses --      1.3272                 7.5753                 1.2081
 Frc consts  --      0.4370                 2.6874                 0.4590
 IR Inten    --     20.9311                56.5139                 5.3371

                     19                     20                     21
                      A                      A                      A
 Frequencies --    897.6455               929.4327              1076.4393
 Red. masses --      3.2291                 2.7571                 4.1330
 Frc consts  --      1.5330                 1.4033                 2.8216
 IR Inten    --     15.7263                 5.7298                22.6367

                     22                     23                     24
                      A                      A                      A
 Frequencies --   1129.8253              1204.5630              1292.2996
 Red. masses --      2.0929                 1.7710                 3.5975
 Frc consts  --      1.5740                 1.5140                 3.5398
 IR Inten    --     22.6244                 5.4416               537.6376

                     25                     26                     27
                      A                      A                      A
 Frequencies --   1346.8283              1402.0944              1431.5286
 Red. masses --      1.2595                 1.2856                 1.3855
 Frc consts  --      1.3461                 1.4891                 1.6729
 IR Inten    --    104.7251                28.8785                12.5293

                     28                     29                     30
                      A                      A                      A
 Frequencies --   1491.0798              1502.4974              1515.0860
 Red. masses --      1.0401                 1.0553                 1.0930
 Frc consts  --      1.3624                 1.4036                 1.4783
 IR Inten    --     10.8421                 1.0621                21.2860

                     31                     32                     33
                      A                      A                      A
 Frequencies --   1843.4661              2219.7994              3075.7547
 Red. masses --     11.9978                 5.9377                 1.0353
 Frc consts  --     24.0227                17.2384                 5.7705
 IR Inten    --    338.9628                69.1117                 9.6910

                     34                     35                     36
                      A                      A                      A
 Frequencies --   3107.0484              3152.3116              3154.2374
 Red. masses --      1.0607                 1.1021                 1.1044
 Frc consts  --      6.0332                 6.4524                 6.4737
 IR Inten    --     19.8890                12.8160                 4.4413

                     37                     38                     39
                      A                      A                      A
 Frequencies --   3174.9016              3485.4861              3804.1775
 Red. masses --      1.1073                 1.1634                 1.0673
 Frc consts  --      6.5762                 8.3271                 9.1005
 IR Inten    --     14.9217                68.5441                39.8714

 - Thermochemistry -
 -------------------
 Temperature   298.150 Kelvin.  Pressure   1.00000 Atm.
 Atom     1 has atomic number  8 and mass  15.99491

 Molecular mass:   115.03952 amu.
 Principal axes and moments of inertia in atomic units:
                           1         2         3
     Eigenvalues --   514.012431380.722981532.64639
           X            0.99994   0.01060  -0.00098
           Y           -0.01050   0.99740   0.07131
           Z            0.00174  -0.07129   0.99745
 This molecule is an asymmetric top.
 Rotational symmetry number  1.
 Warning -- assumption of classical behavior for rotation
           may cause significant error
 Rotational temperatures (Kelvin)      0.16851     0.06273     0.05651
 Rotational constants (GHZ):           3.51108     1.30710     1.17753
    1 imaginary frequencies ignored.
 Zero-point vibrational energy     293183.6 (Joules/Mol)
                                   70.07257 (Kcal/Mol)
 Warning -- explicit consideration of  13 degrees of freedom as
           vibrations may cause significant error
 Vibrational temperatures:      1.73   124.12   168.46   188.87   230.22
          (Kelvin)            299.19   325.02   367.39   484.15   614.95
                              802.60   872.10   888.44  1040.22  1075.55
                             1116.44  1155.42  1291.51  1337.25  1548.76
                             1625.57  1733.10  1859.33  1937.79  2017.30
                             2059.65  2145.33  2161.76  2179.87  2652.34
                             3193.80  4425.33  4470.35  4535.47  4538.24
                             4567.98  5014.84  5473.36

 Zero-point correction=                           0.111668 (Hartree/Particle)
 Thermal correction to Energy=                    0.121490
 Thermal correction to Enthalpy=                  0.122434
 Thermal correction to Gibbs Free Energy=         0.072426
 Sum of electronic and zero-point Energies=           -420.093302
 Sum of electronic and thermal Energies=              -420.083480
 Sum of electronic and thermal Enthalpies=            -420.082536
 Sum of electronic and thermal Free Energies=         -420.132545

                     E (Thermal)             CV                S
                      KCal/Mol        Cal/Mol-Kelvin    Cal/Mol-Kelvin
 Total                   76.236             32.504            105.252
 Electronic               0.000              0.000              1.377
 Translational            0.889              2.981             40.136
 Rotational               0.889              2.981             28.477
 Vibrational             74.459             26.542             35.262
 Vibration     1          0.592              1.987             12.225
 Vibration     2          0.601              1.959              3.743
 Vibration     3          0.608              1.935              3.148
 Vibration     4          0.612              1.922              2.927
 Vibration     5          0.622              1.891              2.550
 Vibration     6          0.641              1.829              2.062
 Vibration     7          0.650              1.802              1.911
 Vibration     8          0.666              1.754              1.693
 Vibration     9          0.717              1.603              1.229
 Vibration    10          0.789              1.411              0.867
 Vibration    11          0.913              1.123              0.528
 Vibration    12          0.965              1.019              0.439
 Vibration    13          0.977              0.995              0.421

 1\1\GINC-AJ\Freq\UM062X\6-311++G(d,p)\C5H7O3(2)\AAYUSH\16-Aug-2025\0\\
 # freq 6-311++g(d,p) m062x\\Title Card Required\\0,2\O,-1.34446,1.7657
 08,0.106493\H,-1.97871,1.836166,0.838426\C,-2.733094,-0.46505,-0.44955
 \H,-3.761976,-0.510612,-0.721015\C,-1.568335,-0.37296,-0.15826\C,-0.16
 6304,-0.552154,0.223199\O,0.17069,-0.887091,1.323895\O,0.638031,-0.336
 803,-0.809906\C,2.051768,-0.4228,-0.538709\C,2.541831,0.844523,0.13241
 1\H,2.501374,-0.562093,-1.520099\H,2.238292,-1.30364,0.076756\H,3.6237
 79,0.793531,0.269137\H,2.306725,1.713523,-0.483398\H,2.074389,0.965317

 Normal termination of Gaussian 16 at Sat Aug 16 16:51:46 2025.
