 Gaussian 16, Revision A.03,
 Gaussian 16:  ES64L-G16RevA.03 25-Dec-2016

 --------------------------
 # ccsd(t)/6-311++g(d,p) sp
 --------------------------

 -------------------
 Title Card Required
 -------------------
 Symbolic Z-matrix:
 Charge =  0 Multiplicity = 2

                         Standard orientation:
 ---------------------------------------------------------------------
 Center     Atomic      Atomic             Coordinates (Angstroms)
 Number     Number       Type             X           Y           Z
 ---------------------------------------------------------------------
      1          8           0       -1.395101    1.775143    0.081783
      2          1           0       -2.028916    1.837384    0.815250
      3          6           0       -2.794990   -0.493677   -0.434183
      4          1           0       -3.825670   -0.523713   -0.700856
      5          6           0       -1.628057   -0.435255   -0.150144
      6          6           0       -0.224738   -0.579866    0.236651
      7          8           0        0.116250   -0.882793    1.345721
      8          8           0        0.578890   -0.377451   -0.800020
      9          6           0        1.992885   -0.459278   -0.529049
     10          6           0        2.486812    0.819454    0.116852
     11          1           0        2.440903   -0.618331   -1.508194
     12          1           0        2.178923   -1.328355    0.103134
     13          1           0        3.568939    0.768662    0.252345
     14          1           0        2.252551    1.677080   -0.515034
     15          1           0        2.021483    0.959806    1.092723
 ---------------------------------------------------------------------

 SCF Done:  E(UHF) =  -417.988958074     A.U. after   40 cycles
 E2 =    -0.1260391641D+01 EUMP2 =    -0.41924934971561D+03
 CCSD(T)= -0.41935640488D+03

 The electronic state is 2-A.
 Alpha  occ. eigenvalues --  -20.63049 -20.61005 -20.55599 -11.41440 -11.29432
 Alpha  occ. eigenvalues --  -11.26717 -11.25810 -11.22181  -1.48019  -1.38684
 Alpha  occ. eigenvalues --   -1.37710  -1.07721  -1.04033  -0.92467  -0.83628
 Alpha  occ. eigenvalues --   -0.76267  -0.73014  -0.69288  -0.68632  -0.66799
 Alpha  occ. eigenvalues --   -0.64799  -0.62895  -0.57937  -0.56133  -0.53850
 Alpha  occ. eigenvalues --   -0.53478  -0.50212  -0.47758  -0.45952  -0.42796
 Alpha  occ. eigenvalues --   -0.42221
 Alpha virt. eigenvalues --    0.03688   0.04599   0.05629   0.06813   0.06996
 Alpha virt. eigenvalues --    0.08779   0.09564   0.09982   0.10870   0.11438
 Alpha virt. eigenvalues --    0.13340   0.13870   0.14726   0.15554   0.16811

  Beta  occ. eigenvalues --  -20.61012 -20.58984 -20.55908 -11.41203 -11.29432
  Beta  occ. eigenvalues --  -11.26940 -11.25376 -11.22182  -1.48147  -1.38206
  Beta  occ. eigenvalues --   -1.23548  -1.07767  -1.03543  -0.91895  -0.83387
  Beta  occ. eigenvalues --   -0.76170  -0.72383  -0.69517  -0.66892  -0.63270
  Beta  occ. eigenvalues --   -0.62951  -0.58212  -0.55302  -0.53869  -0.50352
  Beta  occ. eigenvalues --   -0.50265  -0.48337  -0.46811  -0.43086  -0.42289
  Beta virt. eigenvalues --    0.03741   0.04510   0.04941   0.06694   0.06995
  Beta virt. eigenvalues --    0.08516   0.08933   0.09763   0.10556   0.11101
  Beta virt. eigenvalues --    0.12051   0.13490   0.14247   0.15040   0.15809

 Mulliken charges and spin densities:
               1          2
     1  O   -0.170382   0.978810
     2  H    0.236262  -0.037556
     3  C   -2.258393   0.564148
     4  H    0.192378  -0.046055
     5  C    2.208821  -0.593623
     6  C   -0.190151   0.192868
     7  O   -0.274204  -0.063236
     8  O   -0.020324   0.001477
     9  C   -0.149335   0.003166
    10  C   -0.384016   0.000003
    11  H    0.166953   0.000139
    12  H    0.173664  -0.000014
    13  H    0.140548  -0.000025
    14  H    0.148166  -0.000428
    15  H    0.180014   0.000327
 Sum of Mulliken charges =  -0.00000   1.00000

 Dipole moment (field-independent basis, Debye):
    X=             -0.7613    Y=              0.6701    Z=             -0.6471  Tot=              1.2030
 Quadrupole moment (field-independent basis, Debye-Ang):
   XX=            -30.4159   YY=            -48.0053   ZZ=            -51.8508
   XY=             -1.5553   XZ=             -2.1813   YZ=              5.4569

 MP3-0=-419.2833026\MP4SDQ=-419.3022598\CCSD=-419.3035796\CCSD(T)=-419.
 Normal termination of Gaussian 16 at Sun Aug 24 07:49:22 2025.
