 Gaussian 16, Revision A.03,
 Gaussian 16:  ES64L-G16RevA.03 25-Dec-2016

 --------------------------
 # freq 6-311++g(d,p) m062x
 --------------------------

 -------------------
 Title Card Required
 -------------------
 Symbolic Z-matrix:
 Charge =  0 Multiplicity = 2

                         Standard orientation:
 ---------------------------------------------------------------------
 Center     Atomic      Atomic             Coordinates (Angstroms)
 Number     Number       Type             X           Y           Z
 ---------------------------------------------------------------------
      1          8           0       -1.406856    1.686632    0.098244
      2          1           0       -2.035169    1.799293    0.828691
      3          6           0       -2.783513   -0.491356   -0.442275
      4          1           0       -3.809864   -0.565948   -0.717986
      5          6           0       -1.622093   -0.316488   -0.142075
      6          6           0       -0.221743   -0.564111    0.230322
      7          8           0        0.110224   -0.911451    1.327749
      8          8           0        0.580882   -0.363667   -0.805785
      9          6           0        1.995253   -0.449461   -0.534713
     10          6           0        2.484280    0.820272    0.133009
     11          1           0        2.444354   -0.590967   -1.515941
     12          1           0        2.182076   -1.328785    0.082676
     13          1           0        3.566182    0.769746    0.270248
     14          1           0        2.248737    1.687456   -0.485080
     15          1           0        2.016582    0.943957    1.110120
 ---------------------------------------------------------------------

 SCF Done:  E(UM062X) =  -420.202401334     A.U. after   23 cycles

 The electronic state is 2-A.
 Alpha  occ. eigenvalues --  -19.68096 -19.65938 -19.63025 -10.70624 -10.60357
 Alpha  occ. eigenvalues --  -10.59307 -10.58485 -10.53372  -1.25652  -1.16356
 Alpha  occ. eigenvalues --   -1.12008  -0.91053  -0.87457  -0.78111  -0.70675
 Alpha  occ. eigenvalues --   -0.64476  -0.62125  -0.58565  -0.57243  -0.53768
 Alpha  occ. eigenvalues --   -0.53237  -0.50224  -0.48439  -0.46057  -0.45074
 Alpha  occ. eigenvalues --   -0.41734  -0.41136  -0.39684  -0.38318  -0.36660
 Alpha  occ. eigenvalues --   -0.34299
 Alpha virt. eigenvalues --   -0.00644  -0.00224   0.00498   0.01478   0.02535
 Alpha virt. eigenvalues --    0.02778   0.03434   0.04326   0.05672   0.06178
 Alpha virt. eigenvalues --    0.07108   0.07613   0.08428   0.09839   0.10659

  Beta  occ. eigenvalues --  -19.68100 -19.64531 -19.63045 -10.70597 -10.60357
  Beta  occ. eigenvalues --  -10.59361 -10.58246 -10.53372  -1.25654  -1.16396
  Beta  occ. eigenvalues --   -1.06187  -0.90439  -0.86996  -0.77865  -0.70410
  Beta  occ. eigenvalues --   -0.64364  -0.61633  -0.58502  -0.56809  -0.53204
  Beta  occ. eigenvalues --   -0.51476  -0.48982  -0.46601  -0.45140  -0.41719
  Beta  occ. eigenvalues --   -0.39540  -0.39341  -0.38426  -0.37928  -0.35863
  Beta virt. eigenvalues --   -0.09831  -0.00189   0.00427   0.00695   0.01774
  Beta virt. eigenvalues --    0.02642   0.02816   0.03457   0.04392   0.05737
  Beta virt. eigenvalues --    0.06150   0.07210   0.07538   0.08481   0.09916

 Mulliken charges and spin densities:
               1          2
     1  O   -0.239226   0.776797
     2  H    0.233696  -0.018039
     3  C   -0.658733   0.405991
     4  H    0.197134  -0.016434
     5  C    0.869130  -0.175955
     6  C   -0.478062   0.035556
     7  O   -0.200897  -0.009689
     8  O    0.056567   0.000677
     9  C   -0.277866  -0.000789
    10  C   -0.415533   0.003444
    11  H    0.195065   0.000161
    12  H    0.188158  -0.000024
    13  H    0.169047   0.000055
    14  H    0.172503  -0.000464
    15  H    0.189018  -0.001287
 Sum of Mulliken charges =  -0.00000   1.00000

 Dipole moment (field-independent basis, Debye):
    X=             -0.6829    Y=             -0.1825    Z=             -0.7276  Tot=              1.0144
 Quadrupole moment (field-independent basis, Debye-Ang):
   XX=            -29.8934   YY=            -49.1176   ZZ=            -51.1240
   XY=              0.3433   XZ=             -1.6421   YZ=              5.0803

  Exact polarizability:  91.224   7.674  73.639   4.698   3.164  59.640
 Approx polarizability:  98.102   8.333  77.880   7.550  -0.105  76.899

 ******    1 imaginary frequencies (negative Signs) ******

                      1                      2                      3
                      A                      A                      A
 Frequencies --   -489.4704                35.8384                56.0328
 Red. masses --     11.9493                 4.7100                 3.7497
 Frc consts  --      1.6867                 0.0036                 0.0069
 IR Inten    --     66.7178                 6.4497                 1.8256

                      4                      5                      6
                      A                      A                      A
 Frequencies --    116.6063               154.5572               165.5235
 Red. masses --      3.5265                 4.6285                 2.8112
 Frc consts  --      0.0283                 0.0651                 0.0454
 IR Inten    --      1.5148                20.4329                 4.3997

                      7                      8                      9
                      A                      A                      A
 Frequencies --    212.6067               228.8075               261.5720
 Red. masses --      1.5264                 1.4475                 2.0262
 Frc consts  --      0.0407                 0.0446                 0.0817
 IR Inten    --     35.0737                 4.8375                26.6595

                     10                     11                     12
                      A                      A                      A
 Frequencies --    336.0208               429.3575               561.1151
 Red. masses --      2.9281                 3.7280                 3.8695
 Frc consts  --      0.1948                 0.4049                 0.7178
 IR Inten    --      9.8339                 3.7284                 5.2379

                     13                     14                     15
                      A                      A                      A
 Frequencies --    607.0471               692.5487               722.0695
 Red. masses --      6.3627                 1.3298                 1.2111
 Frc consts  --      1.3815                 0.3758                 0.3720
 IR Inten    --     13.4049                29.4319                52.3228

                     16                     17                     18
                      A                      A                      A
 Frequencies --    742.6618               769.9726               802.9443
 Red. masses --      1.2458                 7.0705                 1.2056
 Frc consts  --      0.4048                 2.4697                 0.4580
 IR Inten    --     33.6265                72.6034                 5.0234

                     19                     20                     21
                      A                      A                      A
 Frequencies --    897.1012               927.4037              1074.0031
 Red. masses --      3.2549                 2.7371                 4.1160
 Frc consts  --      1.5434                 1.3870                 2.7973
 IR Inten    --     16.4291                 6.6113                25.0298

                     22                     23                     24
                      A                      A                      A
 Frequencies --   1129.5163              1204.1944              1288.1110
 Red. masses --      2.0881                 1.7716                 3.7408
 Frc consts  --      1.5696                 1.5136                 3.6570
 IR Inten    --     22.2284                 6.5386               533.8388

                     25                     26                     27
                      A                      A                      A
 Frequencies --   1345.6285              1402.0800              1431.0420
 Red. masses --      1.2483                 1.2837                 1.3785
 Frc consts  --      1.3318                 1.4868                 1.6633
 IR Inten    --     94.8263                25.4034                13.6944

                     28                     29                     30
                      A                      A                      A
 Frequencies --   1491.2867              1502.3198              1515.0217
 Red. masses --      1.0400                 1.0543                 1.0935
 Frc consts  --      1.3627                 1.4020                 1.4789
 IR Inten    --     10.9591                 1.2225                21.3244

                     31                     32                     33
                      A                      A                      A
 Frequencies --   1846.5029              2148.6911              3076.1089
 Red. masses --     11.9776                 6.2313                 1.0353
 Frc consts  --     24.0614                16.9503                 5.7718
 IR Inten    --    346.3402                92.9987                 9.0936

                     34                     35                     36
                      A                      A                      A
 Frequencies --   3108.2657              3153.1839              3154.5352
 Red. masses --      1.0608                 1.1016                 1.1047
 Frc consts  --      6.0381                 6.4533                 6.4770
 IR Inten    --     19.7434                14.3845                 2.5005

                     37                     38                     39
                      A                      A                      A
 Frequencies --   3175.7413              3477.9554              3814.9722
 Red. masses --      1.1074                 1.1533                 1.0675
 Frc consts  --      6.5804                 8.2192                 9.1535
 IR Inten    --     14.6116                69.9297                47.6513

 - Thermochemistry -
 -------------------
 Temperature   298.150 Kelvin.  Pressure   1.00000 Atm.
 Atom     1 has atomic number  8 and mass  15.99491

 Molecular mass:   115.03952 amu.
 Principal axes and moments of inertia in atomic units:
                           1         2         3
     Eigenvalues --   499.953761378.292531517.93883
           X            0.99994   0.01112  -0.00061
           Y           -0.01104   0.99682   0.07897
           Z            0.00148  -0.07896   0.99688
 This molecule is an asymmetric top.
 Rotational symmetry number  1.
 Warning -- assumption of classical behavior for rotation
           may cause significant error
 Rotational temperatures (Kelvin)      0.17324     0.06284     0.05706
 Rotational constants (GHZ):           3.60982     1.30940     1.18894
    1 imaginary frequencies ignored.
 Zero-point vibrational energy     293437.7 (Joules/Mol)
                                   70.13329 (Kcal/Mol)
 Warning -- explicit consideration of  12 degrees of freedom as
           vibrations may cause significant error
 Vibrational temperatures:     51.56    80.62   167.77   222.37   238.15
          (Kelvin)            305.89   329.20   376.34   483.46   617.75
                              807.32   873.41   996.42  1038.90  1068.52
                             1107.82  1155.26  1290.73  1334.33  1545.25
                             1625.12  1732.57  1853.30  1936.06  2017.28
                             2058.95  2145.63  2161.50  2179.78  2656.71
                             3091.49  4425.83  4472.10  4536.73  4538.67
                             4569.18  5004.00  5488.89

 Zero-point correction=                           0.111765 (Hartree/Particle)
 Thermal correction to Energy=                    0.121468
 Thermal correction to Enthalpy=                  0.122412
 Thermal correction to Gibbs Free Energy=         0.075499
 Sum of electronic and zero-point Energies=           -420.090637
 Sum of electronic and thermal Energies=              -420.080933
 Sum of electronic and thermal Enthalpies=            -420.079989
 Sum of electronic and thermal Free Energies=         -420.126902

                     E (Thermal)             CV                S
                      KCal/Mol        Cal/Mol-Kelvin    Cal/Mol-Kelvin
 Total                   76.222             32.330             98.737
 Electronic               0.000              0.000              1.377
 Translational            0.889              2.981             40.136
 Rotational               0.889              2.981             28.438
 Vibrational             74.445             26.369             28.786
 Vibration     1          0.594              1.982              5.477
 Vibration     2          0.596              1.975              4.592
 Vibration     3          0.608              1.936              3.156
 Vibration     4          0.620              1.898              2.615
 Vibration     5          0.624              1.885              2.486
 Vibration     6          0.644              1.822              2.021
 Vibration     7          0.651              1.797              1.888
 Vibration     8          0.669              1.743              1.651
 Vibration     9          0.717              1.604              1.231
 Vibration    10          0.791              1.406              0.861
 Vibration    11          0.917              1.115              0.522
 Vibration    12          0.966              1.017              0.438

 1\1\GINC-AJ\Freq\UM062X\6-311++G(d,p)\C5H7O3(2)\AAYUSH\23-Jun-2025\0\\
 # freq 6-311++g(d,p) m062x\\Title Card Required\\0,2\O,-1.406856,1.686
 632,0.098244\H,-2.035169,1.799293,0.828691\C,-2.783513,-0.491356,-0.44
 2275\H,-3.809864,-0.565947,-0.717986\C,-1.622093,-0.316488,-0.142075\C
 ,-0.221743,-0.564111,0.230322\O,0.110224,-0.911451,1.327749\O,0.580882
 ,-0.363667,-0.805785\C,1.995253,-0.449461,-0.534713\C,2.48428,0.820272
 ,0.133009\H,2.444354,-0.590967,-1.515941\H,2.182076,-1.328785,0.082676
 \H,3.566182,0.769746,0.270248\H,2.248737,1.687456,-0.48508\H,2.016582,

 Normal termination of Gaussian 16 at Mon Jun 23 04:17:25 2025.
