 Gaussian 16, Revision A.03,
 Gaussian 16:  ES64L-G16RevA.03 25-Dec-2016

 --------------------------
 # ccsd(t)/6-311++g(d,p) sp
 --------------------------

 -------------------
 Title Card Required
 -------------------
 Symbolic Z-matrix:
 Charge =  0 Multiplicity = 2

                         Standard orientation:
 ---------------------------------------------------------------------
 Center     Atomic      Atomic             Coordinates (Angstroms)
 Number     Number       Type             X           Y           Z
 ---------------------------------------------------------------------
      1          8           0       -1.397321    1.759779    0.084724
      2          1           0       -2.031256    1.831626    0.817009
      3          6           0       -2.793003   -0.492677   -0.435525
      4          1           0       -3.822955   -0.532047   -0.703803
      5          6           0       -1.626916   -0.416413   -0.149079
      6          6           0       -0.224167   -0.576028    0.235671
      7          8           0        0.115120   -0.887956    1.342596
      8          8           0        0.579488   -0.374706   -0.801005
      9          6           0        1.993404   -0.457668   -0.529995
     10          6           0        2.486357    0.819591    0.119689
     11          1           0        2.441702   -0.613734   -1.509474
     12          1           0        2.179450   -1.328530    0.099690
     13          1           0        3.568426    0.769105    0.255695
     14          1           0        2.251839    1.678807   -0.509931
     15          1           0        2.020440    0.957016    1.095727
 ---------------------------------------------------------------------

 SCF Done:  E(UHF) =  -417.987634710     A.U. after   40 cycles
 E2 =    -0.1259897798D+01 EUMP2 =    -0.41924753250846D+03
 CCSD(T)= -0.41935583261D+03

 The electronic state is 2-A.
 Alpha  occ. eigenvalues --  -20.62982 -20.60991 -20.55572 -11.41420 -11.29427
 Alpha  occ. eigenvalues --  -11.26730 -11.25817 -11.22184  -1.48010  -1.38651
 Alpha  occ. eigenvalues --   -1.37691  -1.07733  -1.04054  -0.92482  -0.83623
 Alpha  occ. eigenvalues --   -0.76266  -0.73020  -0.69277  -0.68683  -0.66723
 Alpha  occ. eigenvalues --   -0.64769  -0.62869  -0.57904  -0.56108  -0.53843
 Alpha  occ. eigenvalues --   -0.53426  -0.50204  -0.47731  -0.45909  -0.42828
 Alpha  occ. eigenvalues --   -0.42216
 Alpha virt. eigenvalues --    0.03692   0.04601   0.05628   0.06816   0.06998
 Alpha virt. eigenvalues --    0.08772   0.09579   0.10053   0.10902   0.11474
 Alpha virt. eigenvalues --    0.13346   0.13874   0.14743   0.15559   0.16809

  Beta  occ. eigenvalues --  -20.60998 -20.58937 -20.55899 -11.41165 -11.29427
  Beta  occ. eigenvalues --  -11.27043 -11.25282 -11.22185  -1.48145  -1.38217
  Beta  occ. eigenvalues --   -1.23662  -1.07776  -1.03526  -0.91858  -0.83347
  Beta  occ. eigenvalues --   -0.76158  -0.72330  -0.69515  -0.66966  -0.63263
  Beta  occ. eigenvalues --   -0.62936  -0.58198  -0.55337  -0.53874  -0.50330
  Beta  occ. eigenvalues --   -0.50261  -0.48350  -0.46830  -0.43181  -0.42285
  Beta virt. eigenvalues --    0.03748   0.04510   0.04916   0.06689   0.06997
  Beta virt. eigenvalues --    0.08458   0.08923   0.09762   0.10630   0.11175
  Beta virt. eigenvalues --    0.12063   0.13503   0.14279   0.15102   0.15813

 Mulliken charges and spin densities:
               1          2
     1  O   -0.168908   0.970410
     2  H    0.237245  -0.037056
     3  C   -2.065693   0.630938
     4  H    0.195454  -0.050278
     5  C    2.019013  -0.647933
     6  C   -0.193821   0.196401
     7  O   -0.274908  -0.067030
     8  O   -0.021587   0.001567
     9  C   -0.150423   0.002899
    10  C   -0.385103   0.000240
    11  H    0.166719   0.000119
    12  H    0.173389   0.000048
    13  H    0.140479  -0.000055
    14  H    0.148385  -0.000445
    15  H    0.179758   0.000175
 Sum of Mulliken charges =  -0.00000   1.00000

 Dipole moment (field-independent basis, Debye):
    X=             -0.7626    Y=              0.6638    Z=             -0.6550  Tot=              1.2046
 Quadrupole moment (field-independent basis, Debye-Ang):
   XX=            -30.4228   YY=            -47.9944   ZZ=            -51.8222
   XY=             -1.4830   XZ=             -2.1641   YZ=              5.4671

 MP3-0=-419.2825781\MP4SDQ=-419.3009709\CCSD=-419.3028569\CCSD(T)=-419.
 Normal termination of Gaussian 16 at Sun Aug 24 06:57:10 2025.
