 Gaussian 16, Revision A.03,
 Gaussian 16:  ES64L-G16RevA.03 25-Dec-2016

 -------------------
 # freq 6-31+g m062x
 -------------------

 -------------------
 Title Card Required
 -------------------
 Symbolic Z-matrix:
 Charge =  0 Multiplicity = 2

                         Standard orientation:
 ---------------------------------------------------------------------
 Center     Atomic      Atomic             Coordinates (Angstroms)
 Number     Number       Type             X           Y           Z
 ---------------------------------------------------------------------
      1          8           0       -1.401452    1.729825    0.090239
      2          1           0       -2.034055    1.819805    0.821214
      3          6           0       -2.788929   -0.491430   -0.438179
      4          1           0       -3.817321   -0.547619   -0.709644
      5          6           0       -1.624829   -0.377492   -0.146624
      6          6           0       -0.223159   -0.569764    0.233682
      7          8           0        0.112940   -0.897754    1.336533
      8          8           0        0.580329   -0.369963   -0.802936
      9          6           0        1.994262   -0.454445   -0.531835
     10          6           0        2.485440    0.819903    0.125157
     11          1           0        2.443031   -0.604642   -1.511980
     12          1           0        2.180574   -1.328718    0.092949
     13          1           0        3.567417    0.769689    0.261913
     14          1           0        2.250489    1.682277   -0.499939
     15          1           0        2.018614    0.951717    1.101585
 ---------------------------------------------------------------------

 SCF Done:  E(UM062X) =  -419.956387441     A.U. after   24 cycles

 The electronic state is 2-A.
 Alpha  occ. eigenvalues --  -19.70332 -19.69476 -19.66064 -10.72895 -10.61268
 Alpha  occ. eigenvalues --  -10.60072 -10.59506 -10.54132  -1.27865  -1.18517
 Alpha  occ. eigenvalues --   -1.14016  -0.91498  -0.87949  -0.78455  -0.71121
 Alpha  occ. eigenvalues --   -0.64468  -0.62211  -0.58577  -0.57162  -0.54120
 Alpha  occ. eigenvalues --   -0.53668  -0.50484  -0.48592  -0.46339  -0.45004
 Alpha  occ. eigenvalues --   -0.41873  -0.41650  -0.39531  -0.37991  -0.36774
 Alpha  occ. eigenvalues --   -0.35357
 Alpha virt. eigenvalues --   -0.00926   0.01961   0.02493   0.03651   0.03723
 Alpha virt. eigenvalues --    0.04430   0.05489   0.05865   0.07699   0.08149
 Alpha virt. eigenvalues --    0.08836   0.08936   0.10033   0.11846   0.12290

  Beta  occ. eigenvalues --  -19.70336 -19.67900 -19.66083 -10.72873 -10.61268
  Beta  occ. eigenvalues --  -10.60094 -10.59341 -10.54132  -1.27872  -1.18547
  Beta  occ. eigenvalues --   -1.07420  -0.91118  -0.87674  -0.78324  -0.70974
  Beta  occ. eigenvalues --   -0.64405  -0.61830  -0.58433  -0.56835  -0.53652
  Beta  occ. eigenvalues --   -0.51402  -0.49195  -0.46623  -0.45070  -0.41670
  Beta  occ. eigenvalues --   -0.39408  -0.39164  -0.38308  -0.38012  -0.36278
  Beta virt. eigenvalues --   -0.09414  -0.00111   0.02011   0.02511   0.03685
  Beta virt. eigenvalues --    0.03777   0.04637   0.05553   0.05922   0.07744
  Beta virt. eigenvalues --    0.08105   0.08929   0.08984   0.10131   0.11900

 Mulliken charges and spin densities:
               1          2
     1  O   -0.428382   0.872952
     2  H    0.406764  -0.031769
     3  C    0.021442   0.201783
     4  H    0.328983  -0.009375
     5  C   -0.290095  -0.088555
     6  C    0.153151   0.064848
     7  O   -0.339815  -0.008594
     8  O   -0.163484  -0.000487
     9  C   -0.254415  -0.000927
    10  C   -0.555829   0.000356
    11  H    0.219976  -0.000012
    12  H    0.233070  -0.000093
    13  H    0.204647  -0.000030
    14  H    0.227954  -0.000050
    15  H    0.236032  -0.000048
 Sum of Mulliken charges =  -0.00000   1.00000

 Dipole moment (field-independent basis, Debye):
    X=             -0.7937    Y=              0.0645    Z=             -0.4149  Tot=              0.8980
 Quadrupole moment (field-independent basis, Debye-Ang):
   XX=            -29.6648   YY=            -49.0118   ZZ=            -52.3842
   XY=             -0.5025   XZ=             -2.2202   YZ=              5.6911

  Exact polarizability:  87.139   5.952  64.243   3.962   1.165  56.998
 Approx polarizability:  92.684   6.337  63.171   7.628  -2.573  71.442

 ******    5 imaginary frequencies (negative Signs) ******

                      1                      2                      3
                      A                      A                      A
 Frequencies --   -455.2978              -199.8190               -96.8187
 Red. masses --      1.0905                 6.4456                 5.3957
 Frc consts  --      0.1332                 0.1516                 0.0298
 IR Inten    --    117.9252                 1.9184                19.9044

                      4                      5                      6
                      A                      A                      A
 Frequencies --    -51.8899                -9.5517                83.6046
 Red. masses --      4.5486                 2.7729                 3.2695
 Frc consts  --      0.0072                 0.0001                 0.0135
 IR Inten    --      1.3018                 0.3181                 6.6314

                      7                      8                      9
                      A                      A                      A
 Frequencies --    132.4825               173.9460               194.0561
 Red. masses --      5.5688                 1.2747                 5.4286
 Frc consts  --      0.0576                 0.0227                 0.1204
 IR Inten    --      0.2121                 1.3278                 1.6270

                     10                     11                     12
                      A                      A                      A
 Frequencies --    305.7986               395.4875               433.9932
 Red. masses --      2.7985                 1.5618                 2.0613
 Frc consts  --      0.1542                 0.1439                 0.2287
 IR Inten    --     13.6166                86.2506                33.9274

                     13                     14                     15
                      A                      A                      A
 Frequencies --    574.1818               620.0716               725.2835
 Red. masses --      4.1419                 5.4807                 2.4987
 Frc consts  --      0.8045                 1.2416                 0.7744
 IR Inten    --      4.2278                12.7042                11.2892

                     16                     17                     18
                      A                      A                      A
 Frequencies --    741.4441               777.9077               818.0585
 Red. masses --      2.1514                 1.3500                 1.2738
 Frc consts  --      0.6968                 0.4813                 0.5023
 IR Inten    --     93.0017                50.1178                 6.3175

                     19                     20                     21
                      A                      A                      A
 Frequencies --    899.0349               946.1086              1110.8359
 Red. masses --      3.3905                 2.5146                 4.1732
 Frc consts  --      1.6146                 1.3262                 3.0340
 IR Inten    --     20.9422                 5.7854                 9.7514

                     22                     23                     24
                      A                      A                      A
 Frequencies --   1159.3125              1228.8948              1328.1228
 Red. masses --      2.0877                 1.7540                 1.8495
 Frc consts  --      1.6532                 1.5607                 1.9221
 IR Inten    --     18.5108                 4.9402               287.2921

                     25                     26                     27
                      A                      A                      A
 Frequencies --   1371.4916              1442.6872              1457.6951
 Red. masses --      1.8470                 1.3926                 1.2618
 Frc consts  --      2.0470                 1.7077                 1.5797
 IR Inten    --    297.6387                39.5025                18.5770

                     28                     29                     30
                      A                      A                      A
 Frequencies --   1526.2227              1536.8243              1544.6737
 Red. masses --      1.0414                 1.0573                 1.0879
 Frc consts  --      1.4292                 1.4713                 1.5293
 IR Inten    --     14.9283                 2.3150                27.7698

                     31                     32                     33
                      A                      A                      A
 Frequencies --   1910.3625              2273.3824              3107.9317
 Red. masses --     12.2531                 5.7791                 1.0350
 Frc consts  --     26.3469                17.5976                 5.8904
 IR Inten    --    316.8447                73.6466                12.4745

                     34                     35                     36
                      A                      A                      A
 Frequencies --   3137.7417              3188.6827              3190.3815
 Red. masses --      1.0601                 1.1026                 1.1004
 Frc consts  --      6.1494                 6.6054                 6.5989
 IR Inten    --     21.5758                 4.1979                16.3851

                     37                     38                     39
                      A                      A                      A
 Frequencies --   3211.3539              3526.8473              3817.7067
 Red. masses --      1.1053                 1.1693                 1.0672
 Frc consts  --      6.7159                 8.5694                 9.1647
 IR Inten    --     17.4540                61.0501                14.4976

 - Thermochemistry -
 -------------------
 Temperature   298.150 Kelvin.  Pressure   1.00000 Atm.
 Atom     1 has atomic number  8 and mass  15.99491

 Molecular mass:   115.03952 amu.
 Principal axes and moments of inertia in atomic units:
                           1         2         3
     Eigenvalues --   510.318461380.084051528.78131
           X            0.99994   0.01074  -0.00089
           Y           -0.01064   0.99726   0.07321
           Z            0.00167  -0.07319   0.99732
 This molecule is an asymmetric top.
 Rotational symmetry number  1.
 Warning -- assumption of classical behavior for rotation
           may cause significant error
 Rotational temperatures (Kelvin)      0.16973     0.06276     0.05666
 Rotational constants (GHZ):           3.53650     1.30770     1.18051
    5 imaginary frequencies ignored.
 Zero-point vibrational energy     292442.8 (Joules/Mol)
                                   69.89550 (Kcal/Mol)
 Warning -- explicit consideration of   9 degrees of freedom as
           vibrations may cause significant error
 Vibrational temperatures:    120.29   190.61   250.27   279.20   439.98
          (Kelvin)            569.02   624.42   826.12   892.14  1043.52
                             1066.77  1119.24  1177.00  1293.51  1361.24
                             1598.25  1667.99  1768.11  1910.87  1973.27
                             2075.71  2097.30  2195.89  2211.15  2222.44
                             2748.59  3270.89  4471.62  4514.51  4587.80
                             4590.25  4620.42  5074.35  5492.83

 Zero-point correction=                           0.111386 (Hartree/Particle)
 Thermal correction to Energy=                    0.118721
 Thermal correction to Enthalpy=                  0.119665
 Thermal correction to Gibbs Free Energy=         0.078393
 Sum of electronic and zero-point Energies=           -419.845002
 Sum of electronic and thermal Energies=              -419.837667
 Sum of electronic and thermal Enthalpies=            -419.836723
 Sum of electronic and thermal Free Energies=         -419.877994

                     E (Thermal)             CV                S
                      KCal/Mol        Cal/Mol-Kelvin    Cal/Mol-Kelvin
 Total                   74.498             25.305             86.863
 Electronic               0.000              0.000              1.377
 Translational            0.889              2.981             40.136
 Rotational               0.889              2.981             28.467
 Vibrational             72.721             19.343             16.883
 Vibration     1          0.600              1.960              3.804
 Vibration     2          0.613              1.921              2.910
 Vibration     3          0.627              1.875              2.392
 Vibration     4          0.635              1.848              2.189
 Vibration     5          0.696              1.663              1.385
 Vibration     6          0.762              1.480              0.979
 Vibration     7          0.795              1.396              0.846
 Vibration     8          0.930              1.087              0.496
 Vibration     9          0.980              0.990              0.416

 Normal termination of Gaussian 16 at Fri Jun 20 13:32:09 2025.
