 Gaussian 16, Revision A.03,
 Gaussian 16:  ES64L-G16RevA.03 25-Dec-2016

 --------------------------
 # ccsd(t)/6-311++g(d,p) sp
 --------------------------

 -------------------
 Title Card Required
 -------------------
 Symbolic Z-matrix:
 Charge =  0 Multiplicity = 2

                         Standard orientation:
 ---------------------------------------------------------------------
 Center     Atomic      Atomic             Coordinates (Angstroms)
 Number     Number       Type             X           Y           Z
 ---------------------------------------------------------------------
      1          8           0       -1.390533    1.806765    0.075306
      2          1           0       -2.021846    1.849263    0.812635
      3          6           0       -2.798540   -0.496366   -0.431484
      4          1           0       -3.830347   -0.507786   -0.695211
      5          6           0       -1.630348   -0.471611   -0.151918
      6          6           0       -0.225967   -0.588666    0.238727
      7          8           0        0.118400   -0.871975    1.352214
      8          8           0        0.577360   -0.384162   -0.797979
      9          6           0        1.991681   -0.462494   -0.527046
     10          6           0        2.487492    0.819377    0.110938
     11          1           0        2.439053   -0.627524   -1.505525
     12          1           0        2.178175   -1.327756    0.110282
     13          1           0        3.569778    0.767742    0.245073
     14          1           0        2.253703    1.673762   -0.525493
     15          1           0        2.023761    0.965840    1.086607
 ---------------------------------------------------------------------

 SCF Done:  E(UHF) =  -417.991292719     A.U. after   38 cycles
 E2 =    -0.1261055402D+01 EUMP2 =    -0.41925234812113D+03
 CCSD(T)= -0.41935724216D+03

 The electronic state is 2-A.
 Alpha  occ. eigenvalues --  -20.63155 -20.61033 -20.55656 -11.41479 -11.29444
 Alpha  occ. eigenvalues --  -11.26710 -11.25835 -11.22175  -1.48042  -1.38721
 Alpha  occ. eigenvalues --   -1.37752  -1.07712  -1.03997  -0.92436  -0.83637
 Alpha  occ. eigenvalues --   -0.76273  -0.73010  -0.69314  -0.68522  -0.66901
 Alpha  occ. eigenvalues --   -0.64850  -0.62945  -0.57999  -0.56162  -0.53864
 Alpha  occ. eigenvalues --   -0.53575  -0.50229  -0.47817  -0.46037  -0.42750
 Alpha  occ. eigenvalues --   -0.42247
 Alpha virt. eigenvalues --    0.03704   0.04609   0.05647   0.06813   0.07000
 Alpha virt. eigenvalues --    0.08801   0.09519   0.09868   0.10835   0.11856
 Alpha virt. eigenvalues --    0.13440   0.13915   0.14746   0.15940   0.16839

  Beta  occ. eigenvalues --  -20.61039 -20.59062 -20.55925 -11.41277 -11.29444
  Beta  occ. eigenvalues --  -11.26790 -11.25566 -11.22176  -1.48156  -1.38185
  Beta  occ. eigenvalues --   -1.23358  -1.07751  -1.03578  -0.91960  -0.83453
  Beta  occ. eigenvalues --   -0.76195  -0.72487  -0.69521  -0.66758  -0.63284
  Beta  occ. eigenvalues --   -0.62979  -0.58233  -0.55235  -0.53856  -0.50391
  Beta  occ. eigenvalues --   -0.50270  -0.48315  -0.46773  -0.42948  -0.42309
  Beta virt. eigenvalues --    0.03749   0.04539   0.04998   0.06705   0.06996
  Beta virt. eigenvalues --    0.08617   0.08970   0.09771   0.10356   0.11150
  Beta virt. eigenvalues --    0.12337   0.13590   0.14238   0.15036   0.16138

 Mulliken charges and spin densities:
               1          2
     1  O   -0.175322   0.992037
     2  H    0.233463  -0.039162
     3  C   -0.566466   0.539330
     4  H    0.223076  -0.037443
     5  C    1.122150  -0.478550
     6  C   -0.824774   0.075028
     7  O   -0.272821  -0.055036
     8  O   -0.025108   0.001133
     9  C   -0.139255   0.001286
    10  C   -0.382587   0.001564
    11  H    0.167419  -0.000015
    12  H    0.174484  -0.000275
    13  H    0.136908   0.000164
    14  H    0.148536  -0.000605
    15  H    0.180297   0.000544
 Sum of Mulliken charges =  -0.00000   1.00000

 Dipole moment (field-independent basis, Debye):
    X=             -0.7596    Y=              0.6648    Z=             -0.6307  Tot=              1.1903
 Quadrupole moment (field-independent basis, Debye-Ang):
   XX=            -30.4100   YY=            -48.0473   ZZ=            -51.9074
   XY=             -1.6727   XZ=             -2.2159   YZ=              5.4378

 PMP3-0=-419.2844917\MP4SDQ=-419.3043516\CCSD=-419.3046979\CCSD(T)=-419
 Normal termination of Gaussian 16 at Sun Aug 24 09:30:36 2025.
