 Gaussian 16, Revision A.03,
 Gaussian 16:  ES64L-G16RevA.03 25-Dec-2016

 --------------------------
 # ccsd(t)/6-311++g(d,p) sp
 --------------------------

 -------------------
 Title Card Required
 -------------------
 Symbolic Z-matrix:
 Charge =  0 Multiplicity = 2

                         Standard orientation:
 ---------------------------------------------------------------------
 Center     Atomic      Atomic             Coordinates (Angstroms)
 Number     Number       Type             X           Y           Z
 ---------------------------------------------------------------------
      1          8           0       -1.408369    1.672767    0.100932
      2          1           0       -2.035054    1.791370    0.831310
      3          6           0       -2.782146   -0.491967   -0.443728
      4          1           0       -3.808064   -0.569918   -0.720539
      5          6           0       -1.621204   -0.295476   -0.140278
      6          6           0       -0.221355   -0.563325    0.229031
      7          8           0        0.109552   -0.915748    1.324915
      8          8           0        0.580947   -0.361651   -0.806728
      9          6           0        1.995515   -0.447775   -0.535729
     10          6           0        2.483981    0.820334    0.135521
     11          1           0        2.444667   -0.586449   -1.517319
     12          1           0        2.182469   -1.328766    0.079213
     13          1           0        3.565868    0.769569    0.272811
     14          1           0        2.248265    1.689135   -0.480191
     15          1           0        2.016072    0.941369    1.112864
 ---------------------------------------------------------------------

 SCF Done:  E(UHF) =  -417.979187254     A.U. after   36 cycles
 E2 =    -0.1256646326D+01 EUMP2 =    -0.41923583357990D+03
 CCSD(T)= -0.41935356933D+03

 The electronic state is 2-A.
 Alpha  occ. eigenvalues --  -20.62257 -20.60948 -20.55484 -11.41307 -11.29421
 Alpha  occ. eigenvalues --  -11.27118 -11.26459 -11.22188  -1.48011  -1.38081
 Alpha  occ. eigenvalues --   -1.37635  -1.07944  -1.04206  -0.92544  -0.83612
 Alpha  occ. eigenvalues --   -0.76334  -0.73101  -0.69256  -0.68853  -0.65840
 Alpha  occ. eigenvalues --   -0.64339  -0.62700  -0.57699  -0.55740  -0.53812
 Alpha  occ. eigenvalues --   -0.53033  -0.50168  -0.47690  -0.45721  -0.43160
 Alpha  occ. eigenvalues --   -0.42245
 Alpha virt. eigenvalues --    0.03709   0.04615   0.05644   0.06823   0.07012
 Alpha virt. eigenvalues --    0.08742   0.09643   0.10494   0.11139   0.11695
 Alpha virt. eigenvalues --    0.13362   0.13911   0.14722   0.15666   0.16802

  Beta  occ. eigenvalues --  -20.60954 -20.58499 -20.55880 -11.40955 -11.29422
  Beta  occ. eigenvalues --  -11.28347 -11.24920 -11.22190  -1.48165  -1.38289
  Beta  occ. eigenvalues --   -1.24755  -1.07752  -1.03413  -0.91551  -0.82994
  Beta  occ. eigenvalues --   -0.76127  -0.72019  -0.69513  -0.67458  -0.63225
  Beta  occ. eigenvalues --   -0.62823  -0.58065  -0.55552  -0.53905  -0.50245
  Beta  occ. eigenvalues --   -0.50086  -0.48452  -0.46928  -0.44263  -0.42306
  Beta virt. eigenvalues --    0.03781   0.04472   0.04731   0.06631   0.07011
  Beta virt. eigenvalues --    0.08025   0.08890   0.09736   0.10746   0.11897
  Beta virt. eigenvalues --    0.12035   0.13562   0.14445   0.15487   0.15928

 Mulliken charges and spin densities:
               1          2
     1  O   -0.169720   0.883426
     2  H    0.244372  -0.033266
     3  C   -0.818264   1.092904
     4  H    0.212932  -0.080420
     5  C    1.004325  -0.975652
     6  C   -0.416954   0.189518
     7  O   -0.280574  -0.081249
     8  O   -0.031739   0.002555
     9  C   -0.161751   0.001391
    10  C   -0.387397   0.001588
    11  H    0.165629   0.000061
    12  H    0.172408   0.000293
    13  H    0.138381  -0.000233
    14  H    0.150223  -0.000620
    15  H    0.178130  -0.000295
 Sum of Mulliken charges =  -0.00000   1.00000

 Dipole moment (field-independent basis, Debye):
    X=             -0.7915    Y=              0.4677    Z=             -0.7253  Tot=              1.1710
 Quadrupole moment (field-independent basis, Debye-Ang):
   XX=            -30.4228   YY=            -48.2310   ZZ=            -51.6272
   XY=             -0.8750   XZ=             -2.0234   YZ=              5.4948

 01015\MP4SDQ=-419.2930735\CCSD=-419.2993027\CCSD(T)=-419.3535693\S2=1.
 Normal termination of Gaussian 16 at Sun Aug 24 01:26:09 2025.
