 Gaussian 16, Revision A.03,
 Gaussian 16:  ES64L-G16RevA.03 25-Dec-2016

 -------------------
 # freq 6-31+g m062x
 -------------------

 -------------------
 Title Card Required
 -------------------
 Symbolic Z-matrix:
 Charge =  0 Multiplicity = 2

                         Standard orientation:
 ---------------------------------------------------------------------
 Center     Atomic      Atomic             Coordinates (Angstroms)
 Number     Number       Type             X           Y           Z
 ---------------------------------------------------------------------
      1          8           0       -1.411303    1.645304    0.106375
      2          1           0       -2.034821    1.775038    0.836608
      3          6           0       -2.779582   -0.493490   -0.446744
      4          1           0       -3.804732   -0.576605   -0.725779
      5          6           0       -1.619417   -0.253199   -0.136305
      6          6           0       -0.220648   -0.562222    0.226311
      7          8           0        0.108331   -0.924418    1.319131
      8          8           0        0.581051   -0.357517   -0.808656
      9          6           0        1.996009   -0.444328   -0.537840
     10          6           0        2.483419    0.820394    0.140609
     11          1           0        2.445280   -0.577244   -1.520133
     12          1           0        2.183210   -1.328691    0.072119
     13          1           0        3.565272    0.769101    0.277997
     14          1           0        2.247379    1.692501   -0.470208
     15          1           0        2.015094    0.936020    1.118412
 ---------------------------------------------------------------------

 SCF Done:  E(UM062X) =  -419.953426716     A.U. after   22 cycles

 The electronic state is 2-A.
 Alpha  occ. eigenvalues --  -19.70537 -19.67663 -19.66358 -10.73098 -10.62392
 Alpha  occ. eigenvalues --  -10.61388 -10.60786 -10.54163  -1.28155  -1.18807
 Alpha  occ. eigenvalues --   -1.12491  -0.92163  -0.88312  -0.78685  -0.71441
 Alpha  occ. eigenvalues --   -0.64755  -0.62875  -0.58950  -0.57449  -0.53735
 Alpha  occ. eigenvalues --   -0.53250  -0.50024  -0.48292  -0.46289  -0.45098
 Alpha  occ. eigenvalues --   -0.41789  -0.40593  -0.39746  -0.38140  -0.36995
 Alpha  occ. eigenvalues --   -0.33163
 Alpha virt. eigenvalues --   -0.00643   0.01771   0.02390   0.03160   0.03729
 Alpha virt. eigenvalues --    0.04319   0.05574   0.05887   0.07691   0.07827
 Alpha virt. eigenvalues --    0.08865   0.08915   0.09938   0.11684   0.12140

  Beta  occ. eigenvalues --  -19.70538 -19.66399 -19.66381 -10.73052 -10.62512
  Beta  occ. eigenvalues --  -10.61387 -10.60416 -10.54164  -1.28151  -1.18836
  Beta  occ. eigenvalues --   -1.07972  -0.91351  -0.87814  -0.78388  -0.71077
  Beta  occ. eigenvalues --   -0.64592  -0.62182  -0.58764  -0.57182  -0.53690
  Beta  occ. eigenvalues --   -0.51198  -0.49133  -0.46734  -0.45223  -0.41736
  Beta  occ. eigenvalues --   -0.40412  -0.39518  -0.38270  -0.37975  -0.35700
  Beta virt. eigenvalues --   -0.10205   0.00662   0.01781   0.02402   0.03137
  Beta virt. eigenvalues --    0.03796   0.04446   0.05583   0.05862   0.07695
  Beta virt. eigenvalues --    0.07802   0.08844   0.08933   0.10097   0.11654

 Mulliken charges and spin densities:
               1          2
     1  O   -0.475665   0.656570
     2  H    0.407060  -0.022408
     3  C    0.389923   0.600765
     4  H    0.310123  -0.021953
     5  C   -0.418255  -0.260406
     6  C   -0.014111   0.057930
     7  O   -0.344223  -0.010732
     8  O   -0.165548  -0.000301
     9  C   -0.261661  -0.000275
    10  C   -0.553461   0.001061
    11  H    0.221213  -0.000012
    12  H    0.234483  -0.000156
    13  H    0.204597  -0.000077
    14  H    0.229984  -0.000026
    15  H    0.235540   0.000020
 Sum of Mulliken charges =  -0.00000   1.00000

 Dipole moment (field-independent basis, Debye):
    X=             -0.8441    Y=             -0.5031    Z=             -0.5561  Tot=              1.1291
 Quadrupole moment (field-independent basis, Debye-Ang):
   XX=            -29.1116   YY=            -50.0130   ZZ=            -52.1888
   XY=              0.6207   XZ=             -1.8699   YZ=              5.6018

  Exact polarizability:  86.375   7.912  70.394   4.076   2.626  57.196
 Approx polarizability:  90.359  10.636  73.089   7.472  -0.631  71.669

 ******    4 imaginary frequencies (negative Signs) ******

                      1                      2                      3
                      A                      A                      A
 Frequencies --   -666.8776              -457.0094               -86.8608
 Red. masses --     12.6871                 1.0796                 7.2340
 Frc consts  --      3.3243                 0.1328                 0.0322
 IR Inten    --     36.9610               113.1388                 7.5247

                      4                      5                      6
                      A                      A                      A
 Frequencies --    -26.5872                14.9008               110.7629
 Red. masses --      3.4595                 2.7429                 2.9049
 Frc consts  --      0.0014                 0.0004                 0.0210
 IR Inten    --      4.0265                 2.1564                 6.5719

                      7                      8                      9
                      A                      A                      A
 Frequencies --    175.8739               185.3523               242.3426
 Red. masses --      1.7423                 3.3377                 4.0652
 Frc consts  --      0.0318                 0.0676                 0.1407
 IR Inten    --      2.2773                 0.0636                 1.9110

                     10                     11                     12
                      A                      A                      A
 Frequencies --    307.0663               421.4044               554.7718
 Red. masses --      2.9292                 3.5954                 3.0060
 Frc consts  --      0.1627                 0.3762                 0.5451
 IR Inten    --     14.0413                 6.8890                11.3606

                     13                     14                     15
                      A                      A                      A
 Frequencies --    591.6510               615.7078               706.9010
 Red. masses --      1.4664                 3.9980                 1.5462
 Frc consts  --      0.3024                 0.8930                 0.4552
 IR Inten    --     56.0341                 8.2983                16.3255

                     16                     17                     18
                      A                      A                      A
 Frequencies --    714.8342               752.6066               816.9023
 Red. masses --      3.1039                 1.4741                 1.2981
 Frc consts  --      0.9345                 0.4919                 0.5104
 IR Inten    --    106.0119                53.1645                 8.2343

                     19                     20                     21
                      A                      A                      A
 Frequencies --    895.6542               941.4275              1106.4306
 Red. masses --      3.2773                 2.5014                 4.2012
 Frc consts  --      1.5490                 1.3062                 3.0302
 IR Inten    --     22.4234                 5.6437                12.8274

                     22                     23                     24
                      A                      A                      A
 Frequencies --   1158.2512              1228.3053              1323.1581
 Red. masses --      2.0622                 1.7466                 2.0596
 Frc consts  --      1.6300                 1.5526                 2.1245
 IR Inten    --     17.7070                 6.4226               317.3694

                     25                     26                     27
                      A                      A                      A
 Frequencies --   1368.1235              1441.3147              1458.6192
 Red. masses --      1.7096                 1.3791                 1.2517
 Frc consts  --      1.8854                 1.6879                 1.5690
 IR Inten    --    250.2032                29.6597                20.1273

                     28                     29                     30
                      A                      A                      A
 Frequencies --   1526.3829              1536.8270              1545.1412
 Red. masses --      1.0412                 1.0539                 1.0902
 Frc consts  --      1.4292                 1.4665                 1.5336
 IR Inten    --     15.2344                 2.6549                27.2026

                     31                     32                     33
                      A                      A                      A
 Frequencies --   1913.4177              2111.3688              3108.5988
 Red. masses --     12.0898                 6.4588                 1.0351
 Frc consts  --     26.0789                16.9641                 5.8931
 IR Inten    --    322.1686                82.1634                11.6102

                     34                     35                     36
                      A                      A                      A
 Frequencies --   3139.3057              3190.2352              3191.0090
 Red. masses --      1.0602                 1.1035                 1.0994
 Frc consts  --      6.1559                 6.6172                 6.5955
 IR Inten    --     21.1608                 0.4722                19.1826

                     37                     38                     39
                      A                      A                      A
 Frequencies --   3212.5887              3510.0971              3840.8226
 Red. masses --      1.1054                 1.1468                 1.0673
 Frc consts  --      6.7217                 8.3248                 9.2768
 IR Inten    --     16.6677                64.3876                23.5513

 - Thermochemistry -
 -------------------
 Temperature   298.150 Kelvin.  Pressure   1.00000 Atm.
 Atom     1 has atomic number  8 and mass  15.99491

 Molecular mass:   115.03952 amu.
 Principal axes and moments of inertia in atomic units:
                           1         2         3
     Eigenvalues --   490.606551376.838671508.33927
           X            0.99993   0.01143  -0.00034
           Y           -0.01137   0.99634   0.08472
           Z            0.00130  -0.08471   0.99640
 This molecule is an asymmetric top.
 Rotational symmetry number  1.
 Warning -- assumption of classical behavior for rotation
           may cause significant error
 Rotational temperatures (Kelvin)      0.17654     0.06291     0.05742
 Rotational constants (GHZ):           3.67859     1.31079     1.19651
    4 imaginary frequencies ignored.
 Zero-point vibrational energy     292834.8 (Joules/Mol)
                                   69.98920 (Kcal/Mol)
 Warning -- explicit consideration of  10 degrees of freedom as
           vibrations may cause significant error
 Vibrational temperatures:     21.44   159.36   253.04   266.68   348.68
          (Kelvin)            441.80   606.31   798.19   851.25   885.87
                             1017.07  1028.49  1082.83  1175.34  1288.65
                             1354.50  1591.91  1666.47  1767.26  1903.73
                             1968.42  2073.73  2098.63  2196.12  2211.15
                             2223.11  2752.98  3037.79  4472.58  4516.76
                             4590.04  4591.15  4622.20  5050.25  5526.09

 Zero-point correction=                           0.111535 (Hartree/Particle)
 Thermal correction to Energy=                    0.119465
 Thermal correction to Enthalpy=                  0.120409
 Thermal correction to Gibbs Free Energy=         0.076667
 Sum of electronic and zero-point Energies=           -419.841892
 Sum of electronic and thermal Energies=              -419.833962
 Sum of electronic and thermal Enthalpies=            -419.833018
 Sum of electronic and thermal Free Energies=         -419.876760

                     E (Thermal)             CV                S
                      KCal/Mol        Cal/Mol-Kelvin    Cal/Mol-Kelvin
 Total                   74.965             26.933             92.063
 Electronic               0.000              0.000              1.377
 Translational            0.889              2.981             40.136
 Rotational               0.889              2.981             28.412
 Vibrational             73.188             20.972             22.138
 Vibration     1          0.593              1.986              7.219
 Vibration     2          0.607              1.941              3.255
 Vibration     3          0.628              1.872              2.372
 Vibration     4          0.631              1.860              2.274
 Vibration     5          0.659              1.775              1.786
 Vibration     6          0.697              1.660              1.378
 Vibration     7          0.784              1.424              0.887
 Vibration     8          0.910              1.129              0.534
 Vibration     9          0.949              1.050              0.464
 Vibration    10          0.975              0.999              0.423

 Normal termination of Gaussian 16 at Fri Jun 20 13:32:58 2025.
