 Gaussian 16, Revision A.03,
 Gaussian 16:  ES64L-G16RevA.03 25-Dec-2016

 --------------------------
 # ccsd(t)/6-311++g(d,p) sp
 --------------------------

 -------------------
 Title Card Required
 -------------------
 Symbolic Z-matrix:
 Charge =  0 Multiplicity = 2

                         Standard orientation:
 ---------------------------------------------------------------------
 Center     Atomic      Atomic             Coordinates (Angstroms)
 Number     Number       Type             X           Y           Z
 ---------------------------------------------------------------------
      1          8           0       -1.403373    1.715179    0.092906
      2          1           0       -2.034730    1.813545    0.823588
      3          6           0       -2.786967   -0.491163   -0.439509
      4          1           0       -3.814625   -0.554467   -0.712487
      5          6           0       -1.623881   -0.357495   -0.145236
      6          6           0       -0.222684   -0.567383    0.232626
      7          8           0        0.111951   -0.902428    1.333576
      8          8           0        0.580593   -0.367813   -0.803888
      9          6           0        1.994626   -0.452805   -0.532764
     10          6           0        2.485013    0.820058    0.127809
     11          1           0        2.443559   -0.600101   -1.513256
     12          1           0        2.181119   -1.328750    0.089580
     13          1           0        3.566958    0.769827    0.264809
     14          1           0        2.249866    1.684019   -0.494996
     15          1           0        2.017840    0.949145    1.104453
 ---------------------------------------------------------------------

 SCF Done:  E(UHF) =  -417.983330418     A.U. after   38 cycles
 E2 =    -0.1258185648D+01 EUMP2 =    -0.41924151606544D+03
 CCSD(T)= -0.41935420667D+03

 The electronic state is 2-A.
 Alpha  occ. eigenvalues --  -20.62704 -20.60957 -20.55507 -11.41361 -11.29418
 Alpha  occ. eigenvalues --  -11.26835 -11.25970 -11.22190  -1.47995  -1.38464
 Alpha  occ. eigenvalues --   -1.37647  -1.07809  -1.04125  -0.92518  -0.83607
 Alpha  occ. eigenvalues --   -0.76280  -0.73048  -0.69258  -0.68802  -0.66372
 Alpha  occ. eigenvalues --   -0.64635  -0.62785  -0.57800  -0.55979  -0.53827
 Alpha  occ. eigenvalues --   -0.53253  -0.50182  -0.47677  -0.45793  -0.42961
 Alpha  occ. eigenvalues --   -0.42222
 Alpha virt. eigenvalues --    0.03704   0.04608   0.05629   0.06820   0.07006
 Alpha virt. eigenvalues --    0.08754   0.09610   0.10286   0.11014   0.11582
 Alpha virt. eigenvalues --    0.13361   0.13892   0.14753   0.15604   0.16804

  Beta  occ. eigenvalues --  -20.60964 -20.58758 -20.55879 -11.41054 -11.29418
  Beta  occ. eigenvalues --  -11.27509 -11.25037 -11.22191  -1.48145  -1.38249
  Beta  occ. eigenvalues --   -1.24101  -1.07788  -1.03475  -0.91722  -0.83193
  Beta  occ. eigenvalues --   -0.76130  -0.72169  -0.69508  -0.67202  -0.63239
  Beta  occ. eigenvalues --   -0.62884  -0.58143  -0.55441  -0.53890  -0.50267
  Beta  occ. eigenvalues --   -0.50219  -0.48390  -0.46882  -0.43593  -0.42290
  Beta virt. eigenvalues --    0.03766   0.04503   0.04828   0.06668   0.07005
  Beta virt. eigenvalues --    0.08257   0.08904   0.09749   0.10743   0.11505
  Beta virt. eigenvalues --    0.12069   0.13539   0.14375   0.15288   0.15855

 Mulliken charges and spin densities:
               1          2
     1  O   -0.166183   0.936923
     2  H    0.240488  -0.035521
     3  C   -1.404322   0.852492
     4  H    0.204382  -0.064495
     5  C    1.466864  -0.812288
     6  C   -0.301225   0.194871
     7  O   -0.277472  -0.076447
     8  O   -0.026454   0.001952
     9  C   -0.155545   0.001980
    10  C   -0.387154   0.001098
    11  H    0.166141   0.000071
    12  H    0.172706   0.000201
    13  H    0.139608  -0.000141
    14  H    0.149237  -0.000532
    15  H    0.178929  -0.000164
 Sum of Mulliken charges =  -0.00000   1.00000

 Dipole moment (field-independent basis, Debye):
    X=             -0.7704    Y=              0.6059    Z=             -0.6838  Tot=              1.1951
 Quadrupole moment (field-independent basis, Debye-Ang):
   XX=            -30.4431   YY=            -48.0292   ZZ=            -51.7288
   XY=             -1.2196   XZ=             -2.1029   YZ=              5.4911

 419.2806466\MP4SDQ=-419.2967803\CCSD=-419.3006701\CCSD(T)=-419.3542067
 Normal termination of Gaussian 16 at Sun Aug 24 04:19:09 2025.
