 Gaussian 16, Revision A.03,
 Gaussian 16:  ES64L-G16RevA.03 25-Dec-2016

 --------------------------
 # ccsd(t)/6-311++g(d,p) sp
 --------------------------

 -------------------
 Title Card Required
 -------------------
 Symbolic Z-matrix:
 Charge =  0 Multiplicity = 2

                         Standard orientation:
 ---------------------------------------------------------------------
 Center     Atomic      Atomic             Coordinates (Angstroms)
 Number     Number       Type             X           Y           Z
 ---------------------------------------------------------------------
      1          8           0       -1.420808    1.564215    0.123236
      2          1           0       -2.034189    1.726918    0.851446
      3          6           0       -2.770076   -0.504546   -0.457093
      4          1           0       -3.797724   -0.563542   -0.738109
      5          6           0       -1.613676   -0.125721   -0.121788
      6          6           0       -0.221779   -0.563399    0.216261
      7          8           0        0.105979   -0.951018    1.300643
      8          8           0        0.581921   -0.344001   -0.814620
      9          6           0        1.997370   -0.432745   -0.544485
     10          6           0        2.481651    0.820891    0.156950
     11          1           0        2.447782   -0.547023   -1.528564
     12          1           0        2.185920   -1.327446    0.049633
     13          1           0        3.563445    0.768593    0.294446
     14          1           0        2.244681    1.703429   -0.438274
     15          1           0        2.012407    0.918622    1.136282
 ---------------------------------------------------------------------

 SCF Done:  E(UHF) =  -417.983505688     A.U. after   28 cycles
 E2 =    -0.1266424726D+01 EUMP2 =    -0.41924993041351D+03
 CCSD(T)= -0.41936777379D+03

 The electronic state is 2-A.
 Alpha  occ. eigenvalues --  -20.61076 -20.59897 -20.55778 -11.41125 -11.30498
 Alpha  occ. eigenvalues --  -11.29468 -11.28505 -11.22149  -1.48156  -1.37888
 Alpha  occ. eigenvalues --   -1.35593  -1.08793  -1.04383  -0.92694  -0.83984
 Alpha  occ. eigenvalues --   -0.76632  -0.73267  -0.69307  -0.68988  -0.64746
 Alpha  occ. eigenvalues --   -0.62643  -0.61280  -0.57519  -0.54969  -0.53795
 Alpha  occ. eigenvalues --   -0.51636  -0.50157  -0.48100  -0.46008  -0.43913
 Alpha  occ. eigenvalues --   -0.41802
 Alpha virt. eigenvalues --    0.03688   0.04633   0.05748   0.06837   0.07016
 Alpha virt. eigenvalues --    0.08740   0.09774   0.10689   0.11204   0.12288
 Alpha virt. eigenvalues --    0.13258   0.13960   0.14629   0.15796   0.16673

  Beta  occ. eigenvalues --  -20.61077 -20.57635 -20.56043 -11.40782 -11.32680
  Beta  occ. eigenvalues --  -11.29471 -11.25410 -11.22150  -1.48243  -1.38309
  Beta  occ. eigenvalues --   -1.28772  -1.07238  -1.03098  -0.91133  -0.82545
  Beta  occ. eigenvalues --   -0.76241  -0.71681  -0.69573  -0.68240  -0.63591
  Beta  occ. eigenvalues --   -0.62668  -0.57722  -0.55995  -0.53911  -0.50275
  Beta  occ. eigenvalues --   -0.49988  -0.49412  -0.47778  -0.46573  -0.42128
  Beta virt. eigenvalues --    0.03801   0.04112   0.04640   0.06446   0.07006
  Beta virt. eigenvalues --    0.07429   0.08818   0.09731   0.10539   0.11864
  Beta virt. eigenvalues --    0.12872   0.13535   0.14458   0.15902   0.16111

 Mulliken charges and spin densities:
               1          2
     1  O   -0.259715   0.503178
     2  H    0.258615  -0.017674
     3  C   -0.076501   1.615381
     4  H    0.239943  -0.106172
     5  C    0.228759  -1.113046
     6  C   -0.311855   0.165751
     7  O   -0.285801  -0.051476
     8  O   -0.040762   0.003522
     9  C   -0.171829   0.001024
    10  C   -0.384980   0.000075
    11  H    0.164623   0.000081
    12  H    0.173144   0.000225
    13  H    0.136612  -0.000313
    14  H    0.152546  -0.000506
    15  H    0.177198  -0.000050
 Sum of Mulliken charges =  -0.00000   1.00000

 Dipole moment (field-independent basis, Debye):
    X=             -0.9224    Y=             -0.1979    Z=             -0.8757  Tot=              1.2872
 Quadrupole moment (field-independent basis, Debye-Ang):
   XX=            -30.1585   YY=            -49.6871   ZZ=            -51.3301
   XY=              0.2186   XZ=             -1.7694   YZ=              5.3612

 DQ=-419.3063312\CCSD=-419.3127539\CCSD(T)=-419.3677738\S2=1.044706\S2-
 Normal termination of Gaussian 16 at Fri Jul 18 16:34:10 2025.
