 Gaussian 16, Revision A.03,
 Gaussian 16:  ES64L-G16RevA.03 25-Dec-2016

 -------------------
 # freq 6-31+g m062x
 -------------------

 -------------------
 Title Card Required
 -------------------
 Symbolic Z-matrix:
 Charge =  0 Multiplicity = 2

                         Standard orientation:
 ---------------------------------------------------------------------
 Center     Atomic      Atomic             Coordinates (Angstroms)
 Number     Number       Type             X           Y           Z
 ---------------------------------------------------------------------
      1          8           0       -1.420808    1.564215    0.123236
      2          1           0       -2.034189    1.726918    0.851446
      3          6           0       -2.770076   -0.504546   -0.457093
      4          1           0       -3.797724   -0.563542   -0.738109
      5          6           0       -1.613676   -0.125721   -0.121788
      6          6           0       -0.221779   -0.563399    0.216261
      7          8           0        0.105979   -0.951018    1.300643
      8          8           0        0.581921   -0.344001   -0.814620
      9          6           0        1.997370   -0.432745   -0.544485
     10          6           0        2.481651    0.820891    0.156950
     11          1           0        2.447782   -0.547023   -1.528564
     12          1           0        2.185920   -1.327446    0.049633
     13          1           0        3.563445    0.768593    0.294446
     14          1           0        2.244681    1.703429   -0.438274
     15          1           0        2.012407    0.918622    1.136282
 ---------------------------------------------------------------------

 SCF Done:  E(UM062X) =  -419.965571069     A.U. after   19 cycles

 The electronic state is 2-A.
 Alpha  occ. eigenvalues --  -19.70580 -19.67105 -19.66479 -10.72805 -10.64739
 Alpha  occ. eigenvalues --  -10.61398 -10.61230 -10.54175  -1.28186  -1.18825
 Alpha  occ. eigenvalues --   -1.12887  -0.92114  -0.88316  -0.78664  -0.71583
 Alpha  occ. eigenvalues --   -0.64814  -0.62710  -0.59409  -0.57868  -0.54153
 Alpha  occ. eigenvalues --   -0.53599  -0.49673  -0.48052  -0.46432  -0.45165
 Alpha  occ. eigenvalues --   -0.41821  -0.40584  -0.39617  -0.38165  -0.36440
 Alpha  occ. eigenvalues --   -0.31314
 Alpha virt. eigenvalues --    0.00440   0.01762   0.02093   0.02698   0.03713
 Alpha virt. eigenvalues --    0.04285   0.05613   0.06163   0.07701   0.08055
 Alpha virt. eigenvalues --    0.08843   0.08947   0.09857   0.11465   0.12083

  Beta  occ. eigenvalues --  -19.70576 -19.66488 -19.66456 -10.72737 -10.64919
  Beta  occ. eigenvalues --  -10.61396 -10.60588 -10.54176  -1.28150  -1.18819
  Beta  occ. eigenvalues --   -1.10748  -0.90945  -0.87435  -0.78096  -0.70817
  Beta  occ. eigenvalues --   -0.64598  -0.61684  -0.59032  -0.57614  -0.53575
  Beta  occ. eigenvalues --   -0.53020  -0.49024  -0.46951  -0.45398  -0.43220
  Beta  occ. eigenvalues --   -0.41705  -0.39272  -0.39026  -0.38163  -0.35039
  Beta virt. eigenvalues --   -0.09156   0.01338   0.01514   0.02248   0.02859
  Beta virt. eigenvalues --    0.03824   0.04254   0.05568   0.05969   0.07598
  Beta virt. eigenvalues --    0.07906   0.08630   0.08886   0.10056   0.11285

 Mulliken charges and spin densities:
               1          2
     1  O   -0.514200   0.317231
     2  H    0.422041  -0.007577
     3  C    0.375498   0.997173
     4  H    0.289876  -0.035682
     5  C   -0.395559  -0.338319
     6  C    0.019482   0.065411
     7  O   -0.347749  -0.002368
     8  O   -0.169941   0.001874
     9  C   -0.246884   0.001556
    10  C   -0.559843   0.000823
    11  H    0.221679  -0.000020
    12  H    0.235325  -0.000161
    13  H    0.204592  -0.000038
    14  H    0.230755   0.000031
    15  H    0.234928   0.000068
 Sum of Mulliken charges =  -0.00000   1.00000

 Dipole moment (field-independent basis, Debye):
    X=             -0.8301    Y=             -0.5307    Z=             -0.5614  Tot=              1.1339
 Quadrupole moment (field-independent basis, Debye-Ang):
   XX=            -29.5342   YY=            -50.6519   ZZ=            -52.0739
   XY=              0.4987   XZ=             -1.9123   YZ=              5.5234

  Exact polarizability:  84.092   6.363  64.617   3.198   1.591  56.868
 Approx polarizability:  84.692   9.593  72.867   5.812  -0.778  71.402

 ******    3 imaginary frequencies (negative Signs) ******

                      1                      2                      3
                      A                      A                      A
 Frequencies --   -500.8476              -467.9410               -66.0572
 Red. masses --      5.4577                 1.0819                 5.7006
 Frc consts  --      0.8066                 0.1396                 0.0147
 IR Inten    --     70.1651               114.4028                 3.5489

                      4                      5                      6
                      A                      A                      A
 Frequencies --     40.6495                58.5250               144.5161
 Red. masses --      2.7530                 3.4761                 1.7184
 Frc consts  --      0.0027                 0.0070                 0.0211
 IR Inten    --      2.2826                 8.5560                 5.2571

                      7                      8                      9
                      A                      A                      A
 Frequencies --    197.4569               200.1180               247.2287
 Red. masses --      1.4928                 1.7205                 5.4523
 Frc consts  --      0.0343                 0.0406                 0.1963
 IR Inten    --     18.3751                 4.7984                 1.9972

                     10                     11                     12
                      A                      A                      A
 Frequencies --    312.0842               347.0770               438.2840
 Red. masses --      3.0851                 8.1524                 3.6356
 Frc consts  --      0.1770                 0.5786                 0.4115
 IR Inten    --     16.1480                 1.4796                10.1933

                     13                     14                     15
                      A                      A                      A
 Frequencies --    578.9120               632.4461               713.8586
 Red. masses --      3.7338                 5.6114                 1.3366
 Frc consts  --      0.7373                 1.3224                 0.4013
 IR Inten    --     13.4973                17.2569                57.3354

                     16                     17                     18
                      A                      A                      A
 Frequencies --    730.1500               816.0078               893.0250
 Red. masses --     10.3739                 1.3268                 3.1456
 Frc consts  --      3.2585                 0.5205                 1.4780
 IR Inten    --     19.0550                 7.6277                19.5314

                     19                     20                     21
                      A                      A                      A
 Frequencies --    929.5705               992.6059              1104.8206
 Red. masses --      2.1746                 1.3209                 4.1138
 Frc consts  --      1.1071                 0.7668                 2.9586
 IR Inten    --      6.4009                40.1487                15.5232

                     22                     23                     24
                      A                      A                      A
 Frequencies --   1157.9283              1227.8144              1320.6869
 Red. masses --      2.0530                 1.7435                 2.1743
 Frc consts  --      1.6218                 1.5486                 2.2344
 IR Inten    --     18.5264                 6.2343               317.8765

                     25                     26                     27
                      A                      A                      A
 Frequencies --   1366.5253              1440.2018              1459.0934
 Red. masses --      1.6548                 1.3700                 1.2467
 Frc consts  --      1.8207                 1.6743                 1.5638
 IR Inten    --    226.2124                22.8823                19.8665

                     28                     29                     30
                      A                      A                      A
 Frequencies --   1526.7606              1536.8440              1545.3288
 Red. masses --      1.0411                 1.0527                 1.0906
 Frc consts  --      1.4298                 1.4649                 1.5345
 IR Inten    --     14.9309                 2.2843                24.9924

                     31                     32                     33
                      A                      A                      A
 Frequencies --   1884.1206              1936.0278              3108.9452
 Red. masses --      8.0758                 9.9685                 1.0351
 Frc consts  --     16.8909                22.0142                 5.8946
 IR Inten    --    122.3212               198.8752                11.7699

                     34                     35                     36
                      A                      A                      A
 Frequencies --   3140.0650              3190.8087              3191.3543
 Red. masses --      1.0602                 1.1036                 1.0992
 Frc consts  --      6.1590                 6.6200                 6.5961
 IR Inten    --     21.1086                 0.5043                18.9090

                     37                     38                     39
                      A                      A                      A
 Frequencies --   3213.1766              3484.4388              3871.9482
 Red. masses --      1.1054                 1.1280                 1.0671
 Frc consts  --      6.7242                 8.0689                 9.4257
 IR Inten    --     16.5943                66.2307                35.8341

 - Thermochemistry -
 -------------------
 Temperature   298.150 Kelvin.  Pressure   1.00000 Atm.
 Atom     1 has atomic number  8 and mass  15.99491

 Molecular mass:   115.03952 amu.
 Principal axes and moments of inertia in atomic units:
                           1         2         3
     Eigenvalues --   474.212231373.738751491.34026
           X            0.99993   0.01161   0.00017
           Y           -0.01157   0.99533   0.09579
           Z            0.00094  -0.09579   0.99540
 This molecule is an asymmetric top.
 Rotational symmetry number  1.
 Warning -- assumption of classical behavior for rotation
           may cause significant error
 Rotational temperatures (Kelvin)      0.18265     0.06305     0.05808
 Rotational constants (GHZ):           3.80577     1.31374     1.21015
    3 imaginary frequencies ignored.
 Zero-point vibrational energy     292961.9 (Joules/Mol)
                                   70.01957 (Kcal/Mol)
 Warning -- explicit consideration of  10 degrees of freedom as
           vibrations may cause significant error
 Vibrational temperatures:     58.49    84.20   207.93   284.10   287.93
          (Kelvin)            355.71   449.02   499.37   630.59   832.93
                              909.95  1027.08  1050.52  1174.05  1284.86
                             1337.44  1428.14  1589.59  1666.00  1766.55
                             1900.17  1966.13  2072.13  2099.31  2196.67
                             2211.18  2223.38  2710.83  2785.51  4473.08
                             4517.85  4590.86  4591.65  4623.04  5013.33
                             5570.87

 Zero-point correction=                           0.111583 (Hartree/Particle)
 Thermal correction to Energy=                    0.120243
 Thermal correction to Enthalpy=                  0.121187
 Thermal correction to Gibbs Free Energy=         0.076516
 Sum of electronic and zero-point Energies=           -419.853988
 Sum of electronic and thermal Energies=              -419.845328
 Sum of electronic and thermal Enthalpies=            -419.844384
 Sum of electronic and thermal Free Energies=         -419.889055

                     E (Thermal)             CV                S
                      KCal/Mol        Cal/Mol-Kelvin    Cal/Mol-Kelvin
 Total                   75.454             28.856             94.018
 Electronic               0.000              0.000              1.377
 Translational            0.889              2.981             40.136
 Rotational               0.889              2.981             28.365
 Vibrational             73.676             22.894             24.140
 Vibration     1          0.594              1.981              5.227
 Vibration     2          0.596              1.974              4.506
 Vibration     3          0.616              1.909              2.743
 Vibration     4          0.637              1.843              2.157
 Vibration     5          0.638              1.840              2.132
 Vibration     6          0.661              1.767              1.750
 Vibration     7          0.700              1.651              1.351
 Vibration     8          0.725              1.581              1.179
 Vibration     9          0.798              1.387              0.832
 Vibration    10          0.935              1.077              0.487

 Normal termination of Gaussian 16 at Fri Jun 20 13:26:22 2025.
