 Gaussian 16, Revision A.03,
 Gaussian 16:  ES64L-G16RevA.03 25-Dec-2016

 --------------------------
 # freq 6-311++g(d,p) m062x
 --------------------------

 -------------------
 Title Card Required
 -------------------
 Symbolic Z-matrix:
 Charge =  0 Multiplicity = 2

                         Standard orientation:
 ---------------------------------------------------------------------
 Center     Atomic      Atomic             Coordinates (Angstroms)
 Number     Number       Type             X           Y           Z
 ---------------------------------------------------------------------
      1          8           0       -1.401452    1.729825    0.090239
      2          1           0       -2.034055    1.819805    0.821214
      3          6           0       -2.788929   -0.491430   -0.438179
      4          1           0       -3.817321   -0.547619   -0.709644
      5          6           0       -1.624829   -0.377492   -0.146624
      6          6           0       -0.223159   -0.569764    0.233682
      7          8           0        0.112940   -0.897754    1.336533
      8          8           0        0.580329   -0.369963   -0.802936
      9          6           0        1.994262   -0.454445   -0.531835
     10          6           0        2.485440    0.819903    0.125157
     11          1           0        2.443031   -0.604642   -1.511980
     12          1           0        2.180574   -1.328718    0.092949
     13          1           0        3.567417    0.769689    0.261913
     14          1           0        2.250489    1.682277   -0.499939
     15          1           0        2.018614    0.951717    1.101585
 ---------------------------------------------------------------------

 SCF Done:  E(UM062X) =  -420.204202173     A.U. after   24 cycles

 The electronic state is 2-A.
 Alpha  occ. eigenvalues --  -19.68025 -19.66826 -19.62927 -10.70543 -10.60315
 Alpha  occ. eigenvalues --  -10.58338 -10.57882 -10.53363  -1.25551  -1.16251
 Alpha  occ. eigenvalues --   -1.12769  -0.90762  -0.87269  -0.78004  -0.70546
 Alpha  occ. eigenvalues --   -0.64357  -0.61822  -0.58445  -0.57122  -0.54330
 Alpha  occ. eigenvalues --   -0.53235  -0.50417  -0.48548  -0.46133  -0.45045
 Alpha  occ. eigenvalues --   -0.41843  -0.41708  -0.39521  -0.38265  -0.36493
 Alpha  occ. eigenvalues --   -0.35174
 Alpha virt. eigenvalues --   -0.00842  -0.00205   0.00511   0.01472   0.02528
 Alpha virt. eigenvalues --    0.02791   0.03620   0.04382   0.05642   0.06191
 Alpha virt. eigenvalues --    0.07144   0.07649   0.08464   0.09820   0.10722

  Beta  occ. eigenvalues --  -19.68029 -19.65315 -19.62944 -10.70524 -10.60315
  Beta  occ. eigenvalues --  -10.58351 -10.57727 -10.53363  -1.25557  -1.16287
  Beta  occ. eigenvalues --   -1.05977  -0.90353  -0.86926  -0.77838  -0.70376
  Beta  occ. eigenvalues --   -0.64287  -0.61459  -0.58394  -0.56637  -0.53210
  Beta  occ. eigenvalues --   -0.51811  -0.49012  -0.46532  -0.45093  -0.41702
  Beta  occ. eigenvalues --   -0.39441  -0.39036  -0.38387  -0.38069  -0.36003
  Beta virt. eigenvalues --   -0.09288  -0.00257   0.00184   0.00574   0.01764
  Beta virt. eigenvalues --    0.02640   0.02824   0.03638   0.04465   0.05713
  Beta virt. eigenvalues --    0.06191   0.07240   0.07628   0.08498   0.09907

 Mulliken charges and spin densities:
               1          2
     1  O   -0.225635   0.861553
     2  H    0.234566  -0.019658
     3  C   -1.203908   0.238121
     4  H    0.186623  -0.011726
     5  C    1.273150  -0.110201
     6  C   -0.350852   0.049230
     7  O   -0.199307  -0.008105
     8  O    0.059819   0.000437
     9  C   -0.272719  -0.000527
    10  C   -0.415952   0.001961
    11  H    0.194845   0.000117
    12  H    0.188828  -0.000003
    13  H    0.170077   0.000075
    14  H    0.171411  -0.000267
    15  H    0.189054  -0.001008
 Sum of Mulliken charges =  -0.00000   1.00000

 Dipole moment (field-independent basis, Debye):
    X=             -0.6483    Y=              0.0836    Z=             -0.6584  Tot=              0.9278
 Quadrupole moment (field-independent basis, Debye-Ang):
   XX=            -30.1806   YY=            -48.7245   ZZ=            -51.2262
   XY=             -0.2403   XZ=             -1.8184   YZ=              5.1070

  Exact polarizability:  91.451   6.176  68.703   4.490   1.955  59.443
 Approx polarizability:  98.914   5.983  72.856   7.493  -1.205  76.745

 ******    2 imaginary frequencies (negative Signs) ******

                      1                      2                      3
                      A                      A                      A
 Frequencies --   -186.6831               -24.5991                45.9803
 Red. masses --     11.6252                 4.8928                 4.0033
 Frc consts  --      0.2387                 0.0017                 0.0050
 IR Inten    --     22.5494                 7.6447                 1.0529

                      4                      5                      6
                      A                      A                      A
 Frequencies --    115.3850               134.4383               160.2878
 Red. masses --      3.8538                 4.8841                 2.5628
 Frc consts  --      0.0302                 0.0520                 0.0388
 IR Inten    --      1.7062                11.5293                10.2308

                      7                      8                      9
                      A                      A                      A
 Frequencies --    209.4548               226.3279               255.9039
 Red. masses --      1.5959                 1.4131                 1.9108
 Frc consts  --      0.0413                 0.0426                 0.0737
 IR Inten    --     36.1944                 2.2234                32.8303

                     10                     11                     12
                      A                      A                      A
 Frequencies --    336.1971               427.7054               558.8420
 Red. masses --      2.9076                 3.7602                 3.5429
 Frc consts  --      0.1936                 0.4053                 0.6519
 IR Inten    --      9.7736                 3.5679                 9.5741

                     13                     14                     15
                      A                      A                      A
 Frequencies --    607.5352               640.7374               719.8008
 Red. masses --      6.1098                 1.1529                 1.3303
 Frc consts  --      1.3287                 0.2789                 0.4061
 IR Inten    --     14.2956                76.9885                34.3855

                     16                     17                     18
                      A                      A                      A
 Frequencies --    743.5990               774.3208               803.0791
 Red. masses --      1.3250                 7.7237                 1.2065
 Frc consts  --      0.4317                 2.7285                 0.4584
 IR Inten    --     21.4034                58.4799                 5.2393

                     19                     20                     21
                      A                      A                      A
 Frequencies --    897.5799               929.2797              1075.9954
 Red. masses --      3.2319                 2.7539                 4.1337
 Frc consts  --      1.5341                 1.4012                 2.8198
 IR Inten    --     15.7915                 5.8870                23.1064

                     22                     23                     24
                      A                      A                      A
 Frequencies --   1129.7642              1204.5198              1291.5911
 Red. masses --      2.0924                 1.7712                 3.6196
 Frc consts  --      1.5735                 1.5141                 3.5577
 IR Inten    --     22.6403                 5.6017               536.3923

                     25                     26                     27
                      A                      A                      A
 Frequencies --   1346.4986              1402.0763              1431.3824
 Red. masses --      1.2578                 1.2855                 1.3842
 Frc consts  --      1.3436                 1.4889                 1.6710
 IR Inten    --    102.9693                28.2216                12.8658

                     28                     29                     30
                      A                      A                      A
 Frequencies --   1491.1528              1502.4782              1515.0877
 Red. masses --      1.0401                 1.0550                 1.0932
 Frc consts  --      1.3625                 1.4032                 1.4785
 IR Inten    --     10.8676                 1.1045                21.3581

                     31                     32                     33
                      A                      A                      A
 Frequencies --   1844.1739              2208.3636              3075.8085
 Red. masses --     11.9972                 5.9844                 1.0353
 Frc consts  --     24.0400                17.1954                 5.7706
 IR Inten    --    340.7489                73.9523                 9.5423

                     34                     35                     36
                      A                      A                      A
 Frequencies --   3107.3661              3152.4979              3154.2649
 Red. masses --      1.0607                 1.1020                 1.1044
 Frc consts  --      6.0345                 6.4528                 6.4740
 IR Inten    --     19.8621                13.0208                 4.1731

                     37                     38                     39
                      A                      A                      A
 Frequencies --   3175.0726              3484.4805              3806.1354
 Red. masses --      1.1073                 1.1617                 1.0673
 Frc consts  --      6.5771                 8.3101                 9.1101
 IR Inten    --     14.8633                68.6970                41.5044

 - Thermochemistry -
 -------------------
 Temperature   298.150 Kelvin.  Pressure   1.00000 Atm.
 Atom     1 has atomic number  8 and mass  15.99491

 Molecular mass:   115.03952 amu.
 Principal axes and moments of inertia in atomic units:
                           1         2         3
     Eigenvalues --   510.318461380.084051528.78131
           X            0.99994   0.01074  -0.00089
           Y           -0.01064   0.99726   0.07321
           Z            0.00167  -0.07319   0.99732
 This molecule is an asymmetric top.
 Rotational symmetry number  1.
 Warning -- assumption of classical behavior for rotation
           may cause significant error
 Rotational temperatures (Kelvin)      0.16973     0.06276     0.05666
 Rotational constants (GHZ):           3.53650     1.30770     1.18051
    2 imaginary frequencies ignored.
 Zero-point vibrational energy     292996.3 (Joules/Mol)
                                   70.02781 (Kcal/Mol)
 Warning -- explicit consideration of  11 degrees of freedom as
           vibrations may cause significant error
 Vibrational temperatures:     66.16   166.01   193.43   230.62   301.36
          (Kelvin)            325.64   368.19   483.71   615.37   804.05
                              874.11   921.88  1035.63  1069.87  1114.07
                             1155.45  1291.42  1337.03  1548.12  1625.48
                             1733.04  1858.31  1937.31  2017.28  2059.44
                             2145.44  2161.73  2179.87  2653.35  3177.34
                             4425.40  4470.81  4535.74  4538.28  4568.22
                             5013.39  5476.18

 Zero-point correction=                           0.111596 (Hartree/Particle)
 Thermal correction to Energy=                    0.120543
 Thermal correction to Enthalpy=                  0.121487
 Thermal correction to Gibbs Free Energy=         0.076736
 Sum of electronic and zero-point Energies=           -420.092606
 Sum of electronic and thermal Energies=              -420.083659
 Sum of electronic and thermal Enthalpies=            -420.082715
 Sum of electronic and thermal Free Energies=         -420.127466

                     E (Thermal)             CV                S
                      KCal/Mol        Cal/Mol-Kelvin    Cal/Mol-Kelvin
 Total                   75.642             30.495             94.185
 Electronic               0.000              0.000              1.377
 Translational            0.889              2.981             40.136
 Rotational               0.889              2.981             28.467
 Vibrational             73.864             24.534             24.205
 Vibration     1          0.595              1.979              4.983
 Vibration     2          0.608              1.937              3.176
 Vibration     3          0.613              1.919              2.882
 Vibration     4          0.622              1.891              2.546
 Vibration     5          0.642              1.826              2.048
 Vibration     6          0.650              1.801              1.908
 Vibration     7          0.666              1.753              1.690
 Vibration     8          0.717              1.603              1.230
 Vibration     9          0.789              1.410              0.866
 Vibration    10          0.914              1.120              0.526
 Vibration    11          0.966              1.016              0.437

 1\1\GINC-AJ\Freq\UM062X\6-311++G(d,p)\C5H7O3(2)\AAYUSH\16-Aug-2025\0\\
 # freq 6-311++g(d,p) m062x\\Title Card Required\\0,2\O,-1.345973,1.751
 369,0.104567\H,-1.979148,1.832886,0.836039\C,-2.731278,-0.465129,-0.44
 8926\H,-3.759439,-0.519194,-0.721696\C,-1.567471,-0.353428,-0.155345\C
 ,-0.165904,-0.548691,0.223816\O,0.16971,-0.88838,1.323269\O,0.638128,-
 0.336983,-0.810013\C,2.051944,-0.423265,-0.538869\C,2.541635,0.844261,
 0.132276\H,2.501504,-0.562435,-1.520279\H,2.238542,-1.304128,0.076502\
 H,3.623559,0.793437,0.269226\H,2.306407,1.71319,-0.48357\H,2.074035,0.

 Normal termination of Gaussian 16 at Sat Aug 16 16:49:23 2025.
