 Gaussian 16, Revision A.03,
 Gaussian 16:  ES64L-G16RevA.03 25-Dec-2016

 --------------------------
 # ccsd(t)/6-311++g(d,p) sp
 --------------------------

 -------------------
 Title Card Required
 -------------------
 Symbolic Z-matrix:
 Charge =  0 Multiplicity = 2

                         Standard orientation:
 ---------------------------------------------------------------------
 Center     Atomic      Atomic             Coordinates (Angstroms)
 Number     Number       Type             X           Y           Z
 ---------------------------------------------------------------------
      1          8           0       -1.415648    1.605040    0.114683
      2          1           0       -2.034067    1.750004    0.844290
      3          6           0       -2.775992   -0.498105   -0.451725
      4          1           0       -3.801322   -0.576801   -0.732634
      5          6           0       -1.616353   -0.189019   -0.129369
      6          6           0       -0.220550   -0.562605    0.221604
      7          8           0        0.107048   -0.937343    1.310313
      8          8           0        0.581331   -0.351051   -0.811577
      9          6           0        1.996661   -0.438883   -0.541153
     10          6           0        2.482645    0.820470    0.148388
     11          1           0        2.446275   -0.562877   -1.524424
     12          1           0        2.184334   -1.328355    0.061121
     13          1           0        3.564470    0.768474    0.285761
     14          1           0        2.246140    1.697652   -0.454869
     15          1           0        2.013865    0.927592    1.126935
 ---------------------------------------------------------------------

 SCF Done:  E(UHF) =  -417.977337176     A.U. after   30 cycles
 E2 =    -0.1259473066D+01 EUMP2 =    -0.41923681024147D+03
 CCSD(T)= -0.41935899498D+03

 The electronic state is 2-A.
 Alpha  occ. eigenvalues --  -20.61015 -20.60956 -20.55612 -11.41215 -11.29449
 Alpha  occ. eigenvalues --  -11.28604 -11.27911 -11.22165  -1.48102  -1.37787
 Alpha  occ. eigenvalues --   -1.36677  -1.08409  -1.04336  -0.92630  -0.83786
 Alpha  occ. eigenvalues --   -0.76517  -0.73247  -0.69268  -0.68866  -0.65001
 Alpha  occ. eigenvalues --   -0.62897  -0.62463  -0.57577  -0.55173  -0.53797
 Alpha  occ. eigenvalues --   -0.52326  -0.50163  -0.47926  -0.45815  -0.43669
 Alpha  occ. eigenvalues --   -0.42147
 Alpha virt. eigenvalues --    0.03693   0.04628   0.05709   0.06835   0.07017
 Alpha virt. eigenvalues --    0.08737   0.09725   0.10659   0.11242   0.12006
 Alpha virt. eigenvalues --    0.13310   0.13925   0.14642   0.15759   0.16761

  Beta  occ. eigenvalues --  -20.61017 -20.57890 -20.55965 -11.40841 -11.30823
  Beta  occ. eigenvalues --  -11.29450 -11.25150 -11.22167  -1.48228  -1.38340
  Beta  occ. eigenvalues --   -1.26686  -1.07522  -1.03256  -0.91271  -0.82684
  Beta  occ. eigenvalues --   -0.76193  -0.71855  -0.69555  -0.67905  -0.63290
  Beta  occ. eigenvalues --   -0.62726  -0.57876  -0.55764  -0.53919  -0.50218
  Beta  occ. eigenvalues --   -0.49809  -0.48677  -0.47058  -0.46074  -0.42295
  Beta virt. eigenvalues --    0.03790   0.04262   0.04647   0.06527   0.07013
  Beta virt. eigenvalues --    0.07626   0.08851   0.09730   0.10618   0.11911
  Beta virt. eigenvalues --    0.12525   0.13556   0.14474   0.15784   0.16053

 Mulliken charges and spin densities:
               1          2
     1  O   -0.210163   0.702533
     2  H    0.252639  -0.025576
     3  C   -0.235721   1.460785
     4  H    0.229490  -0.102391
     5  C    0.444762  -1.147933
     6  C   -0.405842   0.178962
     7  O   -0.284899  -0.071224
     8  O   -0.038576   0.003550
     9  C   -0.169475   0.001099
    10  C   -0.385857   0.000955
    11  H    0.164887   0.000084
    12  H    0.172675   0.000318
    13  H    0.136956  -0.000352
    14  H    0.151833  -0.000621
    15  H    0.177292  -0.000188
 Sum of Mulliken charges =  -0.00000   1.00000

 Dipole moment (field-independent basis, Debye):
    X=             -0.8721    Y=              0.0493    Z=             -0.8240  Tot=              1.2008
 Quadrupole moment (field-independent basis, Debye-Ang):
   XX=            -30.2314   YY=            -49.0458   ZZ=            -51.4412
   XY=             -0.1297   XZ=             -1.8471   YZ=              5.4389

 PMP3-0=-419.2861138\MP4SDQ=-419.2953684\CCSD=-419.3037892\CCSD(T)=-419
 Normal termination of Gaussian 16 at Fri Aug 22 00:47:29 2025.
