 Gaussian 16, Revision A.03,
 Gaussian 16:  ES64L-G16RevA.03 25-Dec-2016

 --------------------------
 # freq 6-311++g(d,p) m062x
 --------------------------

 -------------------
 Title Card Required
 -------------------
 Symbolic Z-matrix:
 Charge =  0 Multiplicity = 2

                         Standard orientation:
 ---------------------------------------------------------------------
 Center     Atomic      Atomic             Coordinates (Angstroms)
 Number     Number       Type             X           Y           Z
 ---------------------------------------------------------------------
      1          8           0       -1.417248    1.591542    0.117497
      2          1           0       -2.033950    1.742075    0.846749
      3          6           0       -2.774371   -0.500074   -0.453472
      4          1           0       -3.800223   -0.574014   -0.734647
      5          6           0       -1.615387   -0.167759   -0.126897
      6          6           0       -0.220810   -0.562871    0.219895
      7          8           0        0.106680   -0.941789    1.307214
      8          8           0        0.581491   -0.348781   -0.812574
      9          6           0        1.996885   -0.436934   -0.542266
     10          6           0        2.482348    0.820559    0.151128
     11          1           0        2.446712   -0.557798   -1.525825
     12          1           0        2.184799   -1.328126    0.057359
     13          1           0        3.564163    0.768412    0.288521
     14          1           0        2.245692    1.699488   -0.449517
     15          1           0        2.013421    0.924670    1.129935
 ---------------------------------------------------------------------

 SCF Done:  E(UM062X) =  -420.211072185     A.U. after   20 cycles

 The electronic state is 2-A.
 Alpha  occ. eigenvalues --  -19.68234 -19.64288 -19.63249 -10.70542 -10.62674
 Alpha  occ. eigenvalues --  -10.60419 -10.59666 -10.53372  -1.25810  -1.16527
 Alpha  occ. eigenvalues --   -1.10902  -0.91465  -0.87703  -0.78241  -0.70960
 Alpha  occ. eigenvalues --   -0.64696  -0.62388  -0.58827  -0.57706  -0.53484
 Alpha  occ. eigenvalues --   -0.53144  -0.49663  -0.48160  -0.46051  -0.45128
 Alpha  occ. eigenvalues --   -0.41761  -0.40350  -0.39664  -0.38426  -0.36506
 Alpha  occ. eigenvalues --   -0.31742
 Alpha virt. eigenvalues --   -0.00270   0.00296   0.00566   0.01402   0.02344
 Alpha virt. eigenvalues --    0.02692   0.03091   0.04274   0.05757   0.06128
 Alpha virt. eigenvalues --    0.07073   0.07659   0.08356   0.09966   0.10486

  Beta  occ. eigenvalues --  -19.68232 -19.63494 -19.63261 -10.70490 -10.62830
  Beta  occ. eigenvalues --  -10.60419 -10.59137 -10.53372  -1.25785  -1.16541
  Beta  occ. eigenvalues --   -1.08083  -0.90280  -0.86798  -0.77656  -0.70247
  Beta  occ. eigenvalues --   -0.64474  -0.61588  -0.58697  -0.57323  -0.53104
  Beta  occ. eigenvalues --   -0.52120  -0.48840  -0.46873  -0.45235  -0.42104
  Beta  occ. eigenvalues --   -0.41708  -0.39374  -0.38527  -0.38400  -0.35125
  Beta virt. eigenvalues --   -0.09414  -0.00192   0.00463   0.01371   0.01944
  Beta virt. eigenvalues --    0.02381   0.02764   0.03282   0.04316   0.05742
  Beta virt. eigenvalues --    0.06047   0.07181   0.07519   0.08421   0.09903

 Mulliken charges and spin densities:
               1          2
     1  O   -0.285571   0.404834
     2  H    0.245699  -0.004150
     3  C   -0.060913   0.891322
     4  H    0.219964  -0.028435
     5  C    0.249139  -0.323608
     6  C   -0.427417   0.061200
     7  O   -0.206281  -0.005884
     8  O    0.049201   0.002364
     9  C   -0.279946   0.001178
    10  C   -0.418585   0.002429
    11  H    0.195568   0.000286
    12  H    0.188649  -0.000138
    13  H    0.166619  -0.000082
    14  H    0.174195  -0.000417
    15  H    0.189679  -0.000899
 Sum of Mulliken charges =  -0.00000   1.00000

 Dipole moment (field-independent basis, Debye):
    X=             -0.7247    Y=             -0.6107    Z=             -0.8342  Tot=              1.2626
 Quadrupole moment (field-independent basis, Debye-Ang):
   XX=            -29.8721   YY=            -50.0564   ZZ=            -50.9572
   XY=              1.0445   XZ=             -1.4460   YZ=              4.9646

  Exact polarizability:  88.802   6.632  69.517   3.887   2.507  59.351
 Approx polarizability:  92.385   9.170  82.113   6.098   0.682  76.829

 ******    1 imaginary frequencies (negative Signs) ******

                      1                      2                      3
                      A                      A                      A
 Frequencies --   -630.8936                81.4868                93.4650
 Red. masses --     10.8665                 3.0480                 4.5373
 Frc consts  --      2.5483                 0.0119                 0.0234
 IR Inten    --     12.5130                 1.9317                 6.8152

                      4                      5                      6
                      A                      A                      A
 Frequencies --    116.0563               176.8561               195.2892
 Red. masses --      2.9051                 1.6370                 1.4176
 Frc consts  --      0.0231                 0.0302                 0.0319
 IR Inten    --      2.3143                45.4616                38.1472

                      7                      8                      9
                      A                      A                      A
 Frequencies --    236.1846               247.1182               288.4869
 Red. masses --      1.9606                 5.1956                 1.6586
 Frc consts  --      0.0644                 0.1869                 0.0813
 IR Inten    --      0.8370                 3.3371                18.6164

                     10                     11                     12
                      A                      A                      A
 Frequencies --    339.6184               382.3970               443.5937
 Red. masses --      3.0477                 2.1953                 3.6079
 Frc consts  --      0.2071                 0.1891                 0.4183
 IR Inten    --     10.9612                21.0911                 8.7404

                     13                     14                     15
                      A                      A                      A
 Frequencies --    580.0317               623.0148               699.6895
 Red. masses --      3.9832                 5.8764                 1.3682
 Frc consts  --      0.7896                 1.3439                 0.3946
 IR Inten    --      5.9327                13.8405                40.6284

                     16                     17                     18
                      A                      A                      A
 Frequencies --    775.0055               801.9893               894.6143
 Red. masses --     10.4218                 1.2120                 3.2374
 Frc consts  --      3.6881                 0.4593                 1.5266
 IR Inten    --     22.7315                 4.9422                16.8009

                     19                     20                     21
                      A                      A                      A
 Frequencies --    918.7051              1003.3581              1070.5193
 Red. masses --      2.6227                 1.1766                 3.8777
 Frc consts  --      1.3042                 0.6979                 2.6183
 IR Inten    --      2.3217                50.3984                33.1145

                     22                     23                     24
                      A                      A                      A
 Frequencies --   1129.2283              1203.2720              1283.1026
 Red. masses --      2.0790                 1.7719                 3.8866
 Frc consts  --      1.5620                 1.5116                 3.7700
 IR Inten    --     21.5851                 7.9412               514.8252

                     25                     26                     27
                      A                      A                      A
 Frequencies --   1344.5142              1402.1736              1430.6596
 Red. masses --      1.2388                 1.2811                 1.3674
 Frc consts  --      1.3194                 1.4840                 1.6490
 IR Inten    --     85.2864                21.0170                12.5390

                     28                     29                     30
                      A                      A                      A
 Frequencies --   1491.5606              1501.8860              1514.5274
 Red. masses --      1.0400                 1.0538                 1.0932
 Frc consts  --      1.3632                 1.4005                 1.4775
 IR Inten    --     10.7283                 0.9820                19.5556

                     31                     32                     33
                      A                      A                      A
 Frequencies --   1842.7572              1917.4373              3076.8637
 Red. masses --     10.7177                 7.5965                 1.0353
 Frc consts  --     21.4430                16.4554                 5.7749
 IR Inten    --    295.3543                61.1042                 8.9331

                     34                     35                     36
                      A                      A                      A
 Frequencies --   3109.5175              3154.2640              3155.4816
 Red. masses --      1.0608                 1.1011                 1.1052
 Frc consts  --      6.0433                 6.4544                 6.4836
 IR Inten    --     19.6812                16.2931                 0.0970

                     37                     38                     39
                      A                      A                      A
 Frequencies --   3177.0048              3451.5459              3847.9852
 Red. masses --      1.1075                 1.1283                 1.0677
 Frc consts  --      6.5859                 7.9199                 9.3146
 IR Inten    --     14.2935                81.9413                62.5552

 - Thermochemistry -
 -------------------
 Temperature   298.150 Kelvin.  Pressure   1.00000 Atm.
 Atom     1 has atomic number  8 and mass  15.99491

 Molecular mass:   115.03952 amu.
 Principal axes and moments of inertia in atomic units:
                           1         2         3
     Eigenvalues --   479.453571374.975101496.91614
           X            0.99993   0.01164   0.00001
           Y           -0.01159   0.99568   0.09216
           Z            0.00107  -0.09216   0.99574
 This molecule is an asymmetric top.
 Rotational symmetry number  1.
 Warning -- assumption of classical behavior for rotation
           may cause significant error
 Rotational temperatures (Kelvin)      0.18065     0.06299     0.05786
 Rotational constants (GHZ):           3.76416     1.31256     1.20564
    1 imaginary frequencies ignored.
 Zero-point vibrational energy     293092.6 (Joules/Mol)
                                   70.05082 (Kcal/Mol)
 Warning -- explicit consideration of  12 degrees of freedom as
           vibrations may cause significant error
 Vibrational temperatures:    117.24   134.48   166.98   254.46   280.98
          (Kelvin)            339.82   355.55   415.07   488.64   550.18
                              638.23   834.54   896.38  1006.70  1115.06
                             1153.88  1287.15  1321.81  1443.61  1540.24
                             1624.71  1731.24  1846.10  1934.46  2017.42
                             2058.40  2146.02  2160.88  2179.07  2651.32
                             2758.76  4426.92  4473.90  4538.28  4540.03
                             4571.00  4966.00  5536.39

 Zero-point correction=                           0.111633 (Hartree/Particle)
 Thermal correction to Energy=                    0.121110
 Thermal correction to Enthalpy=                  0.122055
 Thermal correction to Gibbs Free Energy=         0.076700
 Sum of electronic and zero-point Energies=           -420.099439
 Sum of electronic and thermal Energies=              -420.089962
 Sum of electronic and thermal Enthalpies=            -420.089018
 Sum of electronic and thermal Free Energies=         -420.134372

                     E (Thermal)             CV                S
                      KCal/Mol        Cal/Mol-Kelvin    Cal/Mol-Kelvin
 Total                   75.998             32.352             95.456
 Electronic               0.000              0.000              1.377
 Translational            0.889              2.981             40.136
 Rotational               0.889              2.981             28.380
 Vibrational             74.220             26.391             25.563
 Vibration     1          0.600              1.962              3.855
 Vibration     2          0.602              1.954              3.586
 Vibration     3          0.608              1.936              3.165
 Vibration     4          0.628              1.871              2.361
 Vibration     5          0.636              1.846              2.177
 Vibration     6          0.655              1.785              1.831
 Vibration     7          0.661              1.768              1.751
 Vibration     8          0.685              1.695              1.483
 Vibration     9          0.720              1.596              1.214
 Vibration    10          0.752              1.508              1.030
 Vibration    11          0.803              1.375              0.815
 Vibration    12          0.937              1.074              0.485

 1\1\GINC-AJ\Freq\UM062X\6-311++G(d,p)\C5H7O3(2)\AAYUSH\23-Jun-2025\0\\
 # freq 6-311++g(d,p) m062x\\Title Card Required\\0,2\O,-1.417248,1.591
 542,0.117497\H,-2.03395,1.742075,0.846749\C,-2.774371,-0.500074,-0.453
 472\H,-3.800223,-0.574014,-0.734647\C,-1.615387,-0.167759,-0.126897\C,
 -0.22081,-0.562871,0.219895\O,0.10668,-0.941789,1.307214\O,0.581491,-0
 .348781,-0.812574\C,1.996885,-0.436934,-0.542266\C,2.482348,0.820559,0
 .151128\H,2.446712,-0.557798,-1.525825\H,2.184799,-1.328126,0.057359\H
 ,3.564163,0.768412,0.288521\H,2.245692,1.699488,-0.449517\H,2.013421,0

 Normal termination of Gaussian 16 at Mon Jun 23 04:02:18 2025.
