 Gaussian 16, Revision A.03,
 Gaussian 16:  ES64L-G16RevA.03 25-Dec-2016

 --------------------------
 # freq 6-311++g(d,p) m062x
 --------------------------

 -------------------
 Title Card Required
 -------------------
 Symbolic Z-matrix:
 Charge =  0 Multiplicity = 2

                         Standard orientation:
 ---------------------------------------------------------------------
 Center     Atomic      Atomic             Coordinates (Angstroms)
 Number     Number       Type             X           Y           Z
 ---------------------------------------------------------------------
      1          8           0       -1.418961    1.577940    0.120346
      2          1           0       -2.033977    1.734374    0.849143
      3          6           0       -2.772414   -0.502224   -0.455260
      4          1           0       -3.799043   -0.569625   -0.736481
      5          6           0       -1.614492   -0.146645   -0.124369
      6          6           0       -0.221220   -0.563146    0.218114
      7          8           0        0.106327   -0.946342    1.303997
      8          8           0        0.581688   -0.346435   -0.813587
      9          6           0        1.997121   -0.434891   -0.543378
     10          6           0        2.482019    0.820697    0.153977
     11          1           0        2.447213   -0.552521   -1.527205
     12          1           0        2.185325   -1.327826    0.053531
     13          1           0        3.563823    0.768447    0.291410
     14          1           0        2.245208    1.701410   -0.443993
     15          1           0        2.012938    0.921681    1.133046
 ---------------------------------------------------------------------

 SCF Done:  E(UM062X) =  -420.214283693     A.U. after   19 cycles

 The electronic state is 2-A.
 Alpha  occ. eigenvalues --  -19.68218 -19.64313 -19.63241 -10.70457 -10.62980
 Alpha  occ. eigenvalues --  -10.60410 -10.59644 -10.53375  -1.25785  -1.16502
 Alpha  occ. eigenvalues --   -1.11116  -0.91376  -0.87670  -0.78204  -0.70945
 Alpha  occ. eigenvalues --   -0.64674  -0.62268  -0.58864  -0.57806  -0.53668
 Alpha  occ. eigenvalues --   -0.53115  -0.49666  -0.48152  -0.46089  -0.45132
 Alpha  occ. eigenvalues --   -0.41752  -0.40382  -0.39655  -0.38415  -0.36382
 Alpha  occ. eigenvalues --   -0.31531
 Alpha virt. eigenvalues --   -0.00262   0.00361   0.00728   0.01361   0.02303
 Alpha virt. eigenvalues --    0.02697   0.03132   0.04295   0.05769   0.06132
 Alpha virt. eigenvalues --    0.07099   0.07686   0.08369   0.09995   0.10488

  Beta  occ. eigenvalues --  -19.68215 -19.63614 -19.63250 -10.70403 -10.63140
  Beta  occ. eigenvalues --  -10.60409 -10.59075 -10.53376  -1.25755  -1.16509
  Beta  occ. eigenvalues --   -1.08647  -0.90175  -0.86694  -0.77578  -0.70167
  Beta  occ. eigenvalues --   -0.64452  -0.61422  -0.58700  -0.57426  -0.53074
  Beta  occ. eigenvalues --   -0.52469  -0.48806  -0.46942  -0.45249  -0.42671
  Beta  occ. eigenvalues --   -0.41696  -0.39286  -0.38728  -0.38407  -0.35000
  Beta virt. eigenvalues --   -0.09143  -0.00200   0.00461   0.01416   0.02005
  Beta virt. eigenvalues --    0.02362   0.02762   0.03330   0.04341   0.05746
  Beta virt. eigenvalues --    0.06033   0.07205   0.07555   0.08427   0.09891

 Mulliken charges and spin densities:
               1          2
     1  O   -0.286433   0.351339
     2  H    0.249182  -0.002406
     3  C   -0.040275   0.939742
     4  H    0.221105  -0.028916
     5  C    0.197191  -0.323327
     6  C   -0.397751   0.062506
     7  O   -0.207257  -0.004148
     8  O    0.048604   0.002839
     9  C   -0.279912   0.001390
    10  C   -0.419253   0.002126
    11  H    0.195514   0.000272
    12  H    0.188904  -0.000181
    13  H    0.166457  -0.000080
    14  H    0.174156  -0.000359
    15  H    0.189767  -0.000797
 Sum of Mulliken charges =  -0.00000   1.00000

 Dipole moment (field-independent basis, Debye):
    X=             -0.7094    Y=             -0.5563    Z=             -0.8233  Tot=              1.2209
 Quadrupole moment (field-independent basis, Debye-Ang):
   XX=            -30.0458   YY=            -50.0688   ZZ=            -50.9483
   XY=              0.9239   XZ=             -1.4837   YZ=              4.9568

  Exact polarizability:  88.466   6.387  68.433   3.756   2.320  59.306
 Approx polarizability:  91.529   8.811  81.218   5.823   0.527  76.772

 ******    1 imaginary frequencies (negative Signs) ******

                      1                      2                      3
                      A                      A                      A
 Frequencies --   -586.6113                82.0619                95.3641
 Red. masses --      9.1893                 2.7672                 4.4900
 Frc consts  --      1.8631                 0.0110                 0.0241
 IR Inten    --     35.3712                 3.1052                 7.6635

                      4                      5                      6
                      A                      A                      A
 Frequencies --    114.5088               168.9047               189.8530
 Red. masses --      2.6539                 1.4522                 1.6810
 Frc consts  --      0.0205                 0.0244                 0.0357
 IR Inten    --      4.1119                66.9544                10.1738

                      7                      8                      9
                      A                      A                      A
 Frequencies --    238.2616               253.3787               270.3251
 Red. masses --      1.8326                 4.6297                 1.3205
 Frc consts  --      0.0613                 0.1751                 0.0569
 IR Inten    --      2.9442                 7.7550                25.1856

                     10                     11                     12
                      A                      A                      A
 Frequencies --    339.0855               355.4510               445.6585
 Red. masses --      2.9699                 5.5446                 3.5727
 Frc consts  --      0.2012                 0.4127                 0.4181
 IR Inten    --     11.3427                 7.3597                 7.9901

                     13                     14                     15
                      A                      A                      A
 Frequencies --    584.7934               628.1845               696.6955
 Red. masses --      3.9935                 5.5465                 1.3846
 Frc consts  --      0.8047                 1.2896                 0.3960
 IR Inten    --      6.9035                14.4313                40.5910

                     16                     17                     18
                      A                      A                      A
 Frequencies --    778.7408               801.9048               894.4532
 Red. masses --     10.5711                 1.2119                 3.2428
 Frc consts  --      3.7771                 0.4592                 1.5286
 IR Inten    --     19.6728                 4.9089                16.5886

                     19                     20                     21
                      A                      A                      A
 Frequencies --    918.5930              1030.6600              1071.9233
 Red. masses --      2.6516                 1.2194                 3.4532
 Frc consts  --      1.3183                 0.7632                 2.3377
 IR Inten    --      1.9265                41.1919                39.2993

                     22                     23                     24
                      A                      A                      A
 Frequencies --   1129.1965              1203.1701              1282.8778
 Red. masses --      2.0790                 1.7723                 3.8945
 Frc consts  --      1.5619                 1.5116                 3.7763
 IR Inten    --     21.7394                 7.8731               511.6400

                     25                     26                     27
                      A                      A                      A
 Frequencies --   1344.3526              1402.1116              1430.5546
 Red. masses --      1.2381                 1.2810                 1.3666
 Frc consts  --      1.3184                 1.4838                 1.6478
 IR Inten    --     84.6682                20.7170                12.2516

                     28                     29                     30
                      A                      A                      A
 Frequencies --   1491.6294              1501.8574              1514.4142
 Red. masses --      1.0400                 1.0539                 1.0930
 Frc consts  --      1.3633                 1.4006                 1.4770
 IR Inten    --     10.6612                 0.9498                19.2420

                     31                     32                     33
                      A                      A                      A
 Frequencies --   1836.7542              1894.5781              3076.8796
 Red. masses --      9.7588                 8.2527                 1.0353
 Frc consts  --     19.3977                17.4530                 5.7749
 IR Inten    --    244.4288               103.7749                 8.9740

                     34                     35                     36
                      A                      A                      A
 Frequencies --   3109.6330              3154.2745              3155.4963
 Red. masses --      1.0608                 1.1011                 1.1052
 Frc consts  --      6.0438                 6.4545                 6.4836
 IR Inten    --     19.7075                16.3309                 0.0940

                     37                     38                     39
                      A                      A                      A
 Frequencies --   3177.0468              3446.1487              3852.5647
 Red. masses --      1.1075                 1.1263                 1.0677
 Frc consts  --      6.5861                 7.8807                 9.3365
 IR Inten    --     14.3363                81.6666                63.5531

 - Thermochemistry -
 -------------------
 Temperature   298.150 Kelvin.  Pressure   1.00000 Atm.
 Atom     1 has atomic number  8 and mass  15.99491

 Molecular mass:   115.03952 amu.
 Principal axes and moments of inertia in atomic units:
                           1         2         3
     Eigenvalues --   476.811231374.392991494.12991
           X            0.99993   0.01163   0.00009
           Y           -0.01159   0.99551   0.09399
           Z            0.00100  -0.09398   0.99557
 This molecule is an asymmetric top.
 Rotational symmetry number  1.
 Warning -- assumption of classical behavior for rotation
           may cause significant error
 Rotational temperatures (Kelvin)      0.18165     0.06302     0.05797
 Rotational constants (GHZ):           3.78502     1.31312     1.20789
    1 imaginary frequencies ignored.
 Zero-point vibrational energy     292859.8 (Joules/Mol)
                                   69.99518 (Kcal/Mol)
 Warning -- explicit consideration of  12 degrees of freedom as
           vibrations may cause significant error
 Vibrational temperatures:    118.07   137.21   164.75   243.02   273.16
          (Kelvin)            342.81   364.56   388.94   487.87   511.41
                              641.20   841.39   903.82  1002.39  1120.43
                             1153.76  1286.92  1321.65  1482.89  1542.26
                             1624.66  1731.09  1845.78  1934.22  2017.33
                             2058.25  2146.12  2160.84  2178.90  2642.68
                             2725.88  4426.94  4474.07  4538.30  4540.06
                             4571.06  4958.24  5542.98

 Zero-point correction=                           0.111544 (Hartree/Particle)
 Thermal correction to Energy=                    0.121072
 Thermal correction to Enthalpy=                  0.122016
 Thermal correction to Gibbs Free Energy=         0.076549
 Sum of electronic and zero-point Energies=           -420.102739
 Sum of electronic and thermal Energies=              -420.093212
 Sum of electronic and thermal Enthalpies=            -420.092267
 Sum of electronic and thermal Free Energies=         -420.137735

                     E (Thermal)             CV                S
                      KCal/Mol        Cal/Mol-Kelvin    Cal/Mol-Kelvin
 Total                   75.974             32.392             95.694
 Electronic               0.000              0.000              1.377
 Translational            0.889              2.981             40.136
 Rotational               0.889              2.981             28.373
 Vibrational             74.196             26.431             25.808
 Vibration     1          0.600              1.961              3.841
 Vibration     2          0.603              1.953              3.547
 Vibration     3          0.607              1.937              3.191
 Vibration     4          0.625              1.881              2.448
 Vibration     5          0.633              1.854              2.229
 Vibration     6          0.656              1.782              1.816
 Vibration     7          0.665              1.757              1.707
 Vibration     8          0.674              1.728              1.594
 Vibration     9          0.719              1.597              1.216
 Vibration    10          0.731              1.564              1.142
 Vibration    11          0.805              1.370              0.809
 Vibration    12          0.942              1.064              0.477

 1\1\GINC-AJ\Freq\UM062X\6-311++G(d,p)\C5H7O3(2)\AAYUSH\16-Aug-2025\0\\
 # freq 6-311++g(d,p) m062x\\Title Card Required\\0,2\O,-1.359701,1.604
 87,0.085719\H,-1.973926,1.776834,0.811678\C,-2.716328,-0.484729,-0.446
 614\H,-3.74327,-0.556452,-0.725615\C,-1.557678,-0.124055,-0.123887\C,-
 0.164675,-0.535378,0.225873\O,0.163244,-0.89695,1.319035\O,0.637685,-0
 .340653,-0.810627\C,2.053218,-0.425491,-0.539783\C,2.540314,0.843312,0
 .131639\H,2.502366,-0.563604,-1.521377\H,2.240737,-1.30641,0.074931\H,
 3.622159,0.792426,0.26926\H,2.304172,1.712054,-0.483851\H,2.072152,0.9

 Normal termination of Gaussian 16 at Sat Aug 16 16:23:26 2025.
