 Gaussian 16, Revision A.03,
 Gaussian 16:  ES64L-G16RevA.03 25-Dec-2016

 --------------------------
 # freq 6-311++g(d,p) m062x
 --------------------------

 -------------------
 Title Card Required
 -------------------
 Symbolic Z-matrix:
 Charge =  0 Multiplicity = 2

                         Standard orientation:
 ---------------------------------------------------------------------
 Center     Atomic      Atomic             Coordinates (Angstroms)
 Number     Number       Type             X           Y           Z
 ---------------------------------------------------------------------
      1          8           0       -1.405177    1.700765    0.095557
      2          1           0       -2.035120    1.806774    0.826051
      3          6           0       -2.785100   -0.491094   -0.440856
      4          1           0       -3.812030   -0.560831   -0.715320
      5          6           0       -1.622994   -0.337180   -0.143730
      6          6           0       -0.222209   -0.565420    0.231526
      7          8           0        0.111020   -0.907001    1.330639
      8          8           0        0.580770   -0.365733   -0.804837
      9          6           0        1.994955   -0.451155   -0.533714
     10          6           0        2.484620    0.820180    0.130425
     11          1           0        2.444014   -0.595571   -1.514555
     12          1           0        2.181624   -1.328767    0.086189
     13          1           0        3.566536    0.769847    0.267617
     14          1           0        2.249287    1.685743   -0.490048
     15          1           0        2.017142    0.946575    1.107292
 ---------------------------------------------------------------------

 SCF Done:  E(UM062X) =  -420.202847790     A.U. after   24 cycles

 The electronic state is 2-A.
 Alpha  occ. eigenvalues --  -19.68066 -19.66273 -19.62983 -10.70591 -10.60340
 Alpha  occ. eigenvalues --  -10.58909 -10.58246 -10.53370  -1.25611  -1.16313
 Alpha  occ. eigenvalues --   -1.12303  -0.90941  -0.87388  -0.78070  -0.70622
 Alpha  occ. eigenvalues --   -0.64427  -0.62010  -0.58520  -0.57200  -0.53971
 Alpha  occ. eigenvalues --   -0.53234  -0.50306  -0.48480  -0.46084  -0.45064
 Alpha  occ. eigenvalues --   -0.41724  -0.41400  -0.39623  -0.38295  -0.36598
 Alpha  occ. eigenvalues --   -0.34629
 Alpha virt. eigenvalues --   -0.00708  -0.00215   0.00504   0.01474   0.02533
 Alpha virt. eigenvalues --    0.02784   0.03514   0.04346   0.05660   0.06187
 Alpha virt. eigenvalues --    0.07125   0.07624   0.08444   0.09831   0.10685

  Beta  occ. eigenvalues --  -19.68070 -19.64821 -19.63003 -10.70567 -10.60340
  Beta  occ. eigenvalues --  -10.58949 -10.58039 -10.53371  -1.25615  -1.16352
  Beta  occ. eigenvalues --   -1.06102  -0.90407  -0.86972  -0.77856  -0.70395
  Beta  occ. eigenvalues --   -0.64332  -0.61564  -0.58461  -0.56747  -0.53204
  Beta  occ. eigenvalues --   -0.51592  -0.48993  -0.46576  -0.45123  -0.41712
  Beta  occ. eigenvalues --   -0.39492  -0.39199  -0.38409  -0.37987  -0.35928
  Beta virt. eigenvalues --   -0.09634  -0.00202   0.00370   0.00628   0.01768
  Beta virt. eigenvalues --    0.02645   0.02821   0.03530   0.04418   0.05729
  Beta virt. eigenvalues --    0.06168   0.07225   0.07566   0.08490   0.09913

 Mulliken charges and spin densities:
               1          2
     1  O   -0.233198   0.811049
     2  H    0.233943  -0.018842
     3  C   -0.828018   0.341179
     4  H    0.193416  -0.014676
     5  C    0.996269  -0.149425
     6  C   -0.441564   0.038464
     7  O   -0.200379  -0.009171
     8  O    0.057760   0.000607
     9  C   -0.276507  -0.000827
    10  C   -0.415602   0.003068
    11  H    0.194958   0.000137
    12  H    0.188337  -0.000017
    13  H    0.169451   0.000071
    14  H    0.172112  -0.000401
    15  H    0.189022  -0.001216
 Sum of Mulliken charges =  -0.00000   1.00000

 Dipole moment (field-independent basis, Debye):
    X=             -0.6686    Y=             -0.0776    Z=             -0.7015  Tot=              0.9722
 Quadrupole moment (field-independent basis, Debye-Ang):
   XX=            -30.0028   YY=            -48.9588   ZZ=            -51.1588
   XY=              0.1305   XZ=             -1.7060   YZ=              5.0947

  Exact polarizability:  91.326   7.222  72.177   4.647   2.804  59.583
 Approx polarizability:  98.446   7.561  76.100   7.552  -0.483  76.843

 ******    1 imaginary frequencies (negative Signs) ******

                      1                      2                      3
                      A                      A                      A
 Frequencies --   -393.8822                19.7944                51.1148
 Red. masses --     11.9101                 4.7819                 3.8506
 Frc consts  --      1.0887                 0.0011                 0.0059
 IR Inten    --     51.5064                 6.6382                 1.6896

                      4                      5                      6
                      A                      A                      A
 Frequencies --    116.1856               146.9392               162.4152
 Red. masses --      3.6055                 5.3182                 2.6053
 Frc consts  --      0.0287                 0.0677                 0.0405
 IR Inten    --      1.5598                15.1182                 7.7495

                      7                      8                      9
                      A                      A                      A
 Frequencies --    212.1490               227.8276               259.5804
 Red. masses --      1.5728                 1.4485                 1.9026
 Frc consts  --      0.0417                 0.0443                 0.0755
 IR Inten    --     33.9887                 3.8043                31.1029

                     10                     11                     12
                      A                      A                      A
 Frequencies --    335.9501               428.6410               560.2752
 Red. masses --      2.9145                 3.7411                 3.8136
 Frc consts  --      0.1938                 0.4050                 0.7053
 IR Inten    --      9.7775                 3.6239                 6.2951

                     13                     14                     15
                      A                      A                      A
 Frequencies --    607.3019               698.5343               706.5593
 Red. masses --      6.5044                 1.1261                 1.3173
 Frc consts  --      1.4134                 0.3237                 0.3875
 IR Inten    --     12.6878                81.1425                21.2955

                     16                     17                     18
                      A                      A                      A
 Frequencies --    735.8082               771.0978               803.0267
 Red. masses --      1.3250                 8.0060                 1.2053
 Frc consts  --      0.4226                 2.8047                 0.4579
 IR Inten    --     25.0324                63.0316                 5.0797

                     19                     20                     21
                      A                      A                      A
 Frequencies --    897.3062               928.2832              1074.7661
 Red. masses --      3.2439                 2.7451                 4.1259
 Frc consts  --      1.5388                 1.3937                 2.8080
 IR Inten    --     16.1286                 6.3534                24.3407

                     22                     23                     24
                      A                      A                      A
 Frequencies --   1129.5987              1204.3313              1289.4647
 Red. masses --      2.0899                 1.7715                 3.6925
 Frc consts  --      1.5712                 1.5139                 3.6174
 IR Inten    --     22.4353                 6.1490               534.5208

                     25                     26                     27
                      A                      A                      A
 Frequencies --   1345.8899              1402.0709              1431.1346
 Red. masses --      1.2520                 1.2845                 1.3807
 Frc consts  --      1.3362                 1.4878                 1.6661
 IR Inten    --     97.8650                26.4447                13.4829

                     28                     29                     30
                      A                      A                      A
 Frequencies --   1491.2559              1502.3914              1515.0567
 Red. masses --      1.0400                 1.0545                 1.0935
 Frc consts  --      1.3627                 1.4024                 1.4788
 IR Inten    --     10.9299                 1.1937                21.3905

                     31                     32                     33
                      A                      A                      A
 Frequencies --   1845.7283              2173.9556              3075.9781
 Red. masses --     11.9891                 6.1250                 1.0353
 Frc consts  --     24.0642                17.0553                 5.7712
 IR Inten    --    344.6832                87.1426                 9.2329

                     34                     35                     36
                      A                      A                      A
 Frequencies --   3107.9802              3152.9390              3154.3940
 Red. masses --      1.0607                 1.1018                 1.1046
 Frc consts  --      6.0370                 6.4532                 6.4756
 IR Inten    --     19.7829                13.8489                 3.1603

                     37                     38                     39
                      A                      A                      A
 Frequencies --   3175.4942              3480.6946              3811.1985
 Red. masses --      1.1074                 1.1568                 1.0674
 Frc consts  --      6.5793                 8.2570                 9.1350
 IR Inten    --     14.7076                69.2639                45.2588

 - Thermochemistry -
 -------------------
 Temperature   298.150 Kelvin.  Pressure   1.00000 Atm.
 Atom     1 has atomic number  8 and mass  15.99491

 Molecular mass:   115.03952 amu.
 Principal axes and moments of inertia in atomic units:
                           1         2         3
     Eigenvalues --   503.282001378.838381521.39518
           X            0.99994   0.01100  -0.00070
           Y           -0.01091   0.99697   0.07706
           Z            0.00154  -0.07704   0.99703
 This molecule is an asymmetric top.
 Rotational symmetry number  1.
 Warning -- assumption of classical behavior for rotation
           may cause significant error
 Rotational temperatures (Kelvin)      0.17210     0.06282     0.05693
 Rotational constants (GHZ):           3.58594     1.30889     1.18624
    1 imaginary frequencies ignored.
 Zero-point vibrational energy     293283.1 (Joules/Mol)
                                   70.09635 (Kcal/Mol)
 Warning -- explicit consideration of  12 degrees of freedom as
           vibrations may cause significant error
 Vibrational temperatures:     28.48    73.54   167.17   211.41   233.68
          (Kelvin)            305.24   327.79   373.48   483.36   616.72
                              806.11   873.77  1005.04  1016.58  1058.66
                             1109.44  1155.38  1291.02  1335.59  1546.35
                             1625.24  1732.76  1855.25  1936.44  2017.27
                             2059.08  2145.58  2161.61  2179.83  2655.59
                             3127.84  4425.65  4471.69  4536.38  4538.47
                             4568.83  5007.94  5483.46

 Zero-point correction=                           0.111706 (Hartree/Particle)
 Thermal correction to Energy=                    0.121485
 Thermal correction to Enthalpy=                  0.122429
 Thermal correction to Gibbs Free Energy=         0.074779
 Sum of electronic and zero-point Energies=           -420.091142
 Sum of electronic and thermal Energies=              -420.081363
 Sum of electronic and thermal Enthalpies=            -420.080419
 Sum of electronic and thermal Free Energies=         -420.128069

                     E (Thermal)             CV                S
                      KCal/Mol        Cal/Mol-Kelvin    Cal/Mol-Kelvin
 Total                   76.233             32.381            100.289
 Electronic               0.000              0.000              1.377
 Translational            0.889              2.981             40.136
 Rotational               0.889              2.981             28.447
 Vibrational             74.455             26.420             30.328
 Vibration     1          0.593              1.986              6.655
 Vibration     2          0.595              1.977              4.774
 Vibration     3          0.608              1.936              3.163
 Vibration     4          0.617              1.906              2.711
 Vibration     5          0.623              1.889              2.521
 Vibration     6          0.643              1.822              2.025
 Vibration     7          0.651              1.799              1.896
 Vibration     8          0.668              1.747              1.665
 Vibration     9          0.717              1.604              1.231
 Vibration    10          0.790              1.408              0.863
 Vibration    11          0.916              1.117              0.523
 Vibration    12          0.966              1.016              0.437

 1\1\GINC-AJ\Freq\UM062X\6-311++G(d,p)\C5H7O3(2)\AAYUSH\23-Jun-2025\0\\
 # freq 6-311++g(d,p) m062x\\Title Card Required\\0,2\O,-1.405177,1.700
 765,0.095557\H,-2.03512,1.806774,0.826051\C,-2.7851,-0.491094,-0.44085
 6\H,-3.81203,-0.560831,-0.71532\C,-1.622994,-0.33718,-0.14373\C,-0.222
 209,-0.56542,0.231526\O,0.11102,-0.907001,1.330639\O,0.58077,-0.365733
 ,-0.804837\C,1.994955,-0.451155,-0.533714\C,2.48462,0.82018,0.130425\H
 ,2.444014,-0.595571,-1.514555\H,2.181624,-1.328767,0.086189\H,3.566536
 ,0.769847,0.267617\H,2.249287,1.685743,-0.490048\H,2.017142,0.946575,1

 Normal termination of Gaussian 16 at Mon Jun 23 03:57:19 2025.
