 Gaussian 16, Revision A.03,
 Gaussian 16:  ES64L-G16RevA.03 25-Dec-2016

 --------------------------
 # ccsd(t)/6-311++g(d,p) sp
 --------------------------

 -------------------
 Title Card Required
 -------------------
 Symbolic Z-matrix:
 Charge =  0 Multiplicity = 2

                         Standard orientation:
 ---------------------------------------------------------------------
 Center     Atomic      Atomic             Coordinates (Angstroms)
 Number     Number       Type             X           Y           Z
 ---------------------------------------------------------------------
      1          8           0       -1.388043    1.823173    0.071642
      2          1           0       -2.016679    1.855349    0.812043
      3          6           0       -2.799951   -0.498405   -0.430213
      4          1           0       -3.832297   -0.499763   -0.692523
      5          6           0       -1.631516   -0.488841   -0.152523
      6          6           0       -0.226717   -0.593506    0.239872
      7          8           0        0.119294   -0.866286    1.355606
      8          8           0        0.576449   -0.388315   -0.796951
      9          6           0        1.990973   -0.464197   -0.525925
     10          6           0        2.487606    0.819435    0.107850
     11          1           0        2.438151   -0.632290   -1.503987
     12          1           0        2.178071   -1.327345    0.114126
     13          1           0        3.569991    0.767367    0.241175
     14          1           0        2.254045    1.672093   -0.530981
     15          1           0        2.024741    0.969093    1.083406
 ---------------------------------------------------------------------

 SCF Done:  E(UHF) =  -417.992363576     A.U. after   34 cycles
 E2 =    -0.1261365404D+01 EUMP2 =    -0.41925372898066D+03
 CCSD(T)= -0.41935772690D+03

 The electronic state is 2-A.
 Alpha  occ. eigenvalues --  -20.63200 -20.61047 -20.55685 -11.41496 -11.29450
 Alpha  occ. eigenvalues --  -11.26711 -11.25855 -11.22174  -1.48053  -1.38727
 Alpha  occ. eigenvalues --   -1.37773  -1.07716  -1.03981  -0.92420  -0.83641
 Alpha  occ. eigenvalues --   -0.76275  -0.73007  -0.69329  -0.68463  -0.66932
 Alpha  occ. eigenvalues --   -0.64872  -0.62968  -0.58027  -0.56170  -0.53875
 Alpha  occ. eigenvalues --   -0.53620  -0.50238  -0.47848  -0.46078  -0.42734
 Alpha  occ. eigenvalues --   -0.42266
 Alpha virt. eigenvalues --    0.03700   0.04608   0.05649   0.06811   0.06999
 Alpha virt. eigenvalues --    0.08803   0.09487   0.09829   0.10814   0.11846
 Alpha virt. eigenvalues --    0.13434   0.13910   0.14746   0.15928   0.16843

  Beta  occ. eigenvalues --  -20.61053 -20.59097 -20.55934 -11.41312 -11.29451
  Beta  occ. eigenvalues --  -11.26730 -11.25658 -11.22175  -1.48159  -1.38174
  Beta  occ. eigenvalues --   -1.23276  -1.07745  -1.03596  -0.91988  -0.83479
  Beta  occ. eigenvalues --   -0.76206  -0.72533  -0.69522  -0.66695  -0.63290
  Beta  occ. eigenvalues --   -0.62992  -0.58241  -0.55203  -0.53851  -0.50409
  Beta  occ. eigenvalues --   -0.50272  -0.48304  -0.46753  -0.42901  -0.42324
  Beta virt. eigenvalues --    0.03744   0.04540   0.05019   0.06709   0.06994
  Beta virt. eigenvalues --    0.08655   0.08984   0.09772   0.10244   0.11125
  Beta virt. eigenvalues --    0.12315   0.13584   0.14221   0.15007   0.16126

 Mulliken charges and spin densities:
               1          2
     1  O   -0.175870   0.998077
     2  H    0.232703  -0.039845
     3  C   -0.579899   0.487310
     4  H    0.223108  -0.033953
     5  C    1.140816  -0.429867
     6  C   -0.831237   0.065303
     7  O   -0.272453  -0.050841
     8  O   -0.024731   0.001080
     9  C   -0.137346   0.001362
    10  C   -0.382802   0.001387
    11  H    0.167467  -0.000013
    12  H    0.174374  -0.000298
    13  H    0.136941   0.000186
    14  H    0.148508  -0.000572
    15  H    0.180421   0.000684
 Sum of Mulliken charges =  -0.00000   1.00000

 Dipole moment (field-independent basis, Debye):
    X=             -0.7571    Y=              0.6582    Z=             -0.6232  Tot=              1.1810
 Quadrupole moment (field-independent basis, Debye-Ang):
   XX=            -30.4164   YY=            -48.0760   ZZ=            -51.9306
   XY=             -1.7181   XZ=             -2.2268   YZ=              5.4279

 0=-419.285142\MP4SDQ=-419.3053548\CCSD=-419.3052905\CCSD(T)=-419.35772
 Normal termination of Gaussian 16 at Sun Aug 24 10:22:16 2025.
