 Gaussian 16, Revision A.03,
 Gaussian 16:  ES64L-G16RevA.03 25-Dec-2016

 --------------------------
 # freq 6-311++g(d,p) m062x
 --------------------------

 -------------------
 Title Card Required
 -------------------
 Symbolic Z-matrix:
 Charge =  0 Multiplicity = 2

                         Standard orientation:
 ---------------------------------------------------------------------
 Center     Atomic      Atomic             Coordinates (Angstroms)
 Number     Number       Type             X           Y           Z
 ---------------------------------------------------------------------
      1          8           0       -1.424963    1.536338    0.129163
      2          1           0       -2.035355    1.712807    0.855621
      3          6           0       -2.764063   -0.509674   -0.460906
      4          1           0       -3.794351   -0.545952   -0.740599
      5          6           0       -1.612323   -0.084627   -0.116495
      6          6           0       -0.223335   -0.563721    0.212337
      7          8           0        0.105246   -0.960818    1.293442
      8          8           0        0.582496   -0.338839   -0.816750
      9          6           0        1.997918   -0.428099   -0.546669
     10          6           0        2.480776    0.821469    0.163337
     11          1           0        2.449142   -0.535273   -1.531185
     12          1           0        2.187332   -1.326426    0.041611
     13          1           0        3.562545    0.769242    0.301050
     14          1           0        2.243458    1.707794   -0.426143
     15          1           0        2.011154    0.912273    1.143190
 ---------------------------------------------------------------------

 SCF Done:  E(UM062X) =  -420.225835507     A.U. after   18 cycles

 The electronic state is 2-A.
 Alpha  occ. eigenvalues --  -19.68116 -19.64699 -19.63160 -10.70136 -10.63509
 Alpha  occ. eigenvalues --  -10.60357 -10.59379 -10.53388  -1.25644  -1.16354
 Alpha  occ. eigenvalues --   -1.12382  -0.90940  -0.87481  -0.78023  -0.70848
 Alpha  occ. eigenvalues --   -0.64566  -0.61712  -0.59211  -0.58113  -0.54354
 Alpha  occ. eigenvalues --   -0.52974  -0.49916  -0.48166  -0.46231  -0.45137
 Alpha  occ. eigenvalues --   -0.41730  -0.40763  -0.39424  -0.38333  -0.35919
 Alpha  occ. eigenvalues --   -0.31234
 Alpha virt. eigenvalues --   -0.00247   0.00394   0.01240   0.01318   0.02265
 Alpha virt. eigenvalues --    0.02718   0.03358   0.04418   0.05802   0.06164
 Alpha virt. eigenvalues --    0.07209   0.07767   0.08459   0.10067   0.10540

  Beta  occ. eigenvalues --  -19.68111 -19.64241 -19.63161 -10.70078 -10.63664
  Beta  occ. eigenvalues --  -10.60356 -10.58703 -10.53389  -1.25600  -1.16341
  Beta  occ. eigenvalues --   -1.10769  -0.89806  -0.86297  -0.77310  -0.69903
  Beta  occ. eigenvalues --   -0.64352  -0.60729  -0.58784  -0.57868  -0.53725
  Beta  occ. eigenvalues --   -0.52840  -0.48727  -0.47306  -0.45370  -0.44266
  Beta  occ. eigenvalues --   -0.41647  -0.39733  -0.38875  -0.38239  -0.34468
  Beta virt. eigenvalues --   -0.08296  -0.00246   0.00452   0.01489   0.02205
  Beta virt. eigenvalues --    0.02371   0.02767   0.03544   0.04475   0.05781
  Beta virt. eigenvalues --    0.05988   0.07306   0.07703   0.08491   0.09839

 Mulliken charges and spin densities:
               1          2
     1  O   -0.279631   0.215363
     2  H    0.260633   0.000895
     3  C   -0.019826   1.044821
     4  H    0.220693  -0.027428
     5  C    0.085614  -0.299393
     6  C   -0.318230   0.058579
     7  O   -0.210001   0.000663
     8  O    0.047235   0.004211
     9  C   -0.280122   0.001895
    10  C   -0.421036   0.001283
    11  H    0.195177   0.000223
    12  H    0.189758  -0.000316
    13  H    0.166202  -0.000081
    14  H    0.173696  -0.000196
    15  H    0.189838  -0.000519
 Sum of Mulliken charges =  -0.00000   1.00000

 Dipole moment (field-independent basis, Debye):
    X=             -0.6448    Y=             -0.2490    Z=             -0.7568  Tot=              1.0250
 Quadrupole moment (field-independent basis, Debye-Ang):
   XX=            -30.7257   YY=            -49.9466   ZZ=            -50.9354
   XY=              0.2982   XZ=             -1.6703   YZ=              4.9442

  Exact polarizability:  87.717   5.892  65.571   3.472   1.837  59.226
 Approx polarizability:  89.470   7.768  77.751   5.153  -0.032  76.612

 ******    2 imaginary frequencies (negative Signs) ******

                      1                      2                      3
                      A                      A                      A
 Frequencies --   -364.8027               -41.3380                93.1551
 Red. masses --      2.6869                 1.3164                 3.8145
 Frc consts  --      0.2107                 0.0013                 0.0195
 IR Inten    --    127.4203                42.1661                 7.1459

                      4                      5                      6
                      A                      A                      A
 Frequencies --    112.7359               137.5698               190.5397
 Red. masses --      2.8277                 3.4297                 1.7038
 Frc consts  --      0.0212                 0.0382                 0.0364
 IR Inten    --      3.6882                22.2794                 5.2686

                      7                      8                      9
                      A                      A                      A
 Frequencies --    237.0625               249.7740               288.5671
 Red. masses --      1.6899                 2.0024                 3.9987
 Frc consts  --      0.0560                 0.0736                 0.1962
 IR Inten    --     15.5868                 3.7555                 1.0038

                     10                     11                     12
                      A                      A                      A
 Frequencies --    341.9887               368.9728               452.3834
 Red. masses --      3.1355                 9.5783                 3.4997
 Frc consts  --      0.2161                 0.7683                 0.4220
 IR Inten    --     12.2226                 0.9706                 8.3010

                     13                     14                     15
                      A                      A                      A
 Frequencies --    602.2997               646.5788               691.2521
 Red. masses --      3.9681                 4.3552                 1.4828
 Frc consts  --      0.8481                 1.0728                 0.4175
 IR Inten    --     12.7772                17.9109                39.0258

                     16                     17                     18
                      A                      A                      A
 Frequencies --    791.4836               802.2017               894.0680
 Red. masses --      9.5214                 1.2298                 3.2176
 Frc consts  --      3.5143                 0.4663                 1.5154
 IR Inten    --     11.8543                 4.7322                15.6195

                     19                     20                     21
                      A                      A                      A
 Frequencies --    918.9067              1062.7827              1114.5742
 Red. masses --      2.7153                 3.1544                 1.2933
 Frc consts  --      1.3508                 2.0992                 0.9466
 IR Inten    --      1.5658                17.8605                56.5824

                     22                     23                     24
                      A                      A                      A
 Frequencies --   1129.6491              1202.8499              1281.9178
 Red. masses --      2.0284                 1.7736                 3.9461
 Frc consts  --      1.5251                 1.5120                 3.8207
 IR Inten    --     25.5930                 7.4325               504.3906

                     25                     26                     27
                      A                      A                      A
 Frequencies --   1343.6327              1401.7599              1430.0824
 Red. masses --      1.2328                 1.2801                 1.3643
 Frc consts  --      1.3113                 1.4820                 1.6440
 IR Inten    --     81.3770                19.7704                11.5258

                     28                     29                     30
                      A                      A                      A
 Frequencies --   1491.8855              1501.8090              1514.0045
 Red. masses --      1.0400                 1.0545                 1.0921
 Frc consts  --      1.3639                 1.4013                 1.4749
 IR Inten    --     10.4650                 0.9023                18.3675

                     31                     32                     33
                      A                      A                      A
 Frequencies --   1791.0715              1862.4036              3076.7393
 Red. masses --      7.5297                11.3615                 1.0353
 Frc consts  --     14.2317                23.2185                 5.7742
 IR Inten    --     55.6940               283.2550                 9.1232

                     34                     35                     36
                      A                      A                      A
 Frequencies --   3109.9269              3154.0884              3155.2715
 Red. masses --      1.0608                 1.1010                 1.1051
 Frc consts  --      6.0446                 6.4536                 6.4825
 IR Inten    --     19.7993                16.5737                 0.1055

                     37                     38                     39
                      A                      A                      A
 Frequencies --   3176.9476              3422.9467              3863.7504
 Red. masses --      1.1075                 1.1212                 1.0675
 Frc consts  --      6.5861                 7.7395                 9.3893
 IR Inten    --     14.5548                71.9639                69.4346

 - Thermochemistry -
 -------------------
 Temperature   298.150 Kelvin.  Pressure   1.00000 Atm.
 Atom     1 has atomic number  8 and mass  15.99491

 Molecular mass:   115.03952 amu.
 Principal axes and moments of inertia in atomic units:
                           1         2         3
     Eigenvalues --   469.125001372.164151485.70079
           X            0.99993   0.01148   0.00033
           Y           -0.01146   0.99499   0.09930
           Z            0.00082  -0.09930   0.99506
 This molecule is an asymmetric top.
 Rotational symmetry number  1.
 Warning -- assumption of classical behavior for rotation
           may cause significant error
 Rotational temperatures (Kelvin)      0.18463     0.06312     0.05830
 Rotational constants (GHZ):           3.84704     1.31525     1.21474
    2 imaginary frequencies ignored.
 Zero-point vibrational energy     292532.6 (Joules/Mol)
                                   69.91697 (Kcal/Mol)
 Warning -- explicit consideration of  11 degrees of freedom as
           vibrations may cause significant error
 Vibrational temperatures:    134.03   162.20   197.93   274.14   341.08
          (Kelvin)            359.37   415.18   492.05   530.87   650.88
                              866.57   930.28   994.56  1138.77  1154.19
                             1286.36  1322.10  1529.11  1603.62  1625.31
                             1730.63  1844.39  1933.19  2016.82  2057.57
                             2146.49  2160.77  2178.31  2576.95  2679.58
                             4426.74  4474.49  4538.03  4539.73  4570.92
                             4924.86  5559.08

 Zero-point correction=                           0.111420 (Hartree/Particle)
 Thermal correction to Energy=                    0.120170
 Thermal correction to Enthalpy=                  0.121114
 Thermal correction to Gibbs Free Energy=         0.077384
 Sum of electronic and zero-point Energies=           -420.114416
 Sum of electronic and thermal Energies=              -420.105666
 Sum of electronic and thermal Enthalpies=            -420.104722
 Sum of electronic and thermal Free Energies=         -420.148451

                     E (Thermal)             CV                S
                      KCal/Mol        Cal/Mol-Kelvin    Cal/Mol-Kelvin
 Total                   75.408             30.247             92.036
 Electronic               0.000              0.000              1.377
 Translational            0.889              2.981             40.136
 Rotational               0.889              2.981             28.349
 Vibrational             73.630             24.285             22.174
 Vibration     1          0.602              1.954              3.593
 Vibration     2          0.607              1.939              3.221
 Vibration     3          0.614              1.916              2.837
 Vibration     4          0.634              1.853              2.223
 Vibration     5          0.656              1.784              1.825
 Vibration     6          0.663              1.763              1.732
 Vibration     7          0.685              1.695              1.482
 Vibration     8          0.721              1.592              1.203
 Vibration     9          0.741              1.536              1.084
 Vibration    10          0.811              1.356              0.789
 Vibration    11          0.961              1.027              0.446

 1\1\GINC-AJ\Freq\UM062X\6-311++G(d,p)\C5H7O3(2)\AAYUSH\23-Jun-2025\0\\
 # freq 6-311++g(d,p) m062x\\Title Card Required\\0,2\O,-1.424963,1.536
 338,0.129163\H,-2.035355,1.712807,0.855621\C,-2.764063,-0.509674,-0.46
 0906\H,-3.794351,-0.545952,-0.740599\C,-1.612323,-0.084627,-0.116495\C
 ,-0.223335,-0.563721,0.212337\O,0.105246,-0.960818,1.293442\O,0.582496
 ,-0.338839,-0.81675\C,1.997918,-0.428099,-0.546669\C,2.480776,0.821469
 ,0.163337\H,2.449142,-0.535273,-1.531185\H,2.187332,-1.326426,0.041611
 \H,3.562545,0.769242,0.30105\H,2.243458,1.707794,-0.426143\H,2.011154,

 Normal termination of Gaussian 16 at Mon Jun 23 03:32:27 2025.
