 Gaussian 16, Revision A.03,
 Gaussian 16:  ES64L-G16RevA.03 25-Dec-2016

 -------------------
 # freq 6-31+g m062x
 -------------------

 -------------------
 Title Card Required
 -------------------
 Symbolic Z-matrix:
 Charge =  0 Multiplicity = 2

                         Standard orientation:
 ---------------------------------------------------------------------
 Center     Atomic      Atomic             Coordinates (Angstroms)
 Number     Number       Type             X           Y           Z
 ---------------------------------------------------------------------
      1          8           0       -1.405177    1.700765    0.095557
      2          1           0       -2.035120    1.806774    0.826051
      3          6           0       -2.785100   -0.491094   -0.440856
      4          1           0       -3.812030   -0.560831   -0.715320
      5          6           0       -1.622994   -0.337180   -0.143730
      6          6           0       -0.222209   -0.565420    0.231526
      7          8           0        0.111020   -0.907001    1.330639
      8          8           0        0.580770   -0.365733   -0.804837
      9          6           0        1.994955   -0.451155   -0.533714
     10          6           0        2.484620    0.820180    0.130425
     11          1           0        2.444014   -0.595571   -1.514555
     12          1           0        2.181624   -1.328767    0.086189
     13          1           0        3.566536    0.769847    0.267617
     14          1           0        2.249287    1.685743   -0.490048
     15          1           0        2.017142    0.946575    1.107292
 ---------------------------------------------------------------------

 SCF Done:  E(UM062X) =  -419.954610951     A.U. after   22 cycles

 The electronic state is 2-A.
 Alpha  occ. eigenvalues --  -19.70381 -19.68948 -19.66133 -10.72955 -10.61301
 Alpha  occ. eigenvalues --  -10.60603 -10.59839 -10.54147  -1.27942  -1.18595
 Alpha  occ. eigenvalues --   -1.13581  -0.91679  -0.88058  -0.78519  -0.71195
 Alpha  occ. eigenvalues --   -0.64538  -0.62403  -0.58687  -0.57236  -0.53810
 Alpha  occ. eigenvalues --   -0.53668  -0.50397  -0.48514  -0.46317  -0.45034
 Alpha  occ. eigenvalues --   -0.41735  -0.41403  -0.39624  -0.38026  -0.36859
 Alpha  occ. eigenvalues --   -0.34767
 Alpha virt. eigenvalues --   -0.00842   0.01913   0.02479   0.03572   0.03714
 Alpha virt. eigenvalues --    0.04389   0.05514   0.05849   0.07692   0.08034
 Alpha virt. eigenvalues --    0.08836   0.08933   0.10012   0.11818   0.12260

  Beta  occ. eigenvalues --  -19.70384 -19.67430 -19.66154 -10.72927 -10.61301
  Beta  occ. eigenvalues --  -10.60651 -10.59624 -10.54148  -1.27948  -1.18627
  Beta  occ. eigenvalues --   -1.07496  -0.91195  -0.87727  -0.78352  -0.71002
  Beta  occ. eigenvalues --   -0.64453  -0.61930  -0.58530  -0.56928  -0.53662
  Beta  occ. eigenvalues --   -0.51256  -0.49179  -0.46654  -0.45116  -0.41688
  Beta  occ. eigenvalues --   -0.39475  -0.39390  -0.38219  -0.37991  -0.36164
  Beta virt. eigenvalues --   -0.09688   0.00159   0.01962   0.02499   0.03564
  Beta virt. eigenvalues --    0.03779   0.04593   0.05570   0.05892   0.07728
  Beta virt. eigenvalues --    0.08003   0.08915   0.08964   0.10126   0.11844

 Mulliken charges and spin densities:
               1          2
     1  O   -0.439888   0.824426
     2  H    0.406715  -0.029871
     3  C    0.164596   0.299164
     4  H    0.322304  -0.012313
     5  C   -0.340320  -0.129795
     6  C    0.082919   0.059097
     7  O   -0.341859  -0.009677
     8  O   -0.163850  -0.000526
     9  C   -0.259766  -0.000961
    10  C   -0.553786   0.000698
    11  H    0.220394  -0.000011
    12  H    0.233677  -0.000113
    13  H    0.204669  -0.000041
    14  H    0.228466  -0.000046
    15  H    0.235727  -0.000029
 Sum of Mulliken charges =  -0.00000   1.00000

 Dipole moment (field-independent basis, Debye):
    X=             -0.8030    Y=             -0.0856    Z=             -0.4562  Tot=              0.9275
 Quadrupole moment (field-independent basis, Debye-Ang):
   XX=            -29.4964   YY=            -49.2581   ZZ=            -52.3198
   XY=             -0.1521   XZ=             -2.1085   YZ=              5.6768

  Exact polarizability:  87.042   6.944  67.480   4.110   1.924  57.124
 Approx polarizability:  92.294   7.996  66.368   7.709  -1.897  71.519

 ******    5 imaginary frequencies (negative Signs) ******

                      1                      2                      3
                      A                      A                      A
 Frequencies --   -454.5144              -366.0695              -105.8837
 Red. masses --      1.1008                 8.9896                 6.3129
 Frc consts  --      0.1340                 0.7098                 0.0417
 IR Inten    --    113.9094                26.3773                12.4875

                      4                      5                      6
                      A                      A                      A
 Frequencies --    -56.1378               -14.5138                87.5415
 Red. masses --      4.3817                 2.5565                 3.3151
 Frc consts  --      0.0081                 0.0003                 0.0150
 IR Inten    --      4.2811                 0.3441                 6.7305

                      7                      8                      9
                      A                      A                      A
 Frequencies --    140.8608               174.9963               202.6434
 Red. masses --      5.3876                 1.2957                 5.1028
 Frc consts  --      0.0630                 0.0234                 0.1235
 IR Inten    --      0.2119                 1.2521                 0.6624

                     10                     11                     12
                      A                      A                      A
 Frequencies --    305.9605               414.1375               487.3892
 Red. masses --      2.8464                 3.1995                 1.2649
 Frc consts  --      0.1570                 0.3233                 0.1770
 IR Inten    --     13.2721                17.1000                92.0456

                     13                     14                     15
                      A                      A                      A
 Frequencies --    580.9994               618.9230               698.3340
 Red. masses --      3.4819                 5.1082                 1.7161
 Frc consts  --      0.6925                 1.1529                 0.4931
 IR Inten    --     12.3141                11.7982                10.0030

                     16                     17                     18
                      A                      A                      A
 Frequencies --    729.4585               765.5260               817.8500
 Red. masses --      3.4558                 1.3544                 1.2774
 Frc consts  --      1.0834                 0.4676                 0.5034
 IR Inten    --     91.5151                51.1057                 7.0738

                     19                     20                     21
                      A                      A                      A
 Frequencies --    898.3103               945.1508              1109.5563
 Red. masses --      3.3656                 2.5128                 4.1855
 Frc consts  --      1.6002                 1.3225                 3.0360
 IR Inten    --     21.3337                 5.9745                10.8187

                     22                     23                     24
                      A                      A                      A
 Frequencies --   1158.9853              1228.7756              1326.7298
 Red. masses --      2.0811                 1.7525                 1.9020
 Frc consts  --      1.6470                 1.5590                 1.9726
 IR Inten    --     18.2284                 5.3722               295.9695

                     25                     26                     27
                      A                      A                      A
 Frequencies --   1370.3459              1442.2371              1457.9013
 Red. masses --      1.8081                 1.3899                 1.2582
 Frc consts  --      2.0005                 1.7034                 1.5757
 IR Inten    --    284.2479                36.7985                19.2572

                     28                     29                     30
                      A                      A                      A
 Frequencies --   1526.2978              1536.8669              1544.8362
 Red. masses --      1.0413                 1.0561                 1.0888
 Frc consts  --      1.4293                 1.4697                 1.5310
 IR Inten    --     15.0685                 2.4851                27.8700

                     31                     32                     33
                      A                      A                      A
 Frequencies --   1911.7676              2240.2047              3108.0906
 Red. masses --     12.2398                 5.9104                 1.0350
 Frc consts  --     26.3570                17.4761                 5.8910
 IR Inten    --    320.6670                84.7580                12.1086

                     34                     35                     36
                      A                      A                      A
 Frequencies --   3138.3578              3189.1633              3190.5152
 Red. masses --      1.0601                 1.1029                 1.1001
 Frc consts  --      6.1520                 6.6088                 6.5977
 IR Inten    --     21.4400                 3.0316                17.2664

                     37                     38                     39
                      A                      A                      A
 Frequencies --   3211.6869              3523.2403              3823.6708
 Red. masses --      1.1054                 1.1642                 1.0673
 Frc consts  --      6.7177                 8.5149                 9.1936
 IR Inten    --     17.2351                61.4034                16.2417

 - Thermochemistry -
 -------------------
 Temperature   298.150 Kelvin.  Pressure   1.00000 Atm.
 Atom     1 has atomic number  8 and mass  15.99491

 Molecular mass:   115.03952 amu.
 Principal axes and moments of inertia in atomic units:
                           1         2         3
     Eigenvalues --   503.281951378.838601521.39531
           X            0.99994   0.01100  -0.00070
           Y           -0.01091   0.99697   0.07706
           Z            0.00154  -0.07704   0.99703
 This molecule is an asymmetric top.
 Rotational symmetry number  1.
 Warning -- assumption of classical behavior for rotation
           may cause significant error
 Rotational temperatures (Kelvin)      0.17210     0.06282     0.05693
 Rotational constants (GHZ):           3.58594     1.30889     1.18624
    5 imaginary frequencies ignored.
 Zero-point vibrational energy     292530.7 (Joules/Mol)
                                   69.91651 (Kcal/Mol)
 Warning -- explicit consideration of   9 degrees of freedom as
           vibrations may cause significant error
 Vibrational temperatures:    125.95   202.67   251.78   291.56   440.21
          (Kelvin)            595.85   701.24   835.93   890.49  1004.75
                             1049.53  1101.42  1176.70  1292.47  1359.86
                             1596.40  1667.52  1767.93  1908.87  1971.62
                             2075.06  2097.59  2196.00  2211.21  2222.67
                             2750.61  3223.15  4471.85  4515.40  4588.49
                             4590.44  4620.90  5069.16  5501.41

 Zero-point correction=                           0.111419 (Hartree/Particle)
 Thermal correction to Energy=                    0.118670
 Thermal correction to Enthalpy=                  0.119614
 Thermal correction to Gibbs Free Energy=         0.078579
 Sum of electronic and zero-point Energies=           -419.843192
 Sum of electronic and thermal Energies=              -419.835941
 Sum of electronic and thermal Enthalpies=            -419.834997
 Sum of electronic and thermal Free Energies=         -419.876032

                     E (Thermal)             CV                S
                      KCal/Mol        Cal/Mol-Kelvin    Cal/Mol-Kelvin
 Total                   74.466             25.209             86.367
 Electronic               0.000              0.000              1.377
 Translational            0.889              2.981             40.136
 Rotational               0.889              2.981             28.447
 Vibrational             72.689             19.248             16.406
 Vibration     1          0.601              1.958              3.714
 Vibration     2          0.615              1.912              2.792
 Vibration     3          0.627              1.873              2.381
 Vibration     4          0.639              1.836              2.109
 Vibration     5          0.696              1.662              1.384
 Vibration     6          0.778              1.440              0.912
 Vibration     7          0.843              1.278              0.690
 Vibration     8          0.938              1.072              0.484
 Vibration     9          0.979              0.992              0.418

 Normal termination of Gaussian 16 at Fri Jun 20 13:29:42 2025.
