 Gaussian 16, Revision A.03,
 Gaussian 16:  ES64L-G16RevA.03 25-Dec-2016

 --------------------------
 # freq 6-311++g(d,p) m062x
 --------------------------

 -------------------
 Title Card Required
 -------------------
 Symbolic Z-matrix:
 Charge =  0 Multiplicity = 2

                         Standard orientation:
 ---------------------------------------------------------------------
 Center     Atomic      Atomic             Coordinates (Angstroms)
 Number     Number       Type             X           Y           Z
 ---------------------------------------------------------------------
      1          8           0       -1.412704    1.631877    0.109129
      2          1           0       -2.034551    1.766492    0.839218
      3          6           0       -2.778495   -0.494791   -0.448357
      4          1           0       -3.803505   -0.577991   -0.728180
      5          6           0       -1.618415   -0.231787   -0.134093
      6          6           0       -0.220472   -0.562235    0.224811
      7          8           0        0.107860   -0.928686    1.316246
      8          8           0        0.581114   -0.355405   -0.809620
      9          6           0        1.996228   -0.442564   -0.538935
     10          6           0        2.483171    0.820399    0.143153
     11          1           0        2.445567   -0.572563   -1.521575
     12          1           0        2.183551   -1.328629    0.068489
     13          1           0        3.565016    0.768835    0.280527
     14          1           0        2.246972    1.694176   -0.465179
     15          1           0        2.014688    0.933260    1.121198
 ---------------------------------------------------------------------

 SCF Done:  E(UM062X) =  -420.204295493     A.U. after   22 cycles

 The electronic state is 2-A.
 Alpha  occ. eigenvalues --  -19.68219 -19.64646 -19.63204 -10.70688 -10.61360
 Alpha  occ. eigenvalues --  -10.60418 -10.59423 -10.53369  -1.25805  -1.16517
 Alpha  occ. eigenvalues --   -1.10909  -0.91486  -0.87694  -0.78257  -0.70908
 Alpha  occ. eigenvalues --   -0.64674  -0.62494  -0.58739  -0.57472  -0.53294
 Alpha  occ. eigenvalues --   -0.53155  -0.49828  -0.48257  -0.45993  -0.45110
 Alpha  occ. eigenvalues --   -0.41771  -0.40393  -0.39729  -0.38413  -0.36759
 Alpha  occ. eigenvalues --   -0.32704
 Alpha virt. eigenvalues --   -0.00311  -0.00164   0.00473   0.01479   0.02497
 Alpha virt. eigenvalues --    0.02712   0.03105   0.04263   0.05722   0.06133
 Alpha virt. eigenvalues --    0.07046   0.07606   0.08362   0.09890   0.10533

  Beta  occ. eigenvalues --  -19.68220 -19.63552 -19.63223 -10.70645 -10.61486
  Beta  occ. eigenvalues --  -10.60417 -10.59022 -10.53369  -1.25795  -1.16551
  Beta  occ. eigenvalues --   -1.06880  -0.90478  -0.86999  -0.77824  -0.70407
  Beta  occ. eigenvalues --   -0.64482  -0.61822  -0.58656  -0.57085  -0.53184
  Beta  occ. eigenvalues --   -0.51406  -0.48920  -0.46729  -0.45200  -0.41737
  Beta  occ. eigenvalues --   -0.40616  -0.39541  -0.38500  -0.37972  -0.35439
  Beta virt. eigenvalues --   -0.10045  -0.00179   0.00470   0.01124   0.01832
  Beta virt. eigenvalues --    0.02514   0.02779   0.03237   0.04303   0.05745
  Beta virt. eigenvalues --    0.06084   0.07154   0.07473   0.08434   0.09922

 Mulliken charges and spin densities:
               1          2
     1  O   -0.271411   0.577047
     2  H    0.237200  -0.010759
     3  C   -0.195503   0.704655
     4  H    0.212644  -0.024402
     5  C    0.455109  -0.289663
     6  C   -0.503849   0.049563
     7  O   -0.203459  -0.009771
     8  O    0.051750   0.001226
     9  C   -0.280039   0.000376
    10  C   -0.416636   0.003287
    11  H    0.195515   0.000287
    12  H    0.188091  -0.000047
    13  H    0.167422  -0.000060
    14  H    0.173866  -0.000549
    15  H    0.189300  -0.001190
 Sum of Mulliken charges =  -0.00000   1.00000

 Dipole moment (field-independent basis, Debye):
    X=             -0.7370    Y=             -0.5813    Z=             -0.8240  Tot=              1.2491
 Quadrupole moment (field-independent basis, Debye-Ang):
   XX=            -29.6111   YY=            -49.8060   ZZ=            -51.0039
   XY=              1.0527   XZ=             -1.4349   YZ=              5.0035

  Exact polarizability:  90.031   7.596  73.038   4.372   3.154  59.537
 Approx polarizability:  95.252   9.846  82.862   6.957   0.844  76.964

 ******    1 imaginary frequencies (negative Signs) ******

                      1                      2                      3
                      A                      A                      A
 Frequencies --   -695.4571                73.7878                79.0857
 Red. masses --     12.4071                 3.2682                 4.6820
 Frc consts  --      3.5356                 0.0105                 0.0173
 IR Inten    --     19.0088                 1.2604                 6.8611

                      4                      5                      6
                      A                      A                      A
 Frequencies --    117.7009               171.3806               204.4996
 Red. masses --      3.3001                 2.1987                 2.0745
 Frc consts  --      0.0269                 0.0380                 0.0511
 IR Inten    --      1.1609                20.5624                42.6860

                      7                      8                      9
                      A                      A                      A
 Frequencies --    217.1260               234.4355               278.6791
 Red. masses --      2.3070                 1.5633                 2.5811
 Frc consts  --      0.0641                 0.0506                 0.1181
 IR Inten    --     14.2787                 6.3043                10.6624

                     10                     11                     12
                      A                      A                      A
 Frequencies --    337.5151               434.9784               549.0379
 Red. masses --      3.0454                 3.5913                 1.4489
 Frc consts  --      0.2044                 0.4003                 0.2573
 IR Inten    --     10.3179                 4.0243                26.9295

                     13                     14                     15
                      A                      A                      A
 Frequencies --    570.9906               612.5138               711.0767
 Red. masses --      3.2068                 6.5750                 1.3319
 Frc consts  --      0.6160                 1.4534                 0.3968
 IR Inten    --     14.4722                10.5400                40.1335

                     16                     17                     18
                      A                      A                      A
 Frequencies --    766.9690               802.3839               891.4073
 Red. masses --      9.7773                 1.2105                 1.7485
 Frc consts  --      3.3886                 0.4592                 0.8186
 IR Inten    --     32.0712                 5.0041                32.7049

                     19                     20                     21
                      A                      A                      A
 Frequencies --    900.8087               925.6305              1070.8719
 Red. masses --      1.7966                 2.3440                 4.0536
 Frc consts  --      0.8589                 1.1833                 2.7388
 IR Inten    --     39.8681                17.2814                27.8805

                     22                     23                     24
                      A                      A                      A
 Frequencies --   1129.2993              1203.5809              1283.9080
 Red. masses --      2.0808                 1.7715                 3.8722
 Frc consts  --      1.5635                 1.5120                 3.7608
 IR Inten    --     21.4763                 7.8934               525.7957

                     25                     26                     27
                      A                      A                      A
 Frequencies --   1344.8852              1402.1917              1430.8377
 Red. masses --      1.2395                 1.2812                 1.3705
 Frc consts  --      1.3209                 1.4841                 1.6531
 IR Inten    --     86.8882                22.1165                13.3759

                     28                     29                     30
                      A                      A                      A
 Frequencies --   1491.4047              1502.0278              1514.7956
 Red. masses --      1.0400                 1.0538                 1.0935
 Frc consts  --      1.3629                 1.4007                 1.4784
 IR Inten    --     10.9065                 1.1192                20.4681

                     31                     32                     33
                      A                      A                      A
 Frequencies --   1847.9997              2010.2000              3076.6445
 Red. masses --     11.7636                 6.8456                 1.0353
 Frc consts  --     23.6698                16.2983                 5.7740
 IR Inten    --    340.9399                63.4014                 8.8604

                     34                     35                     36
                      A                      A                      A
 Frequencies --   3109.1040              3154.0162              3155.1854
 Red. masses --      1.0608                 1.1011                 1.1052
 Frc consts  --      6.0417                 6.4537                 6.4823
 IR Inten    --     19.6339                16.1578                 0.3004

                     37                     38                     39
                      A                      A                      A
 Frequencies --   3176.6505              3463.2166              3832.1287
 Red. masses --      1.1074                 1.1368                 1.0677
 Frc consts  --      6.5843                 8.0331                 9.2379
 IR Inten    --     14.3045                76.5687                59.1849

 - Thermochemistry -
 -------------------
 Temperature   298.150 Kelvin.  Pressure   1.00000 Atm.
 Atom     1 has atomic number  8 and mass  15.99491

 Molecular mass:   115.03952 amu.
 Principal axes and moments of inertia in atomic units:
                           1         2         3
     Eigenvalues --   487.709911376.408691505.39846
           X            0.99993   0.01151  -0.00025
           Y           -0.01145   0.99618   0.08660
           Z            0.00124  -0.08659   0.99624
 This molecule is an asymmetric top.
 Rotational symmetry number  1.
 Warning -- assumption of classical behavior for rotation
           may cause significant error
 Rotational temperatures (Kelvin)      0.17759     0.06293     0.05754
 Rotational constants (GHZ):           3.70044     1.31120     1.19885
    1 imaginary frequencies ignored.
 Zero-point vibrational energy     293557.3 (Joules/Mol)
                                   70.16189 (Kcal/Mol)
 Warning -- explicit consideration of  13 degrees of freedom as
           vibrations may cause significant error
 Vibrational temperatures:    106.16   113.79   169.35   246.58   294.23
          (Kelvin)            312.40   337.30   400.96   485.61   625.84
                              789.94   821.53   881.27  1023.08  1103.50
                             1154.45  1282.54  1296.06  1331.78  1540.75
                             1624.81  1731.68  1847.26  1934.99  2017.44
                             2058.66  2145.80  2161.08  2179.45  2658.86
                             2892.23  4426.61  4473.31  4537.93  4539.61
                             4570.49  4982.80  5513.58

 Zero-point correction=                           0.111810 (Hartree/Particle)
 Thermal correction to Energy=                    0.121280
 Thermal correction to Enthalpy=                  0.122224
 Thermal correction to Gibbs Free Energy=         0.076670
 Sum of electronic and zero-point Energies=           -420.092485
 Sum of electronic and thermal Energies=              -420.083015
 Sum of electronic and thermal Enthalpies=            -420.082071
 Sum of electronic and thermal Free Energies=         -420.127626

                     E (Thermal)             CV                S
                      KCal/Mol        Cal/Mol-Kelvin    Cal/Mol-Kelvin
 Total                   76.104             32.231             95.878
 Electronic               0.000              0.000              1.377
 Translational            0.889              2.981             40.136
 Rotational               0.889              2.981             28.404
 Vibrational             74.327             26.270             25.961
 Vibration     1          0.599              1.966              4.050
 Vibration     2          0.600              1.963              3.913
 Vibration     3          0.608              1.935              3.138
 Vibration     4          0.626              1.878              2.420
 Vibration     5          0.640              1.833              2.092
 Vibration     6          0.646              1.815              1.983
 Vibration     7          0.654              1.788              1.845
 Vibration     8          0.679              1.713              1.542
 Vibration     9          0.718              1.601              1.224
 Vibration    10          0.796              1.394              0.843
 Vibration    11          0.904              1.142              0.546
 Vibration    12          0.927              1.094              0.502
 Vibration    13          0.972              1.005              0.429

 1\1\GINC-AJ\Freq\UM062X\6-311++G(d,p)\C5H7O3(2)\AAYUSH\16-Aug-2025\0\\
 # freq 6-311++g(d,p) m062x\\Title Card Required\\0,2\O,-1.354855,1.656
 5,0.092204\H,-1.976401,1.797528,0.821338\C,-2.721818,-0.474131,-0.4469
 75\H,-3.746958,-0.559197,-0.725759\C,-1.561513,-0.209043,-0.135304\C,-
 0.163607,-0.537122,0.225909\O,0.164911,-0.894555,1.320275\O,0.637737,-
 0.339355,-0.81048\C,2.052899,-0.424902,-0.53953\C,2.540653,0.843512,0.
 131779\H,2.501856,-0.563353,-1.521189\H,2.240008,-1.305926,0.075248\H,
 3.622518,0.792596,0.269231\H,2.304662,1.712264,-0.483788\H,2.072542,0.

 Normal termination of Gaussian 16 at Sat Aug 16 16:32:45 2025.
