 Gaussian 16, Revision A.03,
 Gaussian 16:  ES64L-G16RevA.03 25-Dec-2016

 -------------------
 # freq 6-31+g m062x
 -------------------

 -------------------
 Title Card Required
 -------------------
 Symbolic Z-matrix:
 Charge =  0 Multiplicity = 2

                         Standard orientation:
 ---------------------------------------------------------------------
 Center     Atomic      Atomic             Coordinates (Angstroms)
 Number     Number       Type             X           Y           Z
 ---------------------------------------------------------------------
      1          8           0       -1.392778    1.790820    0.078660
      2          1           0       -2.025797    1.843109    0.813778
      3          6           0       -2.796857   -0.494945   -0.432836
      4          1           0       -3.828173   -0.515364   -0.697957
      5          6           0       -1.629236   -0.453633   -0.151084
      6          6           0       -0.225365   -0.584084    0.237653
      7          8           0        0.117341   -0.877462    1.348913
      8          8           0        0.578172   -0.380553   -0.799019
      9          6           0        1.992299   -0.460905   -0.528064
     10          6           0        2.487219    0.819346    0.113943
     11          1           0        2.440027   -0.622972   -1.506864
     12          1           0        2.178460   -1.328120    0.106671
     13          1           0        3.569415    0.768146    0.248830
     14          1           0        2.253242    1.675365   -0.520228
     15          1           0        2.022581    0.962722    1.089670
 ---------------------------------------------------------------------

 SCF Done:  E(UM062X) =  -419.959812981     A.U. after   24 cycles

 The electronic state is 2-A.
 Alpha  occ. eigenvalues --  -19.70298 -19.70203 -19.66017 -10.72854 -10.61238
 Alpha  occ. eigenvalues --  -10.59526 -10.59143 -10.54098  -1.27789  -1.18434
 Alpha  occ. eigenvalues --   -1.14556  -0.91280  -0.87808  -0.78366  -0.71040
 Alpha  occ. eigenvalues --   -0.64400  -0.61980  -0.58405  -0.57049  -0.54622
 Alpha  occ. eigenvalues --   -0.53668  -0.50503  -0.48704  -0.46378  -0.44954
 Alpha  occ. eigenvalues --   -0.42410  -0.41657  -0.39426  -0.37971  -0.36698
 Alpha  occ. eigenvalues --   -0.36196
 Alpha virt. eigenvalues --   -0.01132   0.01988   0.02496   0.03658   0.03770
 Alpha virt. eigenvalues --    0.04505   0.05467   0.05903   0.07703   0.08342
 Alpha virt. eigenvalues --    0.08852   0.08916   0.10063   0.11857   0.12294

  Beta  occ. eigenvalues --  -19.70302 -19.68567 -19.66031 -10.72840 -10.61238
  Beta  occ. eigenvalues --  -10.59518 -10.59045 -10.54098  -1.27797  -1.18459
  Beta  occ. eigenvalues --   -1.07360  -0.91026  -0.87611  -0.78279  -0.70948
  Beta  occ. eigenvalues --   -0.64362  -0.61727  -0.58298  -0.56718  -0.53654
  Beta  occ. eigenvalues --   -0.51656  -0.49214  -0.46578  -0.44997  -0.41655
  Beta  occ. eigenvalues --   -0.39386  -0.39016  -0.38400  -0.38000  -0.36394
  Beta virt. eigenvalues --   -0.09199  -0.00611   0.02037   0.02508   0.03766
  Beta virt. eigenvalues --    0.03805   0.04692   0.05535   0.05988   0.07761
  Beta virt. eigenvalues --    0.08289   0.08920   0.09020   0.10141   0.11967

 Mulliken charges and spin densities:
               1          2
     1  O   -0.415172   0.931243
     2  H    0.405022  -0.034238
     3  C   -0.227878   0.105029
     4  H    0.340357  -0.005932
     5  C   -0.193467  -0.046321
     6  C    0.271489   0.058207
     7  O   -0.335423  -0.006400
     8  O   -0.164203  -0.000389
     9  C   -0.237339  -0.001099
    10  C   -0.563026   0.000136
    11  H    0.219225  -0.000014
    12  H    0.231591  -0.000061
    13  H    0.204537  -0.000025
    14  H    0.227456  -0.000059
    15  H    0.236830  -0.000078
 Sum of Mulliken charges =  -0.00000   1.00000

 Dipole moment (field-independent basis, Debye):
    X=             -0.7866    Y=              0.2160    Z=             -0.3546  Tot=              0.8895
 Quadrupole moment (field-independent basis, Debye-Ang):
   XX=            -29.9021   YY=            -48.7604   ZZ=            -52.4961
   XY=             -1.0044   XZ=             -2.3905   YZ=              5.6847

  Exact polarizability:  87.287   4.302  59.242   3.698  -0.023  56.817
 Approx polarizability:  93.120   3.469  58.557   7.438  -3.563  71.371

 ******    4 imaginary frequencies (negative Signs) ******

                      1                      2                      3
                      A                      A                      A
 Frequencies --   -459.6681              -149.1982               -71.9883
 Red. masses --      1.0898                 2.8773                 4.6141
 Frc consts  --      0.1357                 0.0377                 0.0141
 IR Inten    --    123.1143                44.7466                 9.2140

                      4                      5                      6
                      A                      A                      A
 Frequencies --    -14.3268                82.6361                91.1741
 Red. masses --      2.7126                 3.2417                 3.6902
 Frc consts  --      0.0003                 0.0130                 0.0181
 IR Inten    --      0.2435                 2.9736                 5.5347

                      7                      8                      9
                      A                      A                      A
 Frequencies --    146.6140               174.6009               217.3505
 Red. masses --      3.9657                 1.3629                 3.2736
 Frc consts  --      0.0502                 0.0245                 0.0911
 IR Inten    --     16.1431                 2.4215                 3.1197

                     10                     11                     12
                      A                      A                      A
 Frequencies --    299.1794               312.5854               424.0229
 Red. masses --      2.2061                 2.6605                 3.7681
 Frc consts  --      0.1163                 0.1532                 0.3992
 IR Inten    --     56.8075                30.9772                 0.9659

                     13                     14                     15
                      A                      A                      A
 Frequencies --    572.2450               623.6316               758.8071
 Red. masses --      4.2371                 5.3705                 3.8691
 Frc consts  --      0.8175                 1.2306                 1.3126
 IR Inten    --      2.8973                13.0330                81.5910

                     16                     17                     18
                      A                      A                      A
 Frequencies --    778.7007               811.0123               818.9906
 Red. masses --      1.5495                 1.4373                 1.3182
 Frc consts  --      0.5536                 0.5570                 0.5209
 IR Inten    --     44.9727                28.9831                 4.5133

                     19                     20                     21
                      A                      A                      A
 Frequencies --    899.4567               946.0178              1112.6082
 Red. masses --      3.4172                 2.5214                 4.1608
 Frc consts  --      1.6289                 1.3295                 3.0347
 IR Inten    --     20.8898                 5.5320                 8.4307

                     22                     23                     24
                      A                      A                      A
 Frequencies --   1159.5189              1228.7842              1329.5354
 Red. masses --      2.0897                 1.7541                 1.8273
 Frc consts  --      1.6553                 1.5605                 1.9031
 IR Inten    --     18.7644                 4.5765               286.1264

                     25                     26                     27
                      A                      A                      A
 Frequencies --   1373.2758              1443.5894              1457.4871
 Red. masses --      1.8597                 1.3890                 1.2682
 Frc consts  --      2.0663                 1.7055                 1.5873
 IR Inten    --    306.0648                41.7423                17.3605

                     28                     29                     30
                      A                      A                      A
 Frequencies --   1525.9154              1536.6206              1544.4006
 Red. masses --      1.0415                 1.0598                 1.0856
 Frc consts  --      1.4287                 1.4743                 1.5256
 IR Inten    --     14.7038                 2.0946                27.1760

                     31                     32                     33
                      A                      A                      A
 Frequencies --   1908.0379              2303.4933              3107.7746
 Red. masses --     12.2580                 5.6594                 1.0351
 Frc consts  --     26.2933                17.6928                 5.8900
 IR Inten    --    310.6071                62.5154                13.1182

                     34                     35                     36
                      A                      A                      A
 Frequencies --   3136.5013              3188.0144              3190.2360
 Red. masses --      1.0601                 1.1022                 1.1008
 Frc consts  --      6.1446                 6.6003                 6.6012
 IR Inten    --     21.7321                 6.2905                14.6662

                     37                     38                     39
                      A                      A                      A
 Frequencies --   3211.0761              3529.4951              3808.2107
 Red. masses --      1.1051                 1.1742                 1.0672
 Frc consts  --      6.7135                 8.6181                 9.1186
 IR Inten    --     17.6588                60.5859                11.0914

 - Thermochemistry -
 -------------------
 Temperature   298.150 Kelvin.  Pressure   1.00000 Atm.
 Atom     1 has atomic number  8 and mass  15.99491

 Molecular mass:   115.03952 amu.
 Principal axes and moments of inertia in atomic units:
                           1         2         3
     Eigenvalues --   525.897351382.429551544.74236
           X            0.99995   0.01019  -0.00128
           Y           -0.01009   0.99779   0.06575
           Z            0.00195  -0.06574   0.99784
 This molecule is an asymmetric top.
 Rotational symmetry number  1.
 Warning -- assumption of classical behavior for rotation
           may cause significant error
 Rotational temperatures (Kelvin)      0.16470     0.06265     0.05607
 Rotational constants (GHZ):           3.43174     1.30549     1.16831
    4 imaginary frequencies ignored.
 Zero-point vibrational energy     293393.7 (Joules/Mol)
                                   70.12278 (Kcal/Mol)
 Warning -- explicit consideration of   9 degrees of freedom as
           vibrations may cause significant error
 Vibrational temperatures:    118.89   131.18   210.94   251.21   312.72
          (Kelvin)            430.45   449.74   610.07   823.33   897.27
                             1091.75  1120.38  1166.87  1178.34  1294.12
                             1361.11  1600.80  1668.29  1767.95  1912.90
                             1975.84  2077.00  2097.00  2195.45  2210.85
                             2222.05  2745.24  3314.21  4471.39  4512.73
                             4586.84  4590.04  4620.02  5078.16  5479.17

 Zero-point correction=                           0.111748 (Hartree/Particle)
 Thermal correction to Energy=                    0.119847
 Thermal correction to Enthalpy=                  0.120791
 Thermal correction to Gibbs Free Energy=         0.077796
 Sum of electronic and zero-point Energies=           -419.848065
 Sum of electronic and thermal Energies=              -419.839966
 Sum of electronic and thermal Enthalpies=            -419.839022
 Sum of electronic and thermal Free Energies=         -419.882017

                     E (Thermal)             CV                S
                      KCal/Mol        Cal/Mol-Kelvin    Cal/Mol-Kelvin
 Total                   75.205             27.227             90.492
 Electronic               0.000              0.000              1.377
 Translational            0.889              2.981             40.136
 Rotational               0.889              2.981             28.509
 Vibrational             73.428             21.265             20.470
 Vibration     1          0.600              1.961              3.827
 Vibration     2          0.602              1.955              3.635
 Vibration     3          0.617              1.906              2.716
 Vibration     4          0.627              1.874              2.385
 Vibration     5          0.646              1.815              1.981
 Vibration     6          0.692              1.675              1.421
 Vibration     7          0.701              1.650              1.349
 Vibration     8          0.786              1.418              0.878
 Vibration     9          0.928              1.091              0.500

 Normal termination of Gaussian 16 at Fri Jun 20 13:37:04 2025.
