 Gaussian 16, Revision A.03,
 Gaussian 16:  ES64L-G16RevA.03 25-Dec-2016

 --------------------------
 # ccsd(t)/6-311++g(d,p) sp
 --------------------------

 -------------------
 Title Card Required
 -------------------
 Symbolic Z-matrix:
 Charge =  0 Multiplicity = 2

                         Standard orientation:
 ---------------------------------------------------------------------
 Center     Atomic      Atomic             Coordinates (Angstroms)
 Number     Number       Type             X           Y           Z
 ---------------------------------------------------------------------
      1          8           0       -1.392778    1.790820    0.078660
      2          1           0       -2.025797    1.843109    0.813778
      3          6           0       -2.796857   -0.494945   -0.432836
      4          1           0       -3.828173   -0.515364   -0.697957
      5          6           0       -1.629236   -0.453633   -0.151084
      6          6           0       -0.225365   -0.584084    0.237653
      7          8           0        0.117341   -0.877462    1.348913
      8          8           0        0.578172   -0.380553   -0.799019
      9          6           0        1.992299   -0.460905   -0.528064
     10          6           0        2.487219    0.819346    0.113943
     11          1           0        2.440027   -0.622972   -1.506864
     12          1           0        2.178460   -1.328120    0.106671
     13          1           0        3.569415    0.768146    0.248830
     14          1           0        2.253242    1.675365   -0.520228
     15          1           0        2.022581    0.962722    1.089670
 ---------------------------------------------------------------------

 SCF Done:  E(UHF) =  -417.990133184     A.U. after   38 cycles
 E2 =    -0.1260680695D+01 EUMP2 =    -0.41925081387886D+03
 CCSD(T)= -0.41935671750D+03

 The electronic state is 2-A.
 Alpha  occ. eigenvalues --  -20.63106 -20.61018 -20.55628 -11.41460 -11.29436
 Alpha  occ. eigenvalues --  -11.26712 -11.25820 -11.22177  -1.48029  -1.38707
 Alpha  occ. eigenvalues --   -1.37731  -1.07716  -1.04014  -0.92451  -0.83633
 Alpha  occ. eigenvalues --   -0.76269  -0.73013  -0.69300  -0.68578  -0.66858
 Alpha  occ. eigenvalues --   -0.64825  -0.62920  -0.57968  -0.56150  -0.53855
 Alpha  occ. eigenvalues --   -0.53528  -0.50219  -0.47787  -0.45994  -0.42773
 Alpha  occ. eigenvalues --   -0.42235
 Alpha virt. eigenvalues --    0.03708   0.04610   0.05645   0.06815   0.07002
 Alpha virt. eigenvalues --    0.08798   0.09545   0.09919   0.10859   0.11866
 Alpha virt. eigenvalues --    0.13447   0.13921   0.14746   0.15951   0.16835

  Beta  occ. eigenvalues --  -20.61025 -20.59025 -20.55917 -11.41241 -11.29437
  Beta  occ. eigenvalues --  -11.26860 -11.25473 -11.22178  -1.48151  -1.38196
  Beta  occ. eigenvalues --   -1.23448  -1.07761  -1.03560  -0.91928  -0.83423
  Beta  occ. eigenvalues --   -0.76183  -0.72438  -0.69519  -0.66823  -0.63277
  Beta  occ. eigenvalues --   -0.62965  -0.58222  -0.55268  -0.53861  -0.50372
  Beta  occ. eigenvalues --   -0.50267  -0.48327  -0.46792  -0.43012  -0.42300
  Beta virt. eigenvalues --    0.03755   0.04538   0.04974   0.06700   0.06998
  Beta virt. eigenvalues --    0.08571   0.08957   0.09768   0.10462   0.11189
  Beta virt. eigenvalues --    0.12356   0.13595   0.14259   0.15070   0.16149

 Mulliken charges and spin densities:
               1          2
     1  O   -0.174730   0.985345
     2  H    0.234285  -0.038525
     3  C   -0.552005   0.593522
     4  H    0.222971  -0.041149
     5  C    1.102246  -0.528784
     6  C   -0.817485   0.084964
     7  O   -0.273225  -0.059176
     8  O   -0.025747   0.001211
     9  C   -0.141446   0.001203
    10  C   -0.382410   0.001736
    11  H    0.167334  -0.000014
    12  H    0.174631  -0.000249
    13  H    0.136840   0.000140
    14  H    0.148589  -0.000634
    15  H    0.180151   0.000410
 Sum of Mulliken charges =  -0.00000   1.00000

 Dipole moment (field-independent basis, Debye):
    X=             -0.7625    Y=              0.6679    Z=             -0.6377  Tot=              1.1975
 Quadrupole moment (field-independent basis, Debye-Ang):
   XX=            -30.4079   YY=            -48.0265   ZZ=            -51.8817
   XY=             -1.6200   XZ=             -2.2030   YZ=              5.4476

 P3-0=-419.2838014\MP4SDQ=-419.3032473\CCSD=-419.3040534\CCSD(T)=-419.3
 Normal termination of Gaussian 16 at Sun Aug  3 06:32:33 2025.
