 Gaussian 16, Revision A.03,
 Gaussian 16:  ES64L-G16RevA.03 25-Dec-2016

 --------------------------
 # freq 6-311++g(d,p) m062x
 --------------------------

 -------------------
 Title Card Required
 -------------------
 Symbolic Z-matrix:
 Charge =  0 Multiplicity = 2

                         Standard orientation:
 ---------------------------------------------------------------------
 Center     Atomic      Atomic             Coordinates (Angstroms)
 Number     Number       Type             X           Y           Z
 ---------------------------------------------------------------------
      1          8           0       -1.411303    1.645304    0.106375
      2          1           0       -2.034821    1.775038    0.836608
      3          6           0       -2.779582   -0.493490   -0.446744
      4          1           0       -3.804732   -0.576605   -0.725779
      5          6           0       -1.619417   -0.253199   -0.136305
      6          6           0       -0.220648   -0.562222    0.226311
      7          8           0        0.108331   -0.924418    1.319131
      8          8           0        0.581051   -0.357517   -0.808656
      9          6           0        1.996009   -0.444328   -0.537840
     10          6           0        2.483419    0.820394    0.140609
     11          1           0        2.445280   -0.577244   -1.520133
     12          1           0        2.183210   -1.328691    0.072119
     13          1           0        3.565272    0.769101    0.277997
     14          1           0        2.247379    1.692501   -0.470208
     15          1           0        2.015094    0.936020    1.118412
 ---------------------------------------------------------------------

 SCF Done:  E(UM062X) =  -420.203103167     A.U. after   23 cycles

 The electronic state is 2-A.
 Alpha  occ. eigenvalues --  -19.68195 -19.64911 -19.63166 -10.70695 -10.60826
 Alpha  occ. eigenvalues --  -10.60407 -10.59230 -10.53370  -1.25776  -1.16487
 Alpha  occ. eigenvalues --   -1.11109  -0.91409  -0.87654  -0.78233  -0.70859
 Alpha  occ. eigenvalues --   -0.64635  -0.62442  -0.58701  -0.57407  -0.53315
 Alpha  occ. eigenvalues --   -0.53196  -0.49924  -0.48304  -0.45994  -0.45102
 Alpha  occ. eigenvalues --   -0.41765  -0.40473  -0.39772  -0.38395  -0.36780
 Alpha  occ. eigenvalues --   -0.33108
 Alpha virt. eigenvalues --   -0.00386  -0.00227   0.00477   0.01486   0.02524
 Alpha virt. eigenvalues --    0.02734   0.03166   0.04273   0.05710   0.06142
 Alpha virt. eigenvalues --    0.07055   0.07600   0.08375   0.09872   0.10564

  Beta  occ. eigenvalues --  -19.68197 -19.63721 -19.63187 -10.70657 -10.60934
  Beta  occ. eigenvalues --  -10.60407 -10.58873 -10.53371  -1.25771  -1.16524
  Beta  occ. eigenvalues --   -1.06629  -0.90497  -0.87025  -0.77853  -0.70427
  Beta  occ. eigenvalues --   -0.64462  -0.61812  -0.58625  -0.57013  -0.53197
  Beta  occ. eigenvalues --   -0.51322  -0.48940  -0.46692  -0.45187  -0.41736
  Beta  occ. eigenvalues --   -0.40228  -0.39547  -0.38489  -0.37898  -0.35550
  Beta virt. eigenvalues --   -0.10126  -0.00177   0.00470   0.01015   0.01812
  Beta virt. eigenvalues --    0.02567   0.02788   0.03263   0.04318   0.05747
  Beta virt. eigenvalues --    0.06097   0.07162   0.07478   0.08445   0.09922

 Mulliken charges and spin densities:
               1          2
     1  O   -0.263548   0.634066
     2  H    0.235405  -0.013068
     3  C   -0.276582   0.630383
     4  H    0.209009  -0.022452
     5  C    0.543550  -0.265505
     6  C   -0.516023   0.043938
     7  O   -0.202667  -0.010269
     8  O    0.052861   0.000997
     9  C   -0.279885   0.000032
    10  C   -0.416138   0.003510
    11  H    0.195428   0.000264
    12  H    0.188011  -0.000034
    13  H    0.167795  -0.000034
    14  H    0.173600  -0.000561
    15  H    0.189184  -0.001266
 Sum of Mulliken charges =  -0.00000   1.00000

 Dipole moment (field-independent basis, Debye):
    X=             -0.7286    Y=             -0.5064    Z=             -0.8060  Tot=              1.1987
 Quadrupole moment (field-independent basis, Debye-Ang):
   XX=            -29.6258   YY=            -49.6524   ZZ=            -51.0282
   XY=              0.9326   XZ=             -1.4679   YZ=              5.0221

  Exact polarizability:  90.440   7.877  74.024   4.526   3.340  59.602
 Approx polarizability:  96.169   9.778  82.218   7.198   0.739  76.980

 ******    1 imaginary frequencies (negative Signs) ******

                      1                      2                      3
                      A                      A                      A
 Frequencies --   -680.3605                70.0684                71.5942
 Red. masses --     12.2711                 3.2242                 4.9808
 Frc consts  --      3.3466                 0.0093                 0.0150
 IR Inten    --     43.0226                 0.5187                 7.5632

                      4                      5                      6
                      A                      A                      A
 Frequencies --    117.7354               168.2357               195.2034
 Red. masses --      3.3791                 2.3595                 4.1624
 Frc consts  --      0.0276                 0.0393                 0.0934
 IR Inten    --      1.1711                19.7686                18.6511

                      7                      8                      9
                      A                      A                      A
 Frequencies --    215.3890               232.9453               273.1137
 Red. masses --      1.5428                 1.4853                 2.4531
 Frc consts  --      0.0422                 0.0475                 0.1078
 IR Inten    --     32.7187                 7.9716                13.9860

                     10                     11                     12
                      A                      A                      A
 Frequencies --    336.9329               433.1569               564.6524
 Red. masses --      3.0060                 3.6495                 3.7136
 Frc consts  --      0.2011                 0.4034                 0.6976
 IR Inten    --     10.1775                 4.0394                 1.4289

                     13                     14                     15
                      A                      A                      A
 Frequencies --    597.5059               615.4048               715.2747
 Red. masses --      1.7061                 3.2168                 1.3228
 Frc consts  --      0.3589                 0.7178                 0.3987
 IR Inten    --     38.4720                 9.6476                39.8240

                     16                     17                     18
                      A                      A                      A
 Frequencies --    765.9674               802.5504               858.9189
 Red. masses --      9.3798                 1.2090                 1.1483
 Frc consts  --      3.2424                 0.4588                 0.4991
 IR Inten    --     34.0267                 5.0210                69.1051

                     19                     20                     21
                      A                      A                      A
 Frequencies --    896.6368               924.5447              1071.5226
 Red. masses --      3.2597                 2.6544                 4.0711
 Frc consts  --      1.5440                 1.3368                 2.7540
 IR Inten    --     18.6603                 8.5282                27.0973

                     22                     23                     24
                      A                      A                      A
 Frequencies --   1129.3296              1203.7172              1284.5853
 Red. masses --      2.0822                 1.7715                 3.8547
 Frc consts  --      1.5646                 1.5123                 3.7477
 IR Inten    --     21.5936                 7.6732               528.8568

                     25                     26                     27
                      A                      A                      A
 Frequencies --   1345.0174              1402.1663              1430.8746
 Red. masses --      1.2405                 1.2815                 1.3721
 Frc consts  --      1.3222                 1.4845                 1.6552
 IR Inten    --     88.0374                22.7188                13.5989

                     28                     29                     30
                      A                      A                      A
 Frequencies --   1491.3705              1502.0964              1514.8659
 Red. masses --      1.0400                 1.0538                 1.0936
 Frc consts  --      1.3628                 1.4009                 1.4786
 IR Inten    --     10.9464                 1.1709                20.7501

                     31                     32                     33
                      A                      A                      A
 Frequencies --   1848.0588              2047.6770              3076.5145
 Red. masses --     11.8661                 6.6703                 1.0353
 Frc consts  --     23.8775                16.4786                 5.7734
 IR Inten    --    345.0106                77.8761                 8.8673

                     34                     35                     36
                      A                      A                      A
 Frequencies --   3108.9330              3153.8521              3155.0088
 Red. masses --      1.0608                 1.1012                 1.1051
 Frc consts  --      6.0410                 6.4534                 6.4812
 IR Inten    --     19.6386                15.9676                 0.5734

                     37                     38                     39
                      A                      A                      A
 Frequencies --   3176.4516              3466.8028              3826.7169
 Red. masses --      1.1074                 1.1408                 1.0676
 Frc consts  --      6.5835                 8.0780                 9.2115
 IR Inten    --     14.3572                74.2685                56.8255

 - Thermochemistry -
 -------------------
 Temperature   298.150 Kelvin.  Pressure   1.00000 Atm.
 Atom     1 has atomic number  8 and mass  15.99491

 Molecular mass:   115.03952 amu.
 Principal axes and moments of inertia in atomic units:
                           1         2         3
     Eigenvalues --   490.606551376.838671508.33927
           X            0.99993   0.01143  -0.00034
           Y           -0.01137   0.99634   0.08472
           Z            0.00130  -0.08471   0.99640
 This molecule is an asymmetric top.
 Rotational symmetry number  1.
 Warning -- assumption of classical behavior for rotation
           may cause significant error
 Rotational temperatures (Kelvin)      0.17654     0.06291     0.05742
 Rotational constants (GHZ):           3.67859     1.31079     1.19651
    1 imaginary frequencies ignored.
 Zero-point vibrational energy     293631.7 (Joules/Mol)
                                   70.17967 (Kcal/Mol)
 Warning -- explicit consideration of  13 degrees of freedom as
           vibrations may cause significant error
 Vibrational temperatures:    100.81   103.01   169.39   242.05   280.85
          (Kelvin)            309.90   335.16   392.95   484.77   623.22
                              812.41   859.68   885.43  1029.12  1102.06
                             1154.69  1235.79  1290.06  1330.21  1541.68
                             1624.85  1731.88  1848.23  1935.18  2017.40
                             2058.71  2145.75  2161.18  2179.55  2658.94
                             2946.15  4426.42  4473.06  4537.69  4539.35
                             4570.21  4987.96  5505.79

 Zero-point correction=                           0.111838 (Hartree/Particle)
 Thermal correction to Energy=                    0.121345
 Thermal correction to Enthalpy=                  0.122290
 Thermal correction to Gibbs Free Energy=         0.076531
 Sum of electronic and zero-point Energies=           -420.091265
 Sum of electronic and thermal Energies=              -420.081758
 Sum of electronic and thermal Enthalpies=            -420.080814
 Sum of electronic and thermal Free Energies=         -420.126572

                     E (Thermal)             CV                S
                      KCal/Mol        Cal/Mol-Kelvin    Cal/Mol-Kelvin
 Total                   76.145             32.222             96.307
 Electronic               0.000              0.000              1.377
 Translational            0.889              2.981             40.136
 Rotational               0.889              2.981             28.412
 Vibrational             74.368             26.261             26.381
 Vibration     1          0.598              1.968              4.151
 Vibration     2          0.598              1.968              4.109
 Vibration     3          0.608              1.935              3.137
 Vibration     4          0.625              1.882              2.455
 Vibration     5          0.636              1.847              2.178
 Vibration     6          0.645              1.818              1.998
 Vibration     7          0.654              1.791              1.856
 Vibration     8          0.676              1.723              1.576
 Vibration     9          0.718              1.602              1.227
 Vibration    10          0.794              1.398              0.848
 Vibration    11          0.920              1.108              0.515
 Vibration    12          0.955              1.037              0.454
 Vibration    13          0.975              0.999              0.424

 1\1\GINC-AJ\Freq\UM062X\6-311++G(d,p)\C5H7O3(2)\AAYUSH\16-Aug-2025\0\\
 # freq 6-311++g(d,p) m062x\\Title Card Required\\0,2\O,-1.353722,1.669
 494,0.093871\H,-1.977032,1.803489,0.823512\C,-2.722798,-0.471916,-0.44
 7016\H,-3.748038,-0.556261,-0.725351\C,-1.562486,-0.230265,-0.138184\C
 ,-0.163731,-0.537704,0.225829\O,0.165385,-0.893912,1.320575\O,0.637795
 ,-0.339018,-0.810444\C,2.052788,-0.424765,-0.539471\C,2.540749,0.84356
 2,0.131813\H,2.501792,-0.563291,-1.521111\H,2.239851,-1.305776,0.07536
 1\H,3.622618,0.792695,0.269238\H,2.304843,1.712328,-0.483798\H,2.07268

 Normal termination of Gaussian 16 at Sat Aug 16 16:35:08 2025.
