 Gaussian 16, Revision A.03,
 Gaussian 16:  ES64L-G16RevA.03 25-Dec-2016

 --------------------------
 # freq 6-311++g(d,p) m062x
 --------------------------

 -------------------
 Title Card Required
 -------------------
 Symbolic Z-matrix:
 Charge =  0 Multiplicity = 2

                         Standard orientation:
 ---------------------------------------------------------------------
 Center     Atomic      Atomic             Coordinates (Angstroms)
 Number     Number       Type             X           Y           Z
 ---------------------------------------------------------------------
      1          8           0       -1.390533    1.806765    0.075306
      2          1           0       -2.021846    1.849263    0.812635
      3          6           0       -2.798540   -0.496366   -0.431484
      4          1           0       -3.830347   -0.507786   -0.695211
      5          6           0       -1.630348   -0.471611   -0.151918
      6          6           0       -0.225967   -0.588666    0.238727
      7          8           0        0.118400   -0.871975    1.352214
      8          8           0        0.577360   -0.384162   -0.797979
      9          6           0        1.991681   -0.462494   -0.527046
     10          6           0        2.487492    0.819377    0.110938
     11          1           0        2.439053   -0.627524   -1.505525
     12          1           0        2.178175   -1.327756    0.110282
     13          1           0        3.569778    0.767742    0.245073
     14          1           0        2.253703    1.673762   -0.525493
     15          1           0        2.023761    0.965840    1.086607
 ---------------------------------------------------------------------

 SCF Done:  E(UM062X) =  -420.207668348     A.U. after   22 cycles

 The electronic state is 2-A.
 Alpha  occ. eigenvalues --  -19.68001 -19.67684 -19.62904 -10.70524 -10.60296
 Alpha  occ. eigenvalues --  -10.57722 -10.57432 -10.53338  -1.25496  -1.16188
 Alpha  occ. eigenvalues --   -1.13391  -0.90528  -0.87095  -0.77901  -0.70458
 Alpha  occ. eigenvalues --   -0.64287  -0.61571  -0.58324  -0.56936  -0.54936
 Alpha  occ. eigenvalues --   -0.53261  -0.50460  -0.48673  -0.46216  -0.45003
 Alpha  occ. eigenvalues --   -0.42512  -0.41698  -0.39413  -0.38258  -0.36402
 Alpha  occ. eigenvalues --   -0.36076
 Alpha virt. eigenvalues --   -0.01174  -0.00198   0.00520   0.01492   0.02517
 Alpha virt. eigenvalues --    0.02797   0.03710   0.04442   0.05617   0.06405
 Alpha virt. eigenvalues --    0.07143   0.07827   0.08491   0.10039   0.10893

  Beta  occ. eigenvalues --  -19.68006 -19.66108 -19.62917 -10.70513 -10.60296
  Beta  occ. eigenvalues --  -10.57693 -10.57361 -10.53339  -1.25503  -1.16215
  Beta  occ. eigenvalues --   -1.05819  -0.90286  -0.86871  -0.77803  -0.70364
  Beta  occ. eigenvalues --   -0.64250  -0.61350  -0.58294  -0.56444  -0.53247
  Beta  occ. eigenvalues --   -0.52184  -0.49052  -0.46460  -0.45032  -0.41699
  Beta  occ. eigenvalues --   -0.39412  -0.39138  -0.38331  -0.37996  -0.36107
  Beta virt. eigenvalues --   -0.08961  -0.00668  -0.00054   0.00557   0.01787
  Beta virt. eigenvalues --    0.02622   0.02825   0.03748   0.04548   0.05688
  Beta virt. eigenvalues --    0.06416   0.07232   0.07902   0.08528   0.10182

 Mulliken charges and spin densities:
               1          2
     1  O   -0.223640   0.928845
     2  H    0.234229  -0.021068
     3  C   -0.471195   0.146978
     4  H    0.199731  -0.007442
     5  C    0.917902  -0.045474
     6  C   -0.760429   0.004080
     7  O   -0.196213  -0.005512
     8  O    0.057246   0.000157
     9  C   -0.255148  -0.000569
    10  C   -0.414974   0.000503
    11  H    0.195471   0.000076
    12  H    0.190219  -0.000102
    13  H    0.167173   0.000090
    14  H    0.170392  -0.000122
    15  H    0.189236  -0.000439
 Sum of Mulliken charges =  -0.00000   1.00000

 Dipole moment (field-independent basis, Debye):
    X=             -0.6242    Y=              0.2622    Z=             -0.5863  Tot=              0.8956
 Quadrupole moment (field-independent basis, Debye-Ang):
   XX=            -30.4532   YY=            -48.4778   ZZ=            -51.3701
   XY=             -0.8542   XZ=             -2.0190   YZ=              5.0849

  Exact polarizability:  91.579   4.184  62.495   4.164   0.439  59.193
 Approx polarizability:  99.361   2.701  67.292   7.294  -2.442  76.574

 ******    1 imaginary frequencies (negative Signs) ******

                      1                      2                      3
                      A                      A                      A
 Frequencies --    -19.4821                38.0902               110.2245
 Red. masses --      4.9118                 4.1900                 4.8063
 Frc consts  --      0.0011                 0.0036                 0.0344
 IR Inten    --      8.4261                 1.1947                 1.3957

                      4                      5                      6
                      A                      A                      A
 Frequencies --    119.1256               158.1803               198.7293
 Red. masses --      3.5710                 2.5402                 2.3036
 Frc consts  --      0.0299                 0.0374                 0.0536
 IR Inten    --     10.8100                11.7173                23.4765

                      7                      8                      9
                      A                      A                      A
 Frequencies --    217.4302               227.9106               287.1134
 Red. masses --      1.8477                 1.4095                 3.8325
 Frc consts  --      0.0515                 0.0431                 0.1861
 IR Inten    --     22.7922                18.9929                10.1534

                     10                     11                     12
                      A                      A                      A
 Frequencies --    338.6168               425.5182               524.5519
 Red. masses --      3.0051                 3.8049                 1.1155
 Frc consts  --      0.2030                 0.4059                 0.1808
 IR Inten    --     10.4314                 4.9463               101.3826

                     13                     14                     15
                      A                      A                      A
 Frequencies --    565.0496               608.2458               728.5778
 Red. masses --      3.6435                 7.1100                 1.3205
 Frc consts  --      0.6854                 1.5498                 0.4130
 IR Inten    --      8.8226                 7.1062                37.9302

                     16                     17                     18
                      A                      A                      A
 Frequencies --    756.1761               780.9722               802.6659
 Red. masses --      1.3219                 7.4584                 1.2194
 Frc consts  --      0.4454                 2.6802                 0.4629
 IR Inten    --     25.2905                47.8806                 5.5834

                     19                     20                     21
                      A                      A                      A
 Frequencies --    897.5203               928.8851              1077.5564
 Red. masses --      3.2109                 2.7853                 4.1190
 Frc consts  --      1.5240                 1.4159                 2.8179
 IR Inten    --     15.6891                 5.6682                21.7703

                     22                     23                     24
                      A                      A                      A
 Frequencies --   1129.8312              1204.4937              1293.5731
 Red. masses --      2.0905                 1.7703                 3.5903
 Frc consts  --      1.5722                 1.5132                 3.5397
 IR Inten    --     22.0499                 5.2264               545.2220

                     25                     26                     27
                      A                      A                      A
 Frequencies --   1348.5226              1402.3384              1432.2605
 Red. masses --      1.2582                 1.2842                 1.3875
 Frc consts  --      1.3481                 1.4880                 1.6769
 IR Inten    --    106.5282                30.2438                11.2603

                     28                     29                     30
                      A                      A                      A
 Frequencies --   1490.7009              1502.4513              1515.0760
 Red. masses --      1.0401                 1.0565                 1.0920
 Frc consts  --      1.3618                 1.4052                 1.4769
 IR Inten    --     10.8097                 0.9286                20.7472

                     31                     32                     33
                      A                      A                      A
 Frequencies --   1841.0711              2243.3393              3075.6285
 Red. masses --     11.9921                 5.8390                 1.0353
 Frc consts  --     23.9489                17.3133                 5.7703
 IR Inten    --    333.5749                60.1599                10.1873

                     34                     35                     36
                      A                      A                      A
 Frequencies --   3105.7920              3151.7216              3154.1999
 Red. masses --      1.0607                 1.1021                 1.1045
 Frc consts  --      6.0284                 6.4501                 6.4740
 IR Inten    --     19.8819                12.9921                 4.4073

                     37                     38                     39
                      A                      A                      A
 Frequencies --   3174.4482              3486.8594              3797.9272
 Red. masses --      1.1071                 1.1670                 1.0672
 Frc consts  --      6.5730                 8.3599                 9.0697
 IR Inten    --     15.0441                67.7760                34.5453

 - Thermochemistry -
 -------------------
 Temperature   298.150 Kelvin.  Pressure   1.00000 Atm.
 Atom     1 has atomic number  8 and mass  15.99491

 Molecular mass:   115.03952 amu.
 Principal axes and moments of inertia in atomic units:
                           1         2         3
     Eigenvalues --   530.172341382.839391548.88479
           X            0.99995   0.01008  -0.00138
           Y           -0.00997   0.99790   0.06398
           Z            0.00202  -0.06396   0.99795
 This molecule is an asymmetric top.
 Rotational symmetry number  1.
 Warning -- assumption of classical behavior for rotation
           may cause significant error
 Rotational temperatures (Kelvin)      0.16337     0.06263     0.05592
 Rotational constants (GHZ):           3.40407     1.30510     1.16519
    1 imaginary frequencies ignored.
 Zero-point vibrational energy     293930.7 (Joules/Mol)
                                   70.25112 (Kcal/Mol)
 Warning -- explicit consideration of  13 degrees of freedom as
           vibrations may cause significant error
 Vibrational temperatures:     54.80   158.59   171.40   227.59   285.93
          (Kelvin)            312.83   327.91   413.09   487.19   612.23
                              754.71   812.98   875.13  1048.26  1087.97
                             1123.64  1154.86  1291.33  1336.46  1550.36
                             1625.58  1733.00  1861.16  1940.22  2017.65
                             2060.70  2144.79  2161.69  2179.86  2648.89
                             3227.66  4425.14  4468.54  4534.62  4538.19
                             4567.32  5016.81  5464.37

 Zero-point correction=                           0.111952 (Hartree/Particle)
 Thermal correction to Energy=                    0.121516
 Thermal correction to Enthalpy=                  0.122460
 Thermal correction to Gibbs Free Energy=         0.076376
 Sum of electronic and zero-point Energies=           -420.095716
 Sum of electronic and thermal Energies=              -420.086152
 Sum of electronic and thermal Enthalpies=            -420.085208
 Sum of electronic and thermal Free Energies=         -420.131293

                     E (Thermal)             CV                S
                      KCal/Mol        Cal/Mol-Kelvin    Cal/Mol-Kelvin
 Total                   76.252             32.472             96.993
 Electronic               0.000              0.000              1.377
 Translational            0.889              2.981             40.136
 Rotational               0.889              2.981             28.520
 Vibrational             74.475             26.511             26.960
 Vibration     1          0.594              1.982              5.356
 Vibration     2          0.606              1.941              3.265
 Vibration     3          0.609              1.933              3.115
 Vibration     4          0.621              1.893              2.571
 Vibration     5          0.637              1.842              2.145
 Vibration     6          0.646              1.815              1.980
 Vibration     7          0.651              1.798              1.895
 Vibration     8          0.684              1.698              1.491
 Vibration     9          0.719              1.598              1.219
 Vibration    10          0.787              1.415              0.873
 Vibration    11          0.880              1.196              0.599
 Vibration    12          0.921              1.107              0.514
 Vibration    13          0.967              1.014              0.436

 1\1\GINC-AJ\Freq\UM062X\6-311++G(d,p)\C5H7O3(2)\AAYUSH\23-Jun-2025\0\\
 # freq 6-311++g(d,p) m062x\\Title Card Required\\0,2\O,-1.390533,1.806
 765,0.075306\H,-2.021846,1.849263,0.812635\C,-2.79854,-0.496366,-0.431
 484\H,-3.830347,-0.507786,-0.695211\C,-1.630348,-0.471611,-0.151918\C,
 -0.225967,-0.588666,0.238727\O,0.1184,-0.871975,1.352214\O,0.57736,-0.
 384162,-0.797979\C,1.991681,-0.462494,-0.527046\C,2.487492,0.819377,0.
 110938\H,2.439053,-0.627524,-1.505525\H,2.178175,-1.327756,0.110282\H,
 3.569778,0.767742,0.245073\H,2.253703,1.673762,-0.525493\H,2.023761,0.

 Normal termination of Gaussian 16 at Mon Jun 23 04:22:20 2025.
