 Gaussian 16, Revision A.03,
 Gaussian 16:  ES64L-G16RevA.03 25-Dec-2016

 -------------------
 # freq 6-31+g m062x
 -------------------

 -------------------
 Title Card Required
 -------------------
 Symbolic Z-matrix:
 Charge =  0 Multiplicity = 2

                         Standard orientation:
 ---------------------------------------------------------------------
 Center     Atomic      Atomic             Coordinates (Angstroms)
 Number     Number       Type             X           Y           Z
 ---------------------------------------------------------------------
      1          8           0       -1.415648    1.605040    0.114683
      2          1           0       -2.034067    1.750004    0.844290
      3          6           0       -2.775992   -0.498105   -0.451725
      4          1           0       -3.801322   -0.576801   -0.732634
      5          6           0       -1.616353   -0.189019   -0.129369
      6          6           0       -0.220550   -0.562605    0.221604
      7          8           0        0.107048   -0.937343    1.310313
      8          8           0        0.581331   -0.351051   -0.811577
      9          6           0        1.996661   -0.438883   -0.541153
     10          6           0        2.482645    0.820470    0.148388
     11          1           0        2.446275   -0.562877   -1.524424
     12          1           0        2.184334   -1.328355    0.061121
     13          1           0        3.564470    0.768474    0.285761
     14          1           0        2.246140    1.697652   -0.454869
     15          1           0        2.013865    0.927592    1.126935
 ---------------------------------------------------------------------

 SCF Done:  E(UM062X) =  -419.957304111     A.U. after   21 cycles

 The electronic state is 2-A.
 Alpha  occ. eigenvalues --  -19.70609 -19.67106 -19.66476 -10.73040 -10.63850
 Alpha  occ. eigenvalues --  -10.61419 -10.61235 -10.54167  -1.28238  -1.18887
 Alpha  occ. eigenvalues --   -1.12219  -0.92332  -0.88395  -0.78743  -0.71585
 Alpha  occ. eigenvalues --   -0.64853  -0.62982  -0.59147  -0.57650  -0.53736
 Alpha  occ. eigenvalues --   -0.53436  -0.49754  -0.48114  -0.46333  -0.45139
 Alpha  occ. eigenvalues --   -0.41817  -0.40478  -0.39667  -0.38185  -0.36817
 Alpha  occ. eigenvalues --   -0.31960
 Alpha virt. eigenvalues --   -0.00207   0.01726   0.02251   0.02826   0.03734
 Alpha virt. eigenvalues --    0.04287   0.05594   0.06026   0.07701   0.07828
 Alpha virt. eigenvalues --    0.08871   0.08922   0.09886   0.11560   0.12077

  Beta  occ. eigenvalues --  -19.70607 -19.66495 -19.66158 -10.72981 -10.64017
  Beta  occ. eigenvalues --  -10.61418 -10.60719 -10.54168  -1.28219  -1.18902
  Beta  occ. eigenvalues --   -1.09012  -0.91264  -0.87715  -0.78300  -0.71015
  Beta  occ. eigenvalues --   -0.64639  -0.62122  -0.58903  -0.57383  -0.53658
  Beta  occ. eigenvalues --   -0.51844  -0.49093  -0.46821  -0.45298  -0.41749
  Beta  occ. eigenvalues --   -0.41648  -0.39448  -0.38427  -0.38205  -0.35388
  Beta virt. eigenvalues --   -0.09903   0.01021   0.01630   0.02278   0.02892
  Beta virt. eigenvalues --    0.03819   0.04322   0.05570   0.05892   0.07666
  Beta virt. eigenvalues --    0.07739   0.08741   0.08916   0.10073   0.11465

 Mulliken charges and spin densities:
               1          2
     1  O   -0.500245   0.479269
     2  H    0.412324  -0.014102
     3  C    0.426104   0.837045
     4  H    0.301046  -0.030494
     5  C   -0.423963  -0.333595
     6  C   -0.017325   0.067546
     7  O   -0.345698  -0.007824
     8  O   -0.167547   0.000630
     9  C   -0.255773   0.000764
    10  C   -0.556095   0.000959
    11  H    0.221584  -0.000017
    12  H    0.234892  -0.000167
    13  H    0.204536  -0.000074
    14  H    0.230769   0.000004
    15  H    0.235390   0.000056
 Sum of Mulliken charges =  -0.00000   1.00000

 Dipole moment (field-independent basis, Debye):
    X=             -0.8561    Y=             -0.6571    Z=             -0.5897  Tot=              1.2298
 Quadrupole moment (field-independent basis, Debye-Ang):
   XX=            -29.1428   YY=            -50.4855   ZZ=            -52.1173
   XY=              0.8168   XZ=             -1.8167   YZ=              5.5502

  Exact polarizability:  85.169   7.164  67.814   3.616   2.138  57.019
 Approx polarizability:  87.451  10.639  74.801   6.669  -0.421  71.584

 ******    3 imaginary frequencies (negative Signs) ******

                      1                      2                      3
                      A                      A                      A
 Frequencies --   -676.8045              -462.7833               -72.1084
 Red. masses --     11.9047                 1.0745                 6.6843
 Frc consts  --      3.2129                 0.1356                 0.0205
 IR Inten    --      0.8262               113.0323                 5.6506

                      4                      5                      6
                      A                      A                      A
 Frequencies --     22.2351                45.4055               132.1362
 Red. masses --      2.6365                 3.6474                 2.1679
 Frc consts  --      0.0008                 0.0044                 0.0223
 IR Inten    --      1.4595                 6.2534                 5.6663

                      7                      8                      9
                      A                      A                      A
 Frequencies --    187.1177               215.9231               274.1361
 Red. masses --      1.6242                 7.2882                 2.7148
 Frc consts  --      0.0335                 0.2002                 0.1202
 IR Inten    --      2.3283                 1.1633                 9.3444

                     10                     11                     12
                      A                      A                      A
 Frequencies --    309.1574               418.1480               433.4856
 Red. masses --      3.0278                 1.7114                 2.8621
 Frc consts  --      0.1705                 0.1763                 0.3169
 IR Inten    --     14.8982                16.5367                28.3223

                     13                     14                     15
                      A                      A                      A
 Frequencies --    567.0557               618.4056               716.6350
 Red. masses --      3.5398                 6.1391                 7.6266
 Frc consts  --      0.6706                 1.3832                 2.3077
 IR Inten    --     13.9130                16.1920                39.3842

                     16                     17                     18
                      A                      A                      A
 Frequencies --    722.6284               816.2190               865.9450
 Red. masses --      1.3531                 1.3152                 1.2617
 Frc consts  --      0.4163                 0.5162                 0.5574
 IR Inten    --     50.6845                 8.2074                54.6261

                     19                     20                     21
                      A                      A                      A
 Frequencies --    894.1038               941.6055              1104.8510
 Red. masses --      3.1685                 2.4249                 4.1973
 Frc consts  --      1.4924                 1.2667                 3.0188
 IR Inten    --     22.2352                 7.4228                13.7434

                     22                     23                     24
                      A                      A                      A
 Frequencies --   1158.0005              1228.0570              1321.7275
 Red. masses --      2.0539                 1.7438                 2.1229
 Frc consts  --      1.6228                 1.5495                 2.1851
 IR Inten    --     17.9436                 6.4935               318.3912

                     25                     26                     27
                      A                      A                      A
 Frequencies --   1367.2980              1440.7811              1459.0495
 Red. masses --      1.6781                 1.3743                 1.2485
 Frc consts  --      1.8484                 1.6808                 1.5660
 IR Inten    --    236.1637                25.8044                20.0723

                     28                     29                     30
                      A                      A                      A
 Frequencies --   1526.5250              1536.8036              1545.2941
 Red. masses --      1.0411                 1.0530                 1.0907
 Frc consts  --      1.4294                 1.4652                 1.5345
 IR Inten    --     15.1323                 2.5001                26.1084

                     31                     32                     33
                      A                      A                      A
 Frequencies --   1909.9822              2000.8309              3108.8984
 Red. masses --     11.3167                 7.1269                 1.0351
 Frc consts  --     24.3236                16.8101                 5.8944
 IR Inten    --    297.4749                54.8738                11.6143

                     34                     35                     36
                      A                      A                      A
 Frequencies --   3139.7412              3190.7224              3191.3350
 Red. masses --      1.0602                 1.1037                 1.0992
 Frc consts  --      6.1578                 6.6200                 6.5959
 IR Inten    --     21.0865                 0.2451                19.1483

                     37                     38                     39
                      A                      A                      A
 Frequencies --   3213.0766              3499.6847              3858.1418
 Red. masses --      1.1054                 1.1350                 1.0673
 Frc consts  --      6.7237                 8.1905                 9.3604
 IR Inten    --     16.4639                68.0400                31.0019

 - Thermochemistry -
 -------------------
 Temperature   298.150 Kelvin.  Pressure   1.00000 Atm.
 Atom     1 has atomic number  8 and mass  15.99491

 Molecular mass:   115.03952 amu.
 Principal axes and moments of inertia in atomic units:
                           1         2         3
     Eigenvalues --   482.144581375.495851499.71084
           X            0.99993   0.01162  -0.00008
           Y           -0.01156   0.99585   0.09032
           Z            0.00113  -0.09031   0.99591
 This molecule is an asymmetric top.
 Rotational symmetry number  1.
 Warning -- assumption of classical behavior for rotation
           may cause significant error
 Rotational temperatures (Kelvin)      0.17964     0.06297     0.05775
 Rotational constants (GHZ):           3.74315     1.31207     1.20339
    3 imaginary frequencies ignored.
 Zero-point vibrational energy     292972.3 (Joules/Mol)
                                   70.02206 (Kcal/Mol)
 Warning -- explicit consideration of  11 degrees of freedom as
           vibrations may cause significant error
 Vibrational temperatures:     31.99    65.33   190.11   269.22   310.67
          (Kelvin)            394.42   444.81   601.62   623.69   815.87
                              889.75  1031.08  1039.70  1174.36  1245.90
                             1286.42  1354.76  1589.63  1666.10  1766.90
                             1901.67  1967.24  2072.96  2099.25  2196.33
                             2211.12  2223.33  2748.04  2878.75  4473.01
                             4517.39  4590.74  4591.62  4622.90  5035.27
                             5551.01

 Zero-point correction=                           0.111587 (Hartree/Particle)
 Thermal correction to Energy=                    0.120264
 Thermal correction to Enthalpy=                  0.121208
 Thermal correction to Gibbs Free Energy=         0.075810
 Sum of electronic and zero-point Energies=           -419.845717
 Sum of electronic and thermal Energies=              -419.837040
 Sum of electronic and thermal Enthalpies=            -419.836096
 Sum of electronic and thermal Free Energies=         -419.881494

                     E (Thermal)             CV                S
                      KCal/Mol        Cal/Mol-Kelvin    Cal/Mol-Kelvin
 Total                   75.467             28.892             95.547
 Electronic               0.000              0.000              1.377
 Translational            0.889              2.981             40.136
 Rotational               0.889              2.981             28.388
 Vibrational             73.689             22.930             25.646
 Vibration     1          0.593              1.985              6.424
 Vibration     2          0.595              1.979              5.008
 Vibration     3          0.612              1.921              2.915
 Vibration     4          0.632              1.858              2.256
 Vibration     5          0.645              1.817              1.993
 Vibration     6          0.676              1.721              1.570
 Vibration     7          0.699              1.656              1.367
 Vibration     8          0.781              1.431              0.898
 Vibration     9          0.794              1.397              0.847
 Vibration    10          0.923              1.103              0.510
 Vibration    11          0.978              0.993              0.419

 Normal termination of Gaussian 16 at Fri Jun 20 13:35:24 2025.
