 Gaussian 16, Revision A.03,
 Gaussian 16:  ES64L-G16RevA.03 25-Dec-2016

 --------------------------
 # ccsd(t)/6-311++g(d,p) sp
 --------------------------

 -------------------
 Title Card Required
 -------------------
 Symbolic Z-matrix:
 Charge =  0 Multiplicity = 2

                         Standard orientation:
 ---------------------------------------------------------------------
 Center     Atomic      Atomic             Coordinates (Angstroms)
 Number     Number       Type             X           Y           Z
 ---------------------------------------------------------------------
      1          8           0       -1.418961    1.577940    0.120346
      2          1           0       -2.033977    1.734374    0.849143
      3          6           0       -2.772414   -0.502224   -0.455260
      4          1           0       -3.799043   -0.569625   -0.736481
      5          6           0       -1.614492   -0.146645   -0.124369
      6          6           0       -0.221220   -0.563146    0.218114
      7          8           0        0.106327   -0.946342    1.303997
      8          8           0        0.581688   -0.346435   -0.813587
      9          6           0        1.997121   -0.434891   -0.543378
     10          6           0        2.482019    0.820697    0.153977
     11          1           0        2.447213   -0.552521   -1.527205
     12          1           0        2.185325   -1.327826    0.053531
     13          1           0        3.563823    0.768447    0.291410
     14          1           0        2.245208    1.701410   -0.443993
     15          1           0        2.012938    0.921681    1.133046
 ---------------------------------------------------------------------

 SCF Done:  E(UHF) =  -417.980629941     A.U. after   28 cycles
 E2 =    -0.1263921262D+01 EUMP2 =    -0.41924455120301D+03
 CCSD(T)= -0.41936443835D+03

 The electronic state is 2-A.
 Alpha  occ. eigenvalues --  -20.61060 -20.60244 -20.55723 -11.41165 -11.29854
 Alpha  occ. eigenvalues --  -11.29463 -11.28335 -11.22153  -1.48144  -1.37858
 Alpha  occ. eigenvalues --   -1.35927  -1.08680  -1.04375  -0.92679  -0.83919
 Alpha  occ. eigenvalues --   -0.76601  -0.73283  -0.69293  -0.68919  -0.64801
 Alpha  occ. eigenvalues --   -0.62668  -0.61702  -0.57540  -0.55009  -0.53795
 Alpha  occ. eigenvalues --   -0.51862  -0.50163  -0.48056  -0.45939  -0.43864
 Alpha  occ. eigenvalues --   -0.41950
 Alpha virt. eigenvalues --    0.03686   0.04632   0.05739   0.06839   0.07017
 Alpha virt. eigenvalues --    0.08739   0.09760   0.10677   0.11218   0.12187
 Alpha virt. eigenvalues --    0.13274   0.13940   0.14623   0.15786   0.16704

  Beta  occ. eigenvalues --  -20.61061 -20.57677 -20.56022 -11.40809 -11.32086
  Beta  occ. eigenvalues --  -11.29466 -11.25338 -11.22155  -1.48246  -1.38330
  Beta  occ. eigenvalues --   -1.27968  -1.07351  -1.03162  -0.91181  -0.82593
  Beta  occ. eigenvalues --   -0.76230  -0.71766  -0.69573  -0.68112  -0.63444
  Beta  occ. eigenvalues --   -0.62690  -0.57777  -0.55894  -0.53916  -0.50225
  Beta  occ. eigenvalues --   -0.49842  -0.49025  -0.47521  -0.46546  -0.42214
  Beta virt. eigenvalues --    0.03795   0.04148   0.04640   0.06472   0.07009
  Beta virt. eigenvalues --    0.07487   0.08829   0.09731   0.10560   0.11870
  Beta virt. eigenvalues --    0.12753   0.13542   0.14464   0.15869   0.16091

 Mulliken charges and spin densities:
               1          2
     1  O   -0.242486   0.577324
     2  H    0.256487  -0.020530
     3  C   -0.117248   1.571134
     4  H    0.236718  -0.105973
     5  C    0.290548  -1.138232
     6  C   -0.345718   0.170934
     7  O   -0.285626  -0.059052
     8  O   -0.040183   0.003612
     9  C   -0.171205   0.001039
    10  C   -0.385206   0.000379
    11  H    0.164704   0.000084
    12  H    0.172960   0.000268
    13  H    0.136689  -0.000339
    14  H    0.152362  -0.000553
    15  H    0.177205  -0.000095
 Sum of Mulliken charges =  -0.00000   1.00000

 Dipole moment (field-independent basis, Debye):
    X=             -0.9093    Y=             -0.1336    Z=             -0.8625  Tot=              1.2604
 Quadrupole moment (field-independent basis, Debye-Ang):
   XX=            -30.1564   YY=            -49.4871   ZZ=            -51.3645
   XY=              0.1396   XZ=             -1.7851   YZ=              5.3894

 P3-0=-419.2913226\MP4SDQ=-419.3019231\CCSD=-419.3092859\CCSD(T)=-419.3
 Normal termination of Gaussian 16 at Thu Aug 21 23:10:26 2025.
