 Gaussian 16, Revision A.03,
 Gaussian 16:  ES64L-G16RevA.03 25-Dec-2016

 --------------------------
 # freq 6-311++g(d,p) m062x
 --------------------------

 -------------------
 Title Card Required
 -------------------
 Symbolic Z-matrix:
 Charge =  0 Multiplicity = 2

                         Standard orientation:
 ---------------------------------------------------------------------
 Center     Atomic      Atomic             Coordinates (Angstroms)
 Number     Number       Type             X           Y           Z
 ---------------------------------------------------------------------
      1          8           0       -1.397321    1.759779    0.084724
      2          1           0       -2.031256    1.831626    0.817009
      3          6           0       -2.793003   -0.492677   -0.435525
      4          1           0       -3.822955   -0.532047   -0.703803
      5          6           0       -1.626916   -0.416413   -0.149079
      6          6           0       -0.224167   -0.576028    0.235671
      7          8           0        0.115120   -0.887956    1.342596
      8          8           0        0.579488   -0.374706   -0.801005
      9          6           0        1.993404   -0.457668   -0.529995
     10          6           0        2.486357    0.819591    0.119689
     11          1           0        2.441702   -0.613734   -1.509474
     12          1           0        2.179450   -1.328530    0.099690
     13          1           0        3.568426    0.769105    0.255695
     14          1           0        2.251839    1.678807   -0.509931
     15          1           0        2.020440    0.957016    1.095727
 ---------------------------------------------------------------------

 SCF Done:  E(UM062X) =  -420.205730299     A.U. after   24 cycles

 The electronic state is 2-A.
 Alpha  occ. eigenvalues --  -19.68006 -19.67238 -19.62903 -10.70522 -10.60301
 Alpha  occ. eigenvalues --  -10.57992 -10.57641 -10.53353  -1.25517  -1.16214
 Alpha  occ. eigenvalues --   -1.13086  -0.90641  -0.87182  -0.77955  -0.70500
 Alpha  occ. eigenvalues --   -0.64316  -0.61692  -0.58387  -0.57047  -0.54612
 Alpha  occ. eigenvalues --   -0.53242  -0.50463  -0.48604  -0.46172  -0.45027
 Alpha  occ. eigenvalues --   -0.42168  -0.41700  -0.39458  -0.38254  -0.36429
 Alpha  occ. eigenvalues --   -0.35601
 Alpha virt. eigenvalues --   -0.00977  -0.00202   0.00515   0.01473   0.02525
 Alpha virt. eigenvalues --    0.02794   0.03676   0.04412   0.05629   0.06175
 Alpha virt. eigenvalues --    0.07150   0.07679   0.08464   0.09813   0.10750

  Beta  occ. eigenvalues --  -19.68010 -19.65692 -19.62918 -10.70507 -10.60301
  Beta  occ. eigenvalues --  -10.57983 -10.57527 -10.53354  -1.25524  -1.16247
  Beta  occ. eigenvalues --   -1.05894  -0.90316  -0.86894  -0.77822  -0.70367
  Beta  occ. eigenvalues --   -0.64263  -0.61396  -0.58344  -0.56547  -0.53223
  Beta  occ. eigenvalues --   -0.51987  -0.49030  -0.46498  -0.45066  -0.41698
  Beta  occ. eigenvalues --   -0.39418  -0.39028  -0.38363  -0.38069  -0.36049
  Beta virt. eigenvalues --   -0.09075  -0.00379   0.00030   0.00560   0.01768
  Beta virt. eigenvalues --    0.02633   0.02824   0.03702   0.04504   0.05700
  Beta virt. eigenvalues --    0.06195   0.07243   0.07695   0.08491   0.09906

 Mulliken charges and spin densities:
               1          2
     1  O   -0.222439   0.895502
     2  H    0.234991  -0.020080
     3  C   -1.596317   0.170407
     4  H    0.179964  -0.009461
     5  C    1.580404  -0.087322
     6  C   -0.270168   0.057673
     7  O   -0.198179  -0.007052
     8  O    0.061172   0.000281
     9  C   -0.267639  -0.000013
    10  C   -0.416468   0.000792
    11  H    0.194961   0.000126
    12  H    0.189421  -0.000002
    13  H    0.170300   0.000060
    14  H    0.170845  -0.000150
    15  H    0.189150  -0.000761
 Sum of Mulliken charges =  -0.00000   1.00000

 Dipole moment (field-independent basis, Debye):
    X=             -0.6359    Y=              0.1859    Z=             -0.6261  Tot=              0.9115
 Quadrupole moment (field-independent basis, Debye-Ang):
   XX=            -30.3071   YY=            -48.5816   ZZ=            -51.2876
   XY=             -0.5326   XZ=             -1.9085   YZ=              5.1030

  Exact polarizability:  91.547   5.245  65.714   4.340   1.216  59.327
 Approx polarizability:  99.201   4.534  70.249   7.404  -1.810  76.674

 ******    1 imaginary frequencies (negative Signs) ******

                      1                      2                      3
                      A                      A                      A
 Frequencies --    -28.6019                34.5146               112.5712
 Red. masses --      4.8141                 4.1940                 3.8339
 Frc consts  --      0.0023                 0.0029                 0.0286
 IR Inten    --      7.3419                 2.3905                 1.2611

                      4                      5                      6
                      A                      A                      A
 Frequencies --    124.5659               158.7374               171.9455
 Red. masses --      4.6374                 2.7014                 9.4933
 Frc consts  --      0.0424                 0.0401                 0.1654
 IR Inten    --     11.4011                11.0761                 6.1464

                      7                      8                      9
                      A                      A                      A
 Frequencies --    207.0495               225.7752               257.4734
 Red. masses --      1.4936                 1.3654                 2.1952
 Frc consts  --      0.0377                 0.0410                 0.0857
 IR Inten    --     42.9445                 2.8373                28.1507

                     10                     11                     12
                      A                      A                      A
 Frequencies --    336.9326               427.0517               555.9317
 Red. masses --      2.9255                 3.7848                 2.6392
 Frc consts  --      0.1957                 0.4067                 0.4806
 IR Inten    --      9.9634                 3.7825                23.2259

                     13                     14                     15
                      A                      A                      A
 Frequencies --    592.5388               609.7774               725.0645
 Red. masses --      1.3354                 5.3627                 1.3270
 Frc consts  --      0.2762                 1.1748                 0.4110
 IR Inten    --     75.8881                 8.8158                37.1498

                     16                     17                     18
                      A                      A                      A
 Frequencies --    750.5870               777.4119               802.9989
 Red. masses --      1.3299                 7.4164                 1.2103
 Frc consts  --      0.4414                 2.6408                 0.4598
 IR Inten    --     21.1382                54.6502                 5.4347

                     19                     20                     21
                      A                      A                      A
 Frequencies --    897.6664               929.4117              1076.7943
 Red. masses --      3.2268                 2.7608                 4.1304
 Frc consts  --      1.5320                 1.4051                 2.8217
 IR Inten    --     15.7084                 5.6336                22.2703

                     22                     23                     24
                      A                      A                      A
 Frequencies --   1129.8640              1204.5750              1292.7947
 Red. masses --      2.0928                 1.7708                 3.5851
 Frc consts  --      1.5741                 1.5139                 3.5303
 IR Inten    --     22.5397                 5.3422               539.1668

                     25                     26                     27
                      A                      A                      A
 Frequencies --   1347.1833              1402.1237              1431.6873
 Red. masses --      1.2603                 1.2855                 1.3864
 Frc consts  --      1.3476                 1.4890                 1.6743
 IR Inten    --    105.8733                29.3803                12.1958

                     28                     29                     30
                      A                      A                      A
 Frequencies --   1490.9926              1502.5007              1515.0737
 Red. masses --      1.0401                 1.0556                 1.0928
 Frc consts  --      1.3623                 1.4040                 1.4779
 IR Inten    --     10.8228                 1.0248                21.1931

                     31                     32                     33
                      A                      A                      A
 Frequencies --   1842.8009              2228.3277              3075.7101
 Red. masses --     11.9971                 5.9028                 1.0353
 Frc consts  --     24.0039                17.2689                 5.7703
 IR Inten    --    337.4179                65.5597                 9.8303

                     34                     35                     36
                      A                      A                      A
 Frequencies --   3106.7269              3152.1380              3154.2232
 Red. masses --      1.0607                 1.1021                 1.1043
 Frc consts  --      6.0320                 6.4519                 6.4735
 IR Inten    --     19.9074                12.7157                 4.5891

                     37                     38                     39
                      A                      A                      A
 Frequencies --   3174.7527              3486.1586              3802.4292
 Red. masses --      1.1072                 1.1647                 1.0673
 Frc consts  --      6.5753                 8.3396                 9.0919
 IR Inten    --     14.9698                68.3972                38.3561

 - Thermochemistry -
 -------------------
 Temperature   298.150 Kelvin.  Pressure   1.00000 Atm.
 Atom     1 has atomic number  8 and mass  15.99491

 Molecular mass:   115.03952 amu.
 Principal axes and moments of inertia in atomic units:
                           1         2         3
     Eigenvalues --   517.833461381.347201536.60843
           X            0.99994   0.01046  -0.00108
           Y           -0.01036   0.99753   0.06943
           Z            0.00181  -0.06941   0.99759
 This molecule is an asymmetric top.
 Rotational symmetry number  1.
 Warning -- assumption of classical behavior for rotation
           may cause significant error
 Rotational temperatures (Kelvin)      0.16726     0.06270     0.05637
 Rotational constants (GHZ):           3.48518     1.30651     1.17450
    1 imaginary frequencies ignored.
 Zero-point vibrational energy     293772.1 (Joules/Mol)
                                   70.21322 (Kcal/Mol)
 Warning -- explicit consideration of  13 degrees of freedom as
           vibrations may cause significant error
 Vibrational temperatures:     49.66   161.96   179.22   228.39   247.39
          (Kelvin)            297.90   324.84   370.45   484.77   614.43
                              799.86   852.53   877.33  1043.21  1079.93
                             1118.52  1155.34  1291.54  1337.22  1549.27
                             1625.62  1733.11  1860.04  1938.30  2017.34
                             2059.88  2145.21  2161.76  2179.85  2651.38
                             3206.07  4425.26  4469.89  4535.22  4538.22
                             4567.76  5015.80  5470.85

 Zero-point correction=                           0.111892 (Hartree/Particle)
 Thermal correction to Energy=                    0.121517
 Thermal correction to Enthalpy=                  0.122461
 Thermal correction to Gibbs Free Energy=         0.076146
 Sum of electronic and zero-point Energies=           -420.093838
 Sum of electronic and thermal Energies=              -420.084214
 Sum of electronic and thermal Enthalpies=            -420.083269
 Sum of electronic and thermal Free Energies=         -420.129585

                     E (Thermal)             CV                S
                      KCal/Mol        Cal/Mol-Kelvin    Cal/Mol-Kelvin
 Total                   76.253             32.464             97.479
 Electronic               0.000              0.000              1.377
 Translational            0.889              2.981             40.136
 Rotational               0.889              2.981             28.488
 Vibrational             74.475             26.502             27.478
 Vibration     1          0.594              1.983              5.551
 Vibration     2          0.607              1.939              3.224
 Vibration     3          0.610              1.928              3.028
 Vibration     4          0.621              1.893              2.565
 Vibration     5          0.626              1.877              2.414
 Vibration     6          0.641              1.830              2.070
 Vibration     7          0.650              1.802              1.912
 Vibration     8          0.667              1.750              1.679
 Vibration     9          0.718              1.602              1.227
 Vibration    10          0.789              1.411              0.868
 Vibration    11          0.911              1.127              0.532
 Vibration    12          0.950              1.048              0.463
 Vibration    13          0.969              1.011              0.433

 1\1\GINC-AJ\Freq\UM062X\6-311++G(d,p)\C5H7O3(2)\AAYUSH\16-Aug-2025\0\\
 # freq 6-311++g(d,p) m062x\\Title Card Required\\0,2\O,-1.342897,1.780
 25,0.108472\H,-1.97777,1.839232,0.841094\C,-2.734895,-0.465263,-0.4502
 43\H,-3.764484,-0.501622,-0.720334\C,-1.569243,-0.392127,-0.161222\C,-
 0.166719,-0.556131,0.222501\O,0.171725,-0.885696,1.324562\O,0.637848,-
 0.336764,-0.809798\C,2.051564,-0.422246,-0.53853\C,2.542022,0.844861,0
 .132569\H,2.501199,-0.561636,-1.51991\H,2.238081,-1.303056,0.077019\H,
 3.624002,0.793615,0.268995\H,2.30705,1.713961,-0.483163\H,2.074798,0.9

 Normal termination of Gaussian 16 at Sat Aug 16 16:54:09 2025.
