 Gaussian 16, Revision A.03,
 Gaussian 16:  ES64L-G16RevA.03 25-Dec-2016

 --------------------------
 # freq 6-311++g(d,p) m062x
 --------------------------

 -------------------
 Title Card Required
 -------------------
 Symbolic Z-matrix:
 Charge =  0 Multiplicity = 2

                         Standard orientation:
 ---------------------------------------------------------------------
 Center     Atomic      Atomic             Coordinates (Angstroms)
 Number     Number       Type             X           Y           Z
 ---------------------------------------------------------------------
      1          8           0       -1.415648    1.605040    0.114683
      2          1           0       -2.034067    1.750004    0.844290
      3          6           0       -2.775992   -0.498105   -0.451725
      4          1           0       -3.801322   -0.576801   -0.732634
      5          6           0       -1.616353   -0.189019   -0.129369
      6          6           0       -0.220550   -0.562605    0.221604
      7          8           0        0.107048   -0.937343    1.310313
      8          8           0        0.581331   -0.351051   -0.811577
      9          6           0        1.996661   -0.438883   -0.541153
     10          6           0        2.482645    0.820470    0.148388
     11          1           0        2.446275   -0.562877   -1.524424
     12          1           0        2.184334   -1.328355    0.061121
     13          1           0        3.564470    0.768474    0.285761
     14          1           0        2.246140    1.697652   -0.454869
     15          1           0        2.013865    0.927592    1.126935
 ---------------------------------------------------------------------

 SCF Done:  E(UM062X) =  -420.208304541     A.U. after   21 cycles

 The electronic state is 2-A.
 Alpha  occ. eigenvalues --  -19.68239 -19.64332 -19.63246 -10.70610 -10.62299
 Alpha  occ. eigenvalues --  -10.60424 -10.59641 -10.53369  -1.25822  -1.16538
 Alpha  occ. eigenvalues --   -1.10797  -0.91515  -0.87719  -0.78263  -0.70960
 Alpha  occ. eigenvalues --   -0.64704  -0.62467  -0.58799  -0.57618  -0.53358
 Alpha  occ. eigenvalues --   -0.53156  -0.49692  -0.48182  -0.46022  -0.45123
 Alpha  occ. eigenvalues --   -0.41768  -0.40347  -0.39667  -0.38429  -0.36613
 Alpha  occ. eigenvalues --   -0.32011
 Alpha virt. eigenvalues --   -0.00278   0.00152   0.00494   0.01437   0.02396
 Alpha virt. eigenvalues --    0.02691   0.03071   0.04263   0.05745   0.06127
 Alpha virt. eigenvalues --    0.07055   0.07635   0.08352   0.09938   0.10493

  Beta  occ. eigenvalues --  -19.68238 -19.63439 -19.63261 -10.70561 -10.62448
  Beta  occ. eigenvalues --  -10.60423 -10.59153 -10.53370  -1.25802  -1.16560
  Beta  occ. eigenvalues --   -1.07601  -0.90368  -0.86884  -0.77724  -0.70316
  Beta  occ. eigenvalues --   -0.64488  -0.61712  -0.58691  -0.57236  -0.53137
  Beta  occ. eigenvalues --   -0.51814  -0.48871  -0.46817  -0.45223  -0.41734
  Beta  occ. eigenvalues --   -0.41549  -0.39451  -0.38497  -0.38246  -0.35234
  Beta virt. eigenvalues --   -0.09665  -0.00186   0.00466   0.01307   0.01894
  Beta virt. eigenvalues --    0.02413   0.02767   0.03250   0.04301   0.05741
  Beta virt. eigenvalues --    0.06059   0.07163   0.07492   0.08421   0.09913

 Mulliken charges and spin densities:
               1          2
     1  O   -0.282765   0.460968
     2  H    0.242474  -0.006173
     3  C   -0.091592   0.835985
     4  H    0.218181  -0.027486
     5  C    0.308930  -0.318575
     6  C   -0.456494   0.058532
     7  O   -0.205303  -0.007489
     8  O    0.049912   0.001924
     9  C   -0.280005   0.000944
    10  C   -0.417905   0.002729
    11  H    0.195586   0.000296
    12  H    0.188421  -0.000100
    13  H    0.166832  -0.000082
    14  H    0.174162  -0.000472
    15  H    0.189564  -0.001000
 Sum of Mulliken charges =  -0.00000   1.00000

 Dipole moment (field-independent basis, Debye):
    X=             -0.7350    Y=             -0.6344    Z=             -0.8383  Tot=              1.2828
 Quadrupole moment (field-independent basis, Debye-Ang):
   XX=            -29.7374   YY=            -50.0098   ZZ=            -50.9690
   XY=              1.1090   XZ=             -1.4242   YZ=              4.9748

  Exact polarizability:  89.183   6.926  70.672   4.037   2.712  59.405
 Approx polarizability:  93.311   9.490  82.742   6.387   0.798  76.883

 ******    1 imaginary frequencies (negative Signs) ******

                      1                      2                      3
                      A                      A                      A
 Frequencies --   -664.6642                79.4761                89.8529
 Red. masses --     11.8935                 3.1670                 4.5517
 Frc consts  --      3.0957                 0.0118                 0.0217
 IR Inten    --      0.9230                 1.6458                 6.6499

                      4                      5                      6
                      A                      A                      A
 Frequencies --    116.9262               176.8167               201.6556
 Red. masses --      3.0787                 1.8638                 1.3174
 Frc consts  --      0.0248                 0.0343                 0.0316
 IR Inten    --      1.5699                29.0188                55.1966

                      7                      8                      9
                      A                      A                      A
 Frequencies --    231.8062               240.6200               290.0734
 Red. masses --      2.7198                 2.7401                 2.2596
 Frc consts  --      0.0861                 0.0935                 0.1120
 IR Inten    --      0.5555                 3.4352                11.2832

                     10                     11                     12
                      A                      A                      A
 Frequencies --    339.0550               430.1540               445.6807
 Red. masses --      3.1099                 1.8291                 2.6230
 Frc consts  --      0.2106                 0.1994                 0.3070
 IR Inten    --     10.5926                14.1016                24.2395

                     13                     14                     15
                      A                      A                      A
 Frequencies --    575.7602               618.4531               703.1212
 Red. masses --      3.9643                 6.1952                 1.3541
 Frc consts  --      0.7743                 1.3961                 0.3944
 IR Inten    --      5.5143                13.1892                40.5578

                     16                     17                     18
                      A                      A                      A
 Frequencies --    771.6599               802.0979               894.7396
 Red. masses --     10.2468                 1.2120                 3.2146
 Frc consts  --      3.5949                 0.4594                 1.5162
 IR Inten    --     25.9704                 4.9692                16.9515

                     19                     20                     21
                      A                      A                      A
 Frequencies --    918.5743               973.0882              1070.2462
 Red. masses --      2.5492                 1.1816                 3.9918
 Frc consts  --      1.2673                 0.6592                 2.6939
 IR Inten    --      3.1112                56.6308                30.4018

                     22                     23                     24
                      A                      A                      A
 Frequencies --   1129.2555              1203.3668              1283.2696
 Red. masses --      2.0793                 1.7717                 3.8836
 Frc consts  --      1.5622                 1.5116                 3.7681
 IR Inten    --     21.4818                 7.9954               518.4641

                     25                     26                     27
                      A                      A                      A
 Frequencies --   1344.6481              1402.2033              1430.7387
 Red. masses --      1.2390                 1.2811                 1.3682
 Frc consts  --      1.3198                 1.4841                 1.6502
 IR Inten    --     85.7174                21.3115                12.8295

                     28                     29                     30
                      A                      A                      A
 Frequencies --   1491.4997              1501.9235              1514.6281
 Red. masses --      1.0400                 1.0537                 1.0934
 Frc consts  --      1.3631                 1.4005                 1.4779
 IR Inten    --     10.7939                 1.0213                19.8646

                     31                     32                     33
                      A                      A                      A
 Frequencies --   1845.7911              1944.4434              3076.8201
 Red. masses --     11.2746                 7.2558                 1.0353
 Frc consts  --     22.6317                16.1631                 5.7747
 IR Inten    --    320.5068                48.2654                 8.8982

                     34                     35                     36
                      A                      A                      A
 Frequencies --   3109.3890              3154.2204              3155.4244
 Red. masses --      1.0608                 1.1011                 1.1052
 Frc consts  --      6.0429                 6.4543                 6.4834
 IR Inten    --     19.6580                16.2685                 0.1142

                     37                     38                     39
                      A                      A                      A
 Frequencies --   3176.9256              3455.9569              3842.9413
 Red. masses --      1.1074                 1.1307                 1.0677
 Frc consts  --      6.5855                 7.9564                 9.2903
 IR Inten    --     14.2743                80.9159                61.7429

 - Thermochemistry -
 -------------------
 Temperature   298.150 Kelvin.  Pressure   1.00000 Atm.
 Atom     1 has atomic number  8 and mass  15.99491

 Molecular mass:   115.03952 amu.
 Principal axes and moments of inertia in atomic units:
                           1         2         3
     Eigenvalues --   482.144581375.495851499.71084
           X            0.99993   0.01162  -0.00008
           Y           -0.01156   0.99585   0.09032
           Z            0.00113  -0.09031   0.99591
 This molecule is an asymmetric top.
 Rotational symmetry number  1.
 Warning -- assumption of classical behavior for rotation
           may cause significant error
 Rotational temperatures (Kelvin)      0.17964     0.06297     0.05775
 Rotational constants (GHZ):           3.74315     1.31207     1.20339
    1 imaginary frequencies ignored.
 Zero-point vibrational energy     293284.3 (Joules/Mol)
                                   70.09663 (Kcal/Mol)
 Warning -- explicit consideration of  13 degrees of freedom as
           vibrations may cause significant error
 Vibrational temperatures:    114.35   129.28   168.23   254.40   290.14
          (Kelvin)            333.52   346.20   417.35   487.82   618.90
                              641.24   828.39   889.82  1011.63  1110.25
                             1154.04  1287.33  1321.62  1400.06  1539.85
                             1624.75  1731.38  1846.34  1934.65  2017.46
                             2058.51  2145.94  2160.93  2179.21  2655.68
                             2797.62  4426.86  4473.72  4538.22  4539.95
                             4570.89  4972.35  5529.14

 Zero-point correction=                           0.111706 (Hartree/Particle)
 Thermal correction to Energy=                    0.121158
 Thermal correction to Enthalpy=                  0.122103
 Thermal correction to Gibbs Free Energy=         0.076757
 Sum of electronic and zero-point Energies=           -420.096598
 Sum of electronic and thermal Energies=              -420.087146
 Sum of electronic and thermal Enthalpies=            -420.086202
 Sum of electronic and thermal Free Energies=         -420.131548

                     E (Thermal)             CV                S
                      KCal/Mol        Cal/Mol-Kelvin    Cal/Mol-Kelvin
 Total                   76.028             32.304             95.439
 Electronic               0.000              0.000              1.377
 Translational            0.889              2.981             40.136
 Rotational               0.889              2.981             28.388
 Vibrational             74.251             26.343             25.537
 Vibration     1          0.600              1.963              3.904
 Vibration     2          0.602              1.956              3.663
 Vibration     3          0.608              1.935              3.151
 Vibration     4          0.628              1.871              2.362
 Vibration     5          0.639              1.838              2.118
 Vibration     6          0.653              1.792              1.865
 Vibration     7          0.658              1.778              1.798
 Vibration     8          0.686              1.692              1.474
 Vibration     9          0.719              1.597              1.217
 Vibration    10          0.791              1.405              0.858
 Vibration    11          0.805              1.370              0.809
 Vibration    12          0.932              1.084              0.493
 Vibration    13          0.978              0.993              0.419

 1\1\GINC-AJ\Freq\UM062X\6-311++G(d,p)\C5H7O3(2)\AAYUSH\16-Aug-2025\0\\
 # freq 6-311++g(d,p) m062x\\Title Card Required\\0,2\O,-1.357183,1.630
 676,0.088938\H,-1.975089,1.786482,0.816743\C,-2.719567,-0.479153,-0.44
 6884\H,-3.745113,-0.560969,-0.72611\C,-1.5595,-0.166495,-0.129552\C,-0
 .163817,-0.536231,0.225946\O,0.164057,-0.895772,1.319685\O,0.637682,-0
 .340011,-0.810552\C,2.053084,-0.42518,-0.539655\C,2.540479,0.843415,0.
 131709\H,2.502067,-0.563473,-1.521306\H,2.240347,-1.306181,0.075068\H,
 3.622334,0.792471,0.269236\H,2.304373,1.712155,-0.483797\H,2.072314,0.

 Normal termination of Gaussian 16 at Sat Aug 16 16:28:03 2025.
