 Gaussian 16, Revision A.03,
 Gaussian 16:  ES64L-G16RevA.03 25-Dec-2016

 --------------------------
 # ccsd(t)/6-311++g(d,p) sp
 --------------------------

 -------------------
 Title Card Required
 -------------------
 Symbolic Z-matrix:
 Charge =  0 Multiplicity = 2

                         Standard orientation:
 ---------------------------------------------------------------------
 Center     Atomic      Atomic             Coordinates (Angstroms)
 Number     Number       Type             X           Y           Z
 ---------------------------------------------------------------------
      1          8           0       -1.406856    1.686632    0.098244
      2          1           0       -2.035169    1.799293    0.828691
      3          6           0       -2.783513   -0.491356   -0.442275
      4          1           0       -3.809864   -0.565948   -0.717986
      5          6           0       -1.622093   -0.316488   -0.142075
      6          6           0       -0.221743   -0.564111    0.230322
      7          8           0        0.110224   -0.911451    1.327749
      8          8           0        0.580882   -0.363667   -0.805785
      9          6           0        1.995253   -0.449461   -0.534713
     10          6           0        2.484280    0.820272    0.133009
     11          1           0        2.444354   -0.590967   -1.515941
     12          1           0        2.182076   -1.328785    0.082676
     13          1           0        3.566182    0.769746    0.270248
     14          1           0        2.248737    1.687456   -0.485080
     15          1           0        2.016582    0.943957    1.110120
 ---------------------------------------------------------------------

 SCF Done:  E(UHF) =  -417.980470950     A.U. after   37 cycles
 E2 =    -0.1257077763D+01 EUMP2 =    -0.41923754871284D+03
 CCSD(T)= -0.41935357793D+03

 The electronic state is 2-A.
 Alpha  occ. eigenvalues --  -20.62429 -20.60948 -20.55485 -11.41324 -11.29419
 Alpha  occ. eigenvalues --  -11.26996 -11.26245 -11.22190  -1.48002  -1.38235
 Alpha  occ. eigenvalues --   -1.37637  -1.07891  -1.04179  -0.92535  -0.83605
 Alpha  occ. eigenvalues --   -0.76311  -0.73081  -0.69256  -0.68843  -0.66033
 Alpha  occ. eigenvalues --   -0.64469  -0.62728  -0.57732  -0.55834  -0.53818
 Alpha  occ. eigenvalues --   -0.53115  -0.50172  -0.47676  -0.45738  -0.43085
 Alpha  occ. eigenvalues --   -0.42236
 Alpha virt. eigenvalues --    0.03709   0.04612   0.05637   0.06822   0.07010
 Alpha virt. eigenvalues --    0.08745   0.09630   0.10432   0.11098   0.11655
 Alpha virt. eigenvalues --    0.13364   0.13906   0.14736   0.15645   0.16802

  Beta  occ. eigenvalues --  -20.60954 -20.58595 -20.55876 -11.40986 -11.29419
  Beta  occ. eigenvalues --  -11.28014 -11.24938 -11.22192  -1.48156  -1.38275
  Beta  occ. eigenvalues --   -1.24506  -1.07771  -1.03436  -0.91612  -0.83064
  Beta  occ. eigenvalues --   -0.76124  -0.72066  -0.69510  -0.67372  -0.63228
  Beta  occ. eigenvalues --   -0.62845  -0.58095  -0.55514  -0.53901  -0.50251
  Beta  occ. eigenvalues --   -0.50138  -0.48428  -0.46914  -0.44004  -0.42300
  Beta virt. eigenvalues --    0.03776   0.04487   0.04763   0.06645   0.07009
  Beta virt. eigenvalues --    0.08106   0.08894   0.09740   0.10755   0.11766
  Beta virt. eigenvalues --    0.12049   0.13556   0.14426   0.15420   0.15902

 Mulliken charges and spin densities:
               1          2
     1  O   -0.167451   0.904308
     2  H    0.242990  -0.034153
     3  C   -0.996327   1.011423
     4  H    0.209999  -0.075016
     5  C    1.147976  -0.922017
     6  C   -0.385833   0.191104
     7  O   -0.279505  -0.080275
     8  O   -0.030012   0.002332
     9  C   -0.159700   0.001534
    10  C   -0.387478   0.001498
    11  H    0.165804   0.000061
    12  H    0.172465   0.000269
    13  H    0.138790  -0.000201
    14  H    0.149891  -0.000595
    15  H    0.178389  -0.000273
 Sum of Mulliken charges =  -0.00000   1.00000

 Dipole moment (field-independent basis, Debye):
    X=             -0.7818    Y=              0.5242    Z=             -0.7097  Tot=              1.1789
 Quadrupole moment (field-independent basis, Debye-Ang):
   XX=            -30.4377   YY=            -48.1402   ZZ=            -51.6612
   XY=             -0.9991   XZ=             -2.0524   YZ=              5.4970

 MP3-0=-419.2800256\MP4SDQ=-419.2941388\CCSD=-419.2995698\CCSD(T)=-419.
 Normal termination of Gaussian 16 at Sun Aug  3 05:45:42 2025.
