 Gaussian 16, Revision A.03,
 Gaussian 16:  ES64L-G16RevA.03 25-Dec-2016

 --------------------------
 # ccsd(t)/6-311++g(d,p) sp
 --------------------------

 -------------------
 Title Card Required
 -------------------
 Symbolic Z-matrix:
 Charge =  0 Multiplicity = 2

                         Standard orientation:
 ---------------------------------------------------------------------
 Center     Atomic      Atomic             Coordinates (Angstroms)
 Number     Number       Type             X           Y           Z
 ---------------------------------------------------------------------
      1          8           0       -1.422804    1.550353    0.126173
      2          1           0       -2.034630    1.719721    0.853623
      3          6           0       -2.767312   -0.507033   -0.458975
      4          1           0       -3.796192   -0.555680   -0.739496
      5          6           0       -1.612948   -0.105031   -0.119161
      6          6           0       -0.222484   -0.563601    0.214335
      7          8           0        0.105624   -0.955837    1.297133
      8          8           0        0.582191   -0.341472   -0.815674
      9          6           0        1.997635   -0.430484   -0.545584
     10          6           0        2.481239    0.821146    0.160063
     11          1           0        2.448424   -0.541281   -1.529892
     12          1           0        2.186587   -1.326982    0.045661
     13          1           0        3.563021    0.768854    0.297651
     14          1           0        2.244102    1.705554   -0.432333
     15          1           0        2.011817    0.915487    1.139658
 ---------------------------------------------------------------------

 SCF Done:  E(UHF) =  -417.987199045     A.U. after   28 cycles
 E2 =    -0.1268562218D+01 EUMP2 =    -0.41925576126225D+03
 CCSD(T)= -0.41937139893D+03

 The electronic state is 2-A.
 Alpha  occ. eigenvalues --  -20.61080 -20.59602 -20.55821 -11.41066 -11.31076
 Alpha  occ. eigenvalues --  -11.29467 -11.28623 -11.22147  -1.48154  -1.37905
 Alpha  occ. eigenvalues --   -1.35367  -1.08855  -1.04379  -0.92693  -0.84038
 Alpha  occ. eigenvalues --   -0.76650  -0.73208  -0.69323  -0.69101  -0.64739
 Alpha  occ. eigenvalues --   -0.62622  -0.60955  -0.57491  -0.54960  -0.53793
 Alpha  occ. eigenvalues --   -0.51463  -0.50144  -0.48112  -0.46069  -0.43905
 Alpha  occ. eigenvalues --   -0.41641
 Alpha virt. eigenvalues --    0.03697   0.04635   0.05748   0.06830   0.07015
 Alpha virt. eigenvalues --    0.08740   0.09784   0.10708   0.11199   0.12394
 Alpha virt. eigenvalues --    0.13248   0.13995   0.14654   0.15804   0.16640

  Beta  occ. eigenvalues --  -20.61081 -20.57667 -20.56051 -11.40738 -11.33181
  Beta  occ. eigenvalues --  -11.29470 -11.25441 -11.22148  -1.48226  -1.38271
  Beta  occ. eigenvalues --   -1.29695  -1.07101  -1.03016  -0.91076  -0.82487
  Beta  occ. eigenvalues --   -0.76242  -0.71548  -0.69562  -0.68404  -0.63798
  Beta  occ. eigenvalues --   -0.62639  -0.57660  -0.56144  -0.53904  -0.50657
  Beta  occ. eigenvalues --   -0.50150  -0.49782  -0.47890  -0.46545  -0.41994
  Beta virt. eigenvalues --    0.03811   0.04107   0.04641   0.06426   0.07002
  Beta virt. eigenvalues --    0.07378   0.08811   0.09732   0.10527   0.11873
  Beta virt. eigenvalues --    0.13004   0.13532   0.14454   0.15929   0.16135

 Mulliken charges and spin densities:
               1          2
     1  O   -0.275108   0.425818
     2  H    0.260984  -0.014820
     3  C   -0.047008   1.652213
     4  H    0.242545  -0.105248
     5  C    0.176946  -1.078051
     6  C   -0.278287   0.159944
     7  O   -0.285953  -0.043541
     8  O   -0.041241   0.003371
     9  C   -0.172320   0.001023
    10  C   -0.384848  -0.000215
    11  H    0.164527   0.000074
    12  H    0.173364   0.000170
    13  H    0.136569  -0.000276
    14  H    0.152635  -0.000453
    15  H    0.177195  -0.000010
 Sum of Mulliken charges =  -0.00000   1.00000

 Dipole moment (field-independent basis, Debye):
    X=             -0.9287    Y=             -0.2251    Z=             -0.8810  Tot=              1.2998
 Quadrupole moment (field-independent basis, Debye-Ang):
   XX=            -30.2098   YY=            -49.8430   ZZ=            -51.3016
   XY=              0.2301   XZ=             -1.7720   YZ=              5.3341

 P3-0=-419.2977399\MP4SDQ=-419.3111295\CCSD=-419.3165723\CCSD(T)=-419.3
 Normal termination of Gaussian 16 at Thu Aug 21 21:32:40 2025.
