 Gaussian 16, Revision A.03,
 Gaussian 16:  ES64L-G16RevA.03 25-Dec-2016

 --------------------------
 # ccsd(t)/6-311++g(d,p) sp
 --------------------------

 -------------------
 Title Card Required
 -------------------
 Symbolic Z-matrix:
 Charge =  0 Multiplicity = 2

                         Standard orientation:
 ---------------------------------------------------------------------
 Center     Atomic      Atomic             Coordinates (Angstroms)
 Number     Number       Type             X           Y           Z
 ---------------------------------------------------------------------
      1          8           0       -1.424963    1.536338    0.129163
      2          1           0       -2.035355    1.712807    0.855621
      3          6           0       -2.764063   -0.509674   -0.460906
      4          1           0       -3.794351   -0.545952   -0.740599
      5          6           0       -1.612323   -0.084627   -0.116495
      6          6           0       -0.223335   -0.563721    0.212337
      7          8           0        0.105246   -0.960818    1.293442
      8          8           0        0.582496   -0.338839   -0.816750
      9          6           0        1.997918   -0.428099   -0.546669
     10          6           0        2.480776    0.821469    0.163337
     11          1           0        2.449142   -0.535273   -1.531185
     12          1           0        2.187332   -1.326426    0.041611
     13          1           0        3.562545    0.769242    0.301050
     14          1           0        2.243458    1.707794   -0.426143
     15          1           0        2.011154    0.912273    1.143190
 ---------------------------------------------------------------------

 SCF Done:  E(UHF) =  -417.991588023     A.U. after   27 cycles
 E2 =    -0.1269914143D+01 EUMP2 =    -0.41926150216606D+03
 CCSD(T)= -0.41937519610D+03

 The electronic state is 2-A.
 Alpha  occ. eigenvalues --  -20.61067 -20.59398 -20.55843 -11.40983 -11.31528
 Alpha  occ. eigenvalues --  -11.29460 -11.28675 -11.22146  -1.48133  -1.37900
 Alpha  occ. eigenvalues --   -1.35317  -1.08844  -1.04359  -0.92670  -0.84072
 Alpha  occ. eigenvalues --   -0.76648  -0.73095  -0.69402  -0.69212  -0.64790
 Alpha  occ. eigenvalues --   -0.62595  -0.60770  -0.57457  -0.54983  -0.53789
 Alpha  occ. eigenvalues --   -0.51374  -0.50122  -0.48085  -0.46113  -0.43832
 Alpha  occ. eigenvalues --   -0.41502
 Alpha virt. eigenvalues --    0.03713   0.04636   0.05738   0.06818   0.07015
 Alpha virt. eigenvalues --    0.08739   0.09787   0.10741   0.11211   0.12499
 Alpha virt. eigenvalues --    0.13248   0.14041   0.14706   0.15811   0.16603

  Beta  occ. eigenvalues --  -20.61069 -20.57784 -20.56039 -11.40669 -11.33541
  Beta  occ. eigenvalues --  -11.29463 -11.25417 -11.22147  -1.48190  -1.38214
  Beta  occ. eigenvalues --   -1.30723  -1.06943  -1.02912  -0.91005  -0.82414
  Beta  occ. eigenvalues --   -0.76229  -0.71357  -0.69538  -0.68622  -0.64063
  Beta  occ. eigenvalues --   -0.62603  -0.57592  -0.56372  -0.53894  -0.51455
  Beta  occ. eigenvalues --   -0.50278  -0.49978  -0.47890  -0.46489  -0.41807
  Beta virt. eigenvalues --    0.03826   0.04142   0.04643   0.06412   0.06998
  Beta virt. eigenvalues --    0.07336   0.08808   0.09732   0.10524   0.11901
  Beta virt. eigenvalues --    0.13154   0.13534   0.14452   0.15948   0.16163

 Mulliken charges and spin densities:
               1          2
     1  O   -0.286736   0.351338
     2  H    0.263660  -0.012249
     3  C   -0.028010   1.682013
     4  H    0.244249  -0.103210
     5  C    0.134663  -1.039012
     6  C   -0.246827   0.153791
     7  O   -0.286166  -0.035988
     8  O   -0.041672   0.003198
     9  C   -0.172705   0.001031
    10  C   -0.384814  -0.000473
    11  H    0.164399   0.000063
    12  H    0.173622   0.000108
    13  H    0.136554  -0.000233
    14  H    0.152603  -0.000399
    15  H    0.177181   0.000021
 Sum of Mulliken charges =  -0.00000   1.00000

 Dipole moment (field-independent basis, Debye):
    X=             -0.9268    Y=             -0.2045    Z=             -0.8765  Tot=              1.2919
 Quadrupole moment (field-independent basis, Debye-Ang):
   XX=            -30.3211   YY=            -49.9358   ZZ=            -51.2806
   XY=              0.1578   XZ=             -1.7972   YZ=              5.3110

 3-0=-419.3012993\MP4SDQ=-419.3159855\CCSD=-419.3206141\CCSD(T)=-419.37
 Normal termination of Gaussian 16 at Thu Aug 21 20:44:48 2025.
