 Gaussian 16, Revision A.03,
 Gaussian 16:  ES64L-G16RevA.03 25-Dec-2016

 --------------------------
 # ccsd(t)/6-311++g(d,p) sp
 --------------------------

 -------------------
 Title Card Required
 -------------------
 Symbolic Z-matrix:
 Charge =  0 Multiplicity = 2

                         Standard orientation:
 ---------------------------------------------------------------------
 Center     Atomic      Atomic             Coordinates (Angstroms)
 Number     Number       Type             X           Y           Z
 ---------------------------------------------------------------------
      1          8           0       -1.409872    1.658899    0.103636
      2          1           0       -2.034930    1.783408    0.833990
      3          6           0       -2.780782   -0.492538   -0.445213
      4          1           0       -3.806264   -0.573825   -0.723148
      5          6           0       -1.620323   -0.274462   -0.138382
      6          6           0       -0.220969   -0.562548    0.227716
      7          8           0        0.108877   -0.920109    1.322017
      8          8           0        0.581010   -0.359591   -0.807686
      9          6           0        1.995774   -0.446066   -0.536765
     10          6           0        2.483685    0.820372    0.138077
     11          1           0        2.444977   -0.581854   -1.518717
     12          1           0        2.182857   -1.328750    0.075677
     13          1           0        3.565557    0.769355    0.275415
     14          1           0        2.247799    1.690817   -0.475205
     15          1           0        2.015565    0.938705    1.115652
 ---------------------------------------------------------------------

 SCF Done:  E(UHF) =  -417.978079559     A.U. after   35 cycles
 E2 =    -0.1256471027D+01 EUMP2 =    -0.41923455058651D+03
 CCSD(T)= -0.41935382385D+03

 The electronic state is 2-A.
 Alpha  occ. eigenvalues --  -20.62059 -20.60953 -20.55490 -11.41289 -11.29425
 Alpha  occ. eigenvalues --  -11.27259 -11.26719 -11.22186  -1.48023  -1.37905
 Alpha  occ. eigenvalues --   -1.37626  -1.08010  -1.04233  -0.92555  -0.83626
 Alpha  occ. eigenvalues --   -0.76362  -0.73126  -0.69257  -0.68859  -0.65641
 Alpha  occ. eigenvalues --   -0.64163  -0.62672  -0.57670  -0.55636  -0.53809
 Alpha  occ. eigenvalues --   -0.52938  -0.50165  -0.47716  -0.45715  -0.43245
 Alpha  occ. eigenvalues --   -0.42245
 Alpha virt. eigenvalues --    0.03708   0.04618   0.05653   0.06825   0.07014
 Alpha virt. eigenvalues --    0.08739   0.09656   0.10548   0.11177   0.11742
 Alpha virt. eigenvalues --    0.13358   0.13917   0.14708   0.15686   0.16801

  Beta  occ. eigenvalues --  -20.60958 -20.58392 -20.55887 -11.40926 -11.29425
  Beta  occ. eigenvalues --  -11.28725 -11.24919 -11.22188  -1.48175  -1.38302
  Beta  occ. eigenvalues --   -1.25036  -1.07724  -1.03389  -0.91492  -0.82925
  Beta  occ. eigenvalues --   -0.76133  -0.71978  -0.69517  -0.67546  -0.63222
  Beta  occ. eigenvalues --   -0.62803  -0.58034  -0.55590  -0.53910  -0.50238
  Beta  occ. eigenvalues --   -0.50029  -0.48478  -0.46941  -0.44554  -0.42311
  Beta virt. eigenvalues --    0.03784   0.04448   0.04704   0.06615   0.07013
  Beta virt. eigenvalues --    0.07945   0.08884   0.09733   0.10732   0.11995
  Beta virt. eigenvalues --    0.12048   0.13565   0.14459   0.15553   0.15955

 Mulliken charges and spin densities:
               1          2
     1  O   -0.173500   0.858727
     2  H    0.245874  -0.032220
     3  C   -0.663803   1.171643
     4  H    0.215877  -0.085607
     5  C    0.873429  -1.023946
     6  C   -0.436375   0.187804
     7  O   -0.281615  -0.081247
     8  O   -0.033376   0.002783
     9  C   -0.163651   0.001290
    10  C   -0.387210   0.001599
    11  H    0.165465   0.000065
    12  H    0.172405   0.000311
    13  H    0.138019  -0.000264
    14  H    0.150555  -0.000638
    15  H    0.177907  -0.000300
 Sum of Mulliken charges =  -0.00000   1.00000

 Dipole moment (field-independent basis, Debye):
    X=             -0.8027    Y=              0.4023    Z=             -0.7424  Tot=              1.1650
 Quadrupole moment (field-independent basis, Debye-Ang):
   XX=            -30.4003   YY=            -48.3430   ZZ=            -51.5913
   XY=             -0.7398   XZ=             -1.9921   YZ=              5.4916

 7\PMP3-0=-419.2804832\MP4SDQ=-419.2923483\CCSD=-419.2993046\CCSD(T)=-4
 Normal termination of Gaussian 16 at Sun Aug 24 00:33:03 2025.
