 Gaussian 16, Revision A.03,
 Gaussian 16:  ES64L-G16RevA.03 25-Dec-2016

 --------------------------
 # freq 6-311++g(d,p) m062x
 --------------------------

 -------------------
 Title Card Required
 -------------------
 Symbolic Z-matrix:
 Charge =  0 Multiplicity = 2

                         Standard orientation:
 ---------------------------------------------------------------------
 Center     Atomic      Atomic             Coordinates (Angstroms)
 Number     Number       Type             X           Y           Z
 ---------------------------------------------------------------------
      1          8           0       -1.424963    1.536338    0.129163
      2          1           0       -2.035355    1.712807    0.855621
      3          6           0       -2.764063   -0.509674   -0.460906
      4          1           0       -3.794351   -0.545952   -0.740599
      5          6           0       -1.612323   -0.084627   -0.116495
      6          6           0       -0.223335   -0.563721    0.212337
      7          8           0        0.105246   -0.960818    1.293442
      8          8           0        0.582496   -0.338839   -0.816750
      9          6           0        1.997918   -0.428099   -0.546669
     10          6           0        2.480776    0.821469    0.163337
     11          1           0        2.449142   -0.535273   -1.531185
     12          1           0        2.187332   -1.326426    0.041611
     13          1           0        3.562545    0.769242    0.301050
     14          1           0        2.243458    1.707794   -0.426143
     15          1           0        2.011154    0.912273    1.143190
 ---------------------------------------------------------------------

 SCF Done:  E(UM062X) =  -420.225835557     A.U. after   18 cycles

 The electronic state is 2-A.
 Alpha  occ. eigenvalues --  -19.68116 -19.64699 -19.63160 -10.70136 -10.63509
 Alpha  occ. eigenvalues --  -10.60357 -10.59379 -10.53388  -1.25644  -1.16354
 Alpha  occ. eigenvalues --   -1.12382  -0.90940  -0.87481  -0.78023  -0.70848
 Alpha  occ. eigenvalues --   -0.64566  -0.61712  -0.59211  -0.58112  -0.54354
 Alpha  occ. eigenvalues --   -0.52974  -0.49916  -0.48166  -0.46231  -0.45137
 Alpha  occ. eigenvalues --   -0.41730  -0.40763  -0.39424  -0.38333  -0.35919
 Alpha  occ. eigenvalues --   -0.31234
 Alpha virt. eigenvalues --   -0.00247   0.00394   0.01240   0.01318   0.02265
 Alpha virt. eigenvalues --    0.02718   0.03358   0.04418   0.05802   0.06164
 Alpha virt. eigenvalues --    0.07209   0.07767   0.08459   0.10067   0.10540

  Beta  occ. eigenvalues --  -19.68111 -19.64241 -19.63161 -10.70078 -10.63664
  Beta  occ. eigenvalues --  -10.60356 -10.58703 -10.53389  -1.25600  -1.16341
  Beta  occ. eigenvalues --   -1.10769  -0.89806  -0.86297  -0.77310  -0.69903
  Beta  occ. eigenvalues --   -0.64352  -0.60729  -0.58784  -0.57868  -0.53725
  Beta  occ. eigenvalues --   -0.52840  -0.48727  -0.47306  -0.45370  -0.44266
  Beta  occ. eigenvalues --   -0.41647  -0.39733  -0.38875  -0.38239  -0.34468
  Beta virt. eigenvalues --   -0.08296  -0.00246   0.00452   0.01489   0.02205
  Beta virt. eigenvalues --    0.02371   0.02767   0.03544   0.04475   0.05781
  Beta virt. eigenvalues --    0.05988   0.07306   0.07703   0.08491   0.09839

 Mulliken charges and spin densities:
               1          2
     1  O   -0.279630   0.215362
     2  H    0.260633   0.000895
     3  C   -0.019826   1.044821
     4  H    0.220694  -0.027428
     5  C    0.085613  -0.299393
     6  C   -0.318230   0.058579
     7  O   -0.210002   0.000663
     8  O    0.047235   0.004211
     9  C   -0.280122   0.001895
    10  C   -0.421036   0.001283
    11  H    0.195177   0.000223
    12  H    0.189758  -0.000316
    13  H    0.166202  -0.000081
    14  H    0.173696  -0.000196
    15  H    0.189838  -0.000519
 Sum of Mulliken charges =  -0.00000   1.00000

 Dipole moment (field-independent basis, Debye):
    X=             -0.6448    Y=             -0.2489    Z=             -0.7568  Tot=              1.0250
 Quadrupole moment (field-independent basis, Debye-Ang):
   XX=            -30.7257   YY=            -49.9466   ZZ=            -50.9354
   XY=              0.2982   XZ=             -1.6703   YZ=              4.9442

  Exact polarizability:  87.717   5.892  65.571   3.472   1.837  59.226
 Approx polarizability:  89.470   7.768  77.751   5.153  -0.032  76.612

 ******    2 imaginary frequencies (negative Signs) ******

                      1                      2                      3
                      A                      A                      A
 Frequencies --   -364.7970               -41.2842                93.1555
 Red. masses --      2.6870                 1.3165                 3.8146
 Frc consts  --      0.2107                 0.0013                 0.0195
 IR Inten    --    127.4196                42.1574                 7.1467

                      4                      5                      6
                      A                      A                      A
 Frequencies --    112.7364               137.5747               190.5376
 Red. masses --      2.8276                 3.4289                 1.7037
 Frc consts  --      0.0212                 0.0382                 0.0364
 IR Inten    --      3.6880                22.2880                 5.2677

                      7                      8                      9
                      A                      A                      A
 Frequencies --    237.0668               249.7769               288.5694
 Red. masses --      1.6900                 2.0025                 3.9980
 Frc consts  --      0.0560                 0.0736                 0.1962
 IR Inten    --     15.5810                 3.7618                 1.0041

                     10                     11                     12
                      A                      A                      A
 Frequencies --    341.9888               368.9742               452.3831
 Red. masses --      3.1355                 9.5779                 3.4997
 Frc consts  --      0.2161                 0.7683                 0.4220
 IR Inten    --     12.2226                 0.9707                 8.3010

                     13                     14                     15
                      A                      A                      A
 Frequencies --    602.3004               646.5800               691.2576
 Red. masses --      3.9682                 4.3557                 1.4828
 Frc consts  --      0.8481                 1.0729                 0.4174
 IR Inten    --     12.7772                17.9094                39.0274

                     16                     17                     18
                      A                      A                      A
 Frequencies --    791.4840               802.2019               894.0681
 Red. masses --      9.5213                 1.2298                 3.2176
 Frc consts  --      3.5142                 0.4663                 1.5154
 IR Inten    --     11.8543                 4.7322                15.6196

                     19                     20                     21
                      A                      A                      A
 Frequencies --    918.9070              1062.7833              1114.5762
 Red. masses --      2.7153                 3.1545                 1.2933
 Frc consts  --      1.3508                 2.0993                 0.9466
 IR Inten    --      1.5659                17.8609                56.5814

                     22                     23                     24
                      A                      A                      A
 Frequencies --   1129.6491              1202.8498              1281.9203
 Red. masses --      2.0284                 1.7736                 3.9460
 Frc consts  --      1.5251                 1.5120                 3.8206
 IR Inten    --     25.5938                 7.4321               504.3847

                     25                     26                     27
                      A                      A                      A
 Frequencies --   1343.6335              1401.7600              1430.0827
 Red. masses --      1.2328                 1.2801                 1.3643
 Frc consts  --      1.3113                 1.4820                 1.6440
 IR Inten    --     81.3812                19.7718                11.5257

                     28                     29                     30
                      A                      A                      A
 Frequencies --   1491.8850              1501.8091              1514.0047
 Red. masses --      1.0400                 1.0545                 1.0921
 Frc consts  --      1.3639                 1.4013                 1.4749
 IR Inten    --     10.4650                 0.9022                18.3678

                     31                     32                     33
                      A                      A                      A
 Frequencies --   1791.0714              1862.4009              3076.7420
 Red. masses --      7.5298                11.3614                 1.0353
 Frc consts  --     14.2317                23.2183                 5.7742
 IR Inten    --     55.6985               283.2508                 9.1229

                     34                     35                     36
                      A                      A                      A
 Frequencies --   3109.9256              3154.0921              3155.2712
 Red. masses --      1.0608                 1.1010                 1.1051
 Frc consts  --      6.0446                 6.4536                 6.4825
 IR Inten    --     19.8001                16.5732                 0.1055

                     37                     38                     39
                      A                      A                      A
 Frequencies --   3176.9464              3422.9370              3863.7456
 Red. masses --      1.1075                 1.1212                 1.0675
 Frc consts  --      6.5861                 7.7395                 9.3893
 IR Inten    --     14.5547                71.9640                69.4346

 - Thermochemistry -
 -------------------
 Temperature   298.150 Kelvin.  Pressure   1.00000 Atm.
 Atom     1 has atomic number  8 and mass  15.99491

 Molecular mass:   115.03952 amu.
 Principal axes and moments of inertia in atomic units:
                           1         2         3
     Eigenvalues --   469.124971372.163811485.70052
           X            0.99993   0.01148   0.00033
           Y           -0.01146   0.99499   0.09931
           Z            0.00082  -0.09930   0.99506
 This molecule is an asymmetric top.
 Rotational symmetry number  1.
 Warning -- assumption of classical behavior for rotation
           may cause significant error
 Rotational temperatures (Kelvin)      0.18463     0.06312     0.05830
 Rotational constants (GHZ):           3.84704     1.31525     1.21474
    2 imaginary frequencies ignored.
 Zero-point vibrational energy     292532.7 (Joules/Mol)
                                   69.91699 (Kcal/Mol)
 Warning -- explicit consideration of  11 degrees of freedom as
           vibrations may cause significant error
 Vibrational temperatures:    134.03   162.20   197.94   274.14   341.09
          (Kelvin)            359.37   415.19   492.05   530.87   650.88
                              866.58   930.28   994.57  1138.77  1154.19
                             1286.36  1322.10  1529.11  1603.63  1625.31
                             1730.63  1844.40  1933.19  2016.82  2057.57
                             2146.49  2160.77  2178.32  2576.95  2679.58
                             4426.75  4474.49  4538.04  4539.73  4570.92
                             4924.84  5559.07

 Zero-point correction=                           0.111420 (Hartree/Particle)
 Thermal correction to Energy=                    0.120170
 Thermal correction to Enthalpy=                  0.121114
 Thermal correction to Gibbs Free Energy=         0.077385
 Sum of electronic and zero-point Energies=           -420.114416
 Sum of electronic and thermal Energies=              -420.105666
 Sum of electronic and thermal Enthalpies=            -420.104722
 Sum of electronic and thermal Free Energies=         -420.148451

                     E (Thermal)             CV                S
                      KCal/Mol        Cal/Mol-Kelvin    Cal/Mol-Kelvin
 Total                   75.408             30.247             92.036
 Electronic               0.000              0.000              1.377
 Translational            0.889              2.981             40.136
 Rotational               0.889              2.981             28.349
 Vibrational             73.630             24.285             22.173
 Vibration     1          0.602              1.954              3.593
 Vibration     2          0.607              1.939              3.221
 Vibration     3          0.614              1.916              2.837
 Vibration     4          0.634              1.853              2.223
 Vibration     5          0.656              1.784              1.825
 Vibration     6          0.663              1.763              1.732
 Vibration     7          0.685              1.695              1.482
 Vibration     8          0.721              1.592              1.203
 Vibration     9          0.741              1.536              1.084
 Vibration    10          0.811              1.356              0.789
 Vibration    11          0.961              1.027              0.446

 1\1\GINC-AJ\Freq\UM062X\6-311++G(d,p)\C5H7O3(2)\AAYUSH\16-Aug-2025\0\\
 # freq 6-311++g(d,p) m062x\\Title Card Required\\0,2\O,-1.364042,1.565
 921,0.080944\H,-1.973025,1.7656,0.80256\C,-2.708728,-0.493715,-0.44560
 4\H,-3.739481,-0.535935,-0.722742\C,-1.555527,-0.061246,-0.115624\C,-0
 .167214,-0.533539,0.225659\O,0.161918,-0.898737,1.317787\O,0.63773,-0.
 341613,-0.810769\C,2.053308,-0.426078,-0.539965\C,2.540058,0.843118,0.
 131523\H,2.502932,-0.563873,-1.521399\H,2.241427,-1.306762,0.074811\H,
 3.621889,0.792482,0.269339\H,2.304005,1.711883,-0.484029\H,2.071992,0.

 Normal termination of Gaussian 16 at Sat Aug 16 16:16:31 2025.
