 Gaussian 16, Revision A.03,
 Gaussian 16:  ES64L-G16RevA.03 25-Dec-2016

 -------------------
 # freq 6-31+g m062x
 -------------------

 -------------------
 Title Card Required
 -------------------
 Symbolic Z-matrix:
 Charge =  0 Multiplicity = 2

                         Standard orientation:
 ---------------------------------------------------------------------
 Center     Atomic      Atomic             Coordinates (Angstroms)
 Number     Number       Type             X           Y           Z
 ---------------------------------------------------------------------
      1          8           0       -1.408369    1.672767    0.100932
      2          1           0       -2.035054    1.791370    0.831310
      3          6           0       -2.782146   -0.491967   -0.443728
      4          1           0       -3.808064   -0.569918   -0.720539
      5          6           0       -1.621204   -0.295476   -0.140278
      6          6           0       -0.221355   -0.563325    0.229031
      7          8           0        0.109552   -0.915748    1.324915
      8          8           0        0.580947   -0.361651   -0.806728
      9          6           0        1.995515   -0.447775   -0.535729
     10          6           0        2.483981    0.820334    0.135521
     11          1           0        2.444667   -0.586449   -1.517319
     12          1           0        2.182469   -1.328766    0.079213
     13          1           0        3.565868    0.769569    0.272811
     14          1           0        2.248265    1.689135   -0.480191
     15          1           0        2.016072    0.941369    1.112864
 ---------------------------------------------------------------------

 SCF Done:  E(UM062X) =  -419.953387988     A.U. after   22 cycles

 The electronic state is 2-A.
 Alpha  occ. eigenvalues --  -19.70455 -19.68299 -19.66241 -10.73038 -10.61400
 Alpha  occ. eigenvalues --  -10.61344 -10.60306 -10.54158  -1.28047  -1.18700
 Alpha  occ. eigenvalues --   -1.13027  -0.91914  -0.88187  -0.78601  -0.71308
 Alpha  occ. eigenvalues --   -0.64642  -0.62647  -0.58813  -0.57331  -0.53718
 Alpha  occ. eigenvalues --   -0.53449  -0.50234  -0.48412  -0.46296  -0.45066
 Alpha  occ. eigenvalues --   -0.41755  -0.40942  -0.39724  -0.38082  -0.36954
 Alpha  occ. eigenvalues --   -0.34029
 Alpha virt. eigenvalues --   -0.00776   0.01843   0.02445   0.03398   0.03720
 Alpha virt. eigenvalues --    0.04349   0.05546   0.05848   0.07685   0.07919
 Alpha virt. eigenvalues --    0.08848   0.08924   0.09978   0.11762   0.12205

  Beta  occ. eigenvalues --  -19.70458 -19.66880 -19.66264 -10.73002 -10.61481
  Beta  occ. eigenvalues --  -10.61344 -10.60022 -10.54159  -1.28050  -1.18732
  Beta  occ. eigenvalues --   -1.07651  -0.91286  -0.87784  -0.78381  -0.71047
  Beta  occ. eigenvalues --   -0.64522  -0.62067  -0.58645  -0.57048  -0.53678
  Beta  occ. eigenvalues --   -0.51145  -0.49157  -0.46691  -0.45169  -0.41714
  Beta  occ. eigenvalues --   -0.39838  -0.39477  -0.38221  -0.37936  -0.35962
  Beta virt. eigenvalues --   -0.10020   0.00414   0.01882   0.02464   0.03368
  Beta virt. eigenvalues --    0.03785   0.04526   0.05582   0.05870   0.07708
  Beta virt. eigenvalues --    0.07901   0.08890   0.08945   0.10114   0.11762

 Mulliken charges and spin densities:
               1          2
     1  O   -0.456294   0.753656
     2  H    0.406402  -0.026908
     3  C    0.294271   0.436343
     4  H    0.315782  -0.016521
     5  C   -0.385377  -0.190057
     6  C    0.023996   0.054663
     7  O   -0.343353  -0.010597
     8  O   -0.164550  -0.000517
     9  C   -0.262215  -0.000798
    10  C   -0.553037   0.000991
    11  H    0.220825  -0.000011
    12  H    0.234137  -0.000136
    13  H    0.204646  -0.000060
    14  H    0.229189  -0.000040
    15  H    0.235579  -0.000007
 Sum of Mulliken charges =  -0.00000   1.00000

 Dipole moment (field-independent basis, Debye):
    X=             -0.8221    Y=             -0.2922    Z=             -0.5068  Tot=              1.0090
 Quadrupole moment (field-independent basis, Debye-Ang):
   XX=            -29.2850   YY=            -49.6133   ZZ=            -52.2535
   XY=              0.2525   XZ=             -1.9821   YZ=              5.6430

  Exact polarizability:  86.854   7.749  70.054   4.189   2.525  57.220
 Approx polarizability:  91.633   9.599  69.974   7.708  -1.180  71.622

 ******    5 imaginary frequencies (negative Signs) ******

                      1                      2                      3
                      A                      A                      A
 Frequencies --   -532.6560              -455.5881               -99.1837
 Red. masses --     11.3116                 1.0886                 6.8286
 Frc consts  --      1.8909                 0.1331                 0.0396
 IR Inten    --     48.4937               115.1518                 9.3242

                      4                      5                      6
                      A                      A                      A
 Frequencies --    -45.4672               -13.4291                99.2857
 Red. masses --      4.1917                 2.5049                 3.1824
 Frc consts  --      0.0051                 0.0003                 0.0185
 IR Inten    --      4.9199                 0.4525                 6.8320

                      7                      8                      9
                      A                      A                      A
 Frequencies --    158.3671               177.1756               220.3680
 Red. masses --      4.9204                 1.3887                 4.5692
 Frc consts  --      0.0727                 0.0257                 0.1307
 IR Inten    --      0.7041                 1.0237                 0.7662

                     10                     11                     12
                      A                      A                      A
 Frequencies --    306.3789               417.8933               539.0279
 Red. masses --      2.8842                 3.5527                 1.9384
 Frc consts  --      0.1595                 0.3655                 0.3318
 IR Inten    --     13.5420                 8.7273                47.8792

                     13                     14                     15
                      A                      A                      A
 Frequencies --    602.6477               634.0301               662.2054
 Red. masses --      3.1141                 2.0046                 1.4538
 Frc consts  --      0.6664                 0.4748                 0.3756
 IR Inten    --     40.4373                28.3227                17.4440

                     16                     17                     18
                      A                      A                      A
 Frequencies --    718.9714               754.4411               817.4519
 Red. masses --      5.8151                 1.3796                 1.2858
 Frc consts  --      1.7710                 0.4627                 0.5062
 IR Inten    --     80.1822                50.5797                 7.7300

                     19                     20                     21
                      A                      A                      A
 Frequencies --    897.1222               943.4033              1108.0351
 Red. masses --      3.3289                 2.5083                 4.1962
 Frc consts  --      1.5786                 1.3153                 3.0354
 IR Inten    --     21.9529                 5.9835                11.9657

                     22                     23                     24
                      A                      A                      A
 Frequencies --   1158.6008              1228.5604              1324.8775
 Red. masses --      2.0717                 1.7497                 1.9839
 Frc consts  --      1.6385                 1.5560                 2.0517
 IR Inten    --     17.8905                 5.9555               308.6681

                     25                     26                     27
                      A                      A                      A
 Frequencies --   1369.1238              1441.7740              1458.2206
 Red. masses --      1.7534                 1.3843                 1.2548
 Frc consts  --      1.9365                 1.6954                 1.5720
 IR Inten    --    266.0463                33.1398                19.8401

                     28                     29                     30
                      A                      A                      A
 Frequencies --   1526.3337              1536.8533              1544.9979
 Red. masses --      1.0412                 1.0549                 1.0896
 Frc consts  --      1.4292                 1.4679                 1.5325
 IR Inten    --     15.1915                 2.6260                27.6923

                     31                     32                     33
                      A                      A                      A
 Frequencies --   1912.8960              2184.8639              3108.3378
 Red. masses --     12.2001                 6.1398                 1.0350
 Frc consts  --     26.3024                17.2684                 5.8920
 IR Inten    --    323.3992                93.1218                11.7918

                     34                     35                     36
                      A                      A                      A
 Frequencies --   3138.8773              3189.7090              3190.7468
 Red. masses --      1.0601                 1.1031                 1.0998
 Frc consts  --      6.1541                 6.6128                 6.5968
 IR Inten    --     21.2980                 1.8571                18.0997

                     37                     38                     39
                      A                      A                      A
 Frequencies --   3212.1323              3517.5042              3832.6185
 Red. masses --      1.1054                 1.1563                 1.0673
 Frc consts  --      6.7197                 8.4290                 9.2369
 IR Inten    --     16.9438                62.4849                18.8439

 - Thermochemistry -
 -------------------
 Temperature   298.150 Kelvin.  Pressure   1.00000 Atm.
 Atom     1 has atomic number  8 and mass  15.99491

 Molecular mass:   115.03952 amu.
 Principal axes and moments of inertia in atomic units:
                           1         2         3
     Eigenvalues --   496.753471377.794991514.64161
           X            0.99994   0.01123  -0.00052
           Y           -0.01115   0.99666   0.08087
           Z            0.00142  -0.08086   0.99672
 This molecule is an asymmetric top.
 Rotational symmetry number  1.
 Warning -- assumption of classical behavior for rotation
           may cause significant error
 Rotational temperatures (Kelvin)      0.17436     0.06286     0.05718
 Rotational constants (GHZ):           3.63307     1.30988     1.19153
    5 imaginary frequencies ignored.
 Zero-point vibrational energy     292689.3 (Joules/Mol)
                                   69.95443 (Kcal/Mol)
 Warning -- explicit consideration of   8 degrees of freedom as
           vibrations may cause significant error
 Vibrational temperatures:    142.85   227.85   254.92   317.06   440.81
          (Kelvin)            601.26   775.54   867.08   912.23   952.77
                             1034.44  1085.47  1176.13  1290.76  1357.35
                             1594.22  1666.97  1767.62  1906.20  1969.86
                             2074.39  2098.05  2196.05  2211.19  2222.91
                             2752.23  3143.53  4472.20  4516.14  4589.28
                             4590.77  4621.54  5060.90  5514.28

 Zero-point correction=                           0.111479 (Hartree/Particle)
 Thermal correction to Energy=                    0.118610
 Thermal correction to Enthalpy=                  0.119554
 Thermal correction to Gibbs Free Energy=         0.078895
 Sum of electronic and zero-point Energies=           -419.841909
 Sum of electronic and thermal Energies=              -419.834778
 Sum of electronic and thermal Enthalpies=            -419.833834
 Sum of electronic and thermal Free Energies=         -419.874493

                     E (Thermal)             CV                S
                      KCal/Mol        Cal/Mol-Kelvin    Cal/Mol-Kelvin
 Total                   74.429             25.070             85.574
 Electronic               0.000              0.000              1.377
 Translational            0.889              2.981             40.136
 Rotational               0.889              2.981             28.429
 Vibrational             72.651             19.109             15.631
 Vibration     1          0.604              1.950              3.468
 Vibration     2          0.621              1.893              2.569
 Vibration     3          0.628              1.870              2.358
 Vibration     4          0.647              1.810              1.956
 Vibration     5          0.697              1.662              1.382
 Vibration     6          0.781              1.431              0.899
 Vibration     7          0.894              1.164              0.567
 Vibration     8          0.961              1.026              0.445

 Normal termination of Gaussian 16 at Fri Jun 20 13:28:52 2025.
