 Gaussian 16, Revision A.03,
 Gaussian 16:  ES64L-G16RevA.03 25-Dec-2016

 --------------------------
 # freq 6-311++g(d,p) m062x
 --------------------------

 -------------------
 Title Card Required
 -------------------
 Symbolic Z-matrix:
 Charge =  0 Multiplicity = 2

                         Standard orientation:
 ---------------------------------------------------------------------
 Center     Atomic      Atomic             Coordinates (Angstroms)
 Number     Number       Type             X           Y           Z
 ---------------------------------------------------------------------
      1          8           0       -1.408369    1.672767    0.100932
      2          1           0       -2.035054    1.791370    0.831310
      3          6           0       -2.782146   -0.491967   -0.443728
      4          1           0       -3.808064   -0.569918   -0.720539
      5          6           0       -1.621204   -0.295476   -0.140278
      6          6           0       -0.221355   -0.563325    0.229031
      7          8           0        0.109552   -0.915748    1.324915
      8          8           0        0.580947   -0.361651   -0.806728
      9          6           0        1.995515   -0.447775   -0.535729
     10          6           0        2.483981    0.820334    0.135521
     11          1           0        2.444667   -0.586449   -1.517319
     12          1           0        2.182469   -1.328766    0.079213
     13          1           0        3.565868    0.769569    0.272811
     14          1           0        2.248265    1.689135   -0.480191
     15          1           0        2.016072    0.941369    1.112864
 ---------------------------------------------------------------------

 SCF Done:  E(UM062X) =  -420.202229004     A.U. after   23 cycles

 The electronic state is 2-A.
 Alpha  occ. eigenvalues --  -19.68129 -19.65581 -19.63074 -10.70658 -10.60375
 Alpha  occ. eigenvalues --  -10.59777 -10.58747 -10.53372  -1.25695  -1.16401
 Alpha  occ. eigenvalues --   -1.11691  -0.91177  -0.87528  -0.78155  -0.70737
 Alpha  occ. eigenvalues --   -0.64530  -0.62245  -0.58611  -0.57292  -0.53569
 Alpha  occ. eigenvalues --   -0.53238  -0.50128  -0.48395  -0.46029  -0.45083
 Alpha  occ. eigenvalues --   -0.41746  -0.40867  -0.39742  -0.38344  -0.36720
 Alpha  occ. eigenvalues --   -0.33928
 Alpha virt. eigenvalues --   -0.00575  -0.00232   0.00491   0.01483   0.02537
 Alpha virt. eigenvalues --    0.02768   0.03341   0.04305   0.05685   0.06165
 Alpha virt. eigenvalues --    0.07089   0.07605   0.08409   0.09847   0.10629

  Beta  occ. eigenvalues --  -19.68133 -19.64233 -19.63094 -10.70628 -10.60374
  Beta  occ. eigenvalues --  -10.59849 -10.58472 -10.53372  -1.25696  -1.16442
  Beta  occ. eigenvalues --   -1.06298  -0.90470  -0.87017  -0.77871  -0.70425
  Beta  occ. eigenvalues --   -0.64400  -0.61705  -0.58545  -0.56876  -0.53204
  Beta  occ. eigenvalues --   -0.51376  -0.48970  -0.46629  -0.45156  -0.41726
  Beta  occ. eigenvalues --   -0.39659  -0.39471  -0.38448  -0.37882  -0.35774
  Beta virt. eigenvalues --   -0.10005  -0.00181   0.00454   0.00788   0.01784
  Beta virt. eigenvalues --    0.02631   0.02808   0.03378   0.04365   0.05743
  Beta virt. eigenvalues --    0.06131   0.07193   0.07513   0.08469   0.09919

 Mulliken charges and spin densities:
               1          2
     1  O   -0.246674   0.735428
     2  H    0.233722  -0.016816
     3  C   -0.507795   0.478027
     4  H    0.201100  -0.018365
     5  C    0.750343  -0.206152
     6  C   -0.503896   0.035889
     7  O   -0.201433  -0.010138
     8  O    0.055317   0.000739
     9  C   -0.278870  -0.000605
    10  C   -0.415577   0.003635
    11  H    0.195187   0.000194
    12  H    0.188036  -0.000027
    13  H    0.168615   0.000029
    14  H    0.172896  -0.000517
    15  H    0.189030  -0.001321
 Sum of Mulliken charges =  -0.00000   1.00000

 Dipole moment (field-independent basis, Debye):
    X=             -0.6997    Y=             -0.2966    Z=             -0.7554  Tot=              1.0715
 Quadrupole moment (field-independent basis, Debye-Ang):
   XX=            -29.7813   YY=            -49.2964   ZZ=            -51.0904
   XY=              0.5596   XZ=             -1.5769   YZ=              5.0611

  Exact polarizability:  91.056   7.963  74.510   4.701   3.387  59.666
 Approx polarizability:  97.627   9.011  79.614   7.501   0.249  76.950

 ******    1 imaginary frequencies (negative Signs) ******

                      1                      2                      3
                      A                      A                      A
 Frequencies --   -577.2920                49.7565                61.4099
 Red. masses --     12.0284                 4.6077                 3.6519
 Frc consts  --      2.3618                 0.0067                 0.0081
 IR Inten    --     73.2264                 6.2792                 1.9507

                      4                      5                      6
                      A                      A                      A
 Frequencies --    117.0034               161.0845               172.1073
 Red. masses --      3.4607                 3.1531                 3.7711
 Frc consts  --      0.0279                 0.0482                 0.0658
 IR Inten    --      1.4784                24.6006                 3.4573

                      7                      8                      9
                      A                      A                      A
 Frequencies --    212.6578               229.8468               264.1227
 Red. masses --      1.4865                 1.4445                 2.2076
 Frc consts  --      0.0396                 0.0450                 0.0907
 IR Inten    --     36.6240                 5.4839                21.2676

                     10                     11                     12
                      A                      A                      A
 Frequencies --    336.2400               430.3362               562.1922
 Red. masses --      2.9486                 3.7095                 3.8976
 Frc consts  --      0.1964                 0.4047                 0.7258
 IR Inten    --      9.9174                 3.8490                 4.2162

                     13                     14                     15
                      A                      A                      A
 Frequencies --    606.8488               671.9936               722.1976
 Red. masses --      6.0201                 1.3387                 1.2956
 Frc consts  --      1.3062                 0.3562                 0.3981
 IR Inten    --     14.8101                27.4957                40.5028

                     16                     17                     18
                      A                      A                      A
 Frequencies --    764.7782               780.5725               802.8375
 Red. masses --      4.1466                 1.3372                 1.2067
 Frc consts  --      1.4289                 0.4800                 0.4582
 IR Inten    --     11.5285               105.0431                 4.9714

                     19                     20                     21
                      A                      A                      A
 Frequencies --    896.8664               926.3429              1073.1773
 Red. masses --      3.2688                 2.7249                 4.1030
 Frc consts  --      1.5491                 1.3776                 2.7842
 IR Inten    --     16.8210                 6.8576                25.7238

                     22                     23                     24
                      A                      A                      A
 Frequencies --   1129.4417              1204.0375              1286.7120
 Red. masses --      2.0861                 1.7716                 3.7907
 Frc consts  --      1.5679                 1.5132                 3.6977
 IR Inten    --     21.9926                 6.9623               533.0040

                     25                     26                     27
                      A                      A                      A
 Frequencies --   1345.3997              1402.1022              1430.9726
 Red. masses --      1.2447                 1.2827                 1.3762
 Frc consts  --      1.3274                 1.4857                 1.6603
 IR Inten    --     91.8854                24.3507                13.7814

                     28                     29                     30
                      A                      A                      A
 Frequencies --   1491.3124              1502.2430              1514.9793
 Red. masses --      1.0400                 1.0541                 1.0936
 Frc consts  --      1.3628                 1.4016                 1.4788
 IR Inten    --     10.9754                 1.2291                21.1870

                     31                     32                     33
                      A                      A                      A
 Frequencies --   1847.0934              2117.9368              3076.2409
 Red. masses --     11.9564                 6.3632                 1.0353
 Frc consts  --     24.0341                16.8170                 5.7723
 IR Inten    --    347.1899                94.6561                 8.9825

                     34                     35                     36
                      A                      A                      A
 Frequencies --   3108.5015              3153.4151              3154.6836
 Red. masses --      1.0608                 1.1015                 1.1049
 Frc consts  --      6.0391                 6.4533                 6.4784
 IR Inten    --     19.7029                14.9688                 1.7890

                     37                     38                     39
                      A                      A                      A
 Frequencies --   3175.9818              3474.5455              3819.3442
 Red. masses --      1.1074                 1.1492                 1.0675
 Frc consts  --      6.5815                 8.1742                 9.1749
 IR Inten    --     14.5186                70.9846                50.5692

 - Thermochemistry -
 -------------------
 Temperature   298.150 Kelvin.  Pressure   1.00000 Atm.
 Atom     1 has atomic number  8 and mass  15.99491

 Molecular mass:   115.03952 amu.
 Principal axes and moments of inertia in atomic units:
                           1         2         3
     Eigenvalues --   496.753471377.794991514.64161
           X            0.99994   0.01123  -0.00052
           Y           -0.01115   0.99666   0.08087
           Z            0.00142  -0.08086   0.99672
 This molecule is an asymmetric top.
 Rotational symmetry number  1.
 Warning -- assumption of classical behavior for rotation
           may cause significant error
 Rotational temperatures (Kelvin)      0.17436     0.06286     0.05718
 Rotational constants (GHZ):           3.63307     1.30988     1.19153
    1 imaginary frequencies ignored.
 Zero-point vibrational energy     293547.5 (Joules/Mol)
                                   70.15954 (Kcal/Mol)
 Warning -- explicit consideration of  12 degrees of freedom as
           vibrations may cause significant error
 Vibrational temperatures:     71.59    88.36   168.34   231.76   247.62
          (Kelvin)            305.97   330.70   380.01   483.77   619.16
                              808.87   873.12   966.85  1039.08  1100.35
                             1123.07  1155.10  1290.39  1332.80  1544.06
                             1625.01  1732.34  1851.29  1935.73  2017.31
                             2058.85  2145.67  2161.39  2179.72  2657.56
                             3047.24  4426.02  4472.44  4537.06  4538.89
                             4569.53  4999.10  5495.18

 Zero-point correction=                           0.111806 (Hartree/Particle)
 Thermal correction to Energy=                    0.121438
 Thermal correction to Enthalpy=                  0.122382
 Thermal correction to Gibbs Free Energy=         0.075960
 Sum of electronic and zero-point Energies=           -420.090423
 Sum of electronic and thermal Energies=              -420.080791
 Sum of electronic and thermal Enthalpies=            -420.079847
 Sum of electronic and thermal Free Energies=         -420.126269

                     E (Thermal)             CV                S
                      KCal/Mol        Cal/Mol-Kelvin    Cal/Mol-Kelvin
 Total                   76.204             32.284             97.704
 Electronic               0.000              0.000              1.377
 Translational            0.889              2.981             40.136
 Rotational               0.889              2.981             28.429
 Vibrational             74.426             26.322             27.762
 Vibration     1          0.595              1.978              4.827
 Vibration     2          0.597              1.973              4.411
 Vibration     3          0.608              1.935              3.149
 Vibration     4          0.622              1.890              2.537
 Vibration     5          0.626              1.877              2.412
 Vibration     6          0.644              1.822              2.021
 Vibration     7          0.652              1.795              1.880
 Vibration     8          0.671              1.739              1.634
 Vibration     9          0.717              1.603              1.230
 Vibration    10          0.792              1.404              0.858
 Vibration    11          0.918              1.113              0.519
 Vibration    12          0.966              1.017              0.438

 Optimization completed.
    -- Stationary point found.

 1\1\GINC-AJ\Freq\UM062X\6-311++G(d,p)\C5H7O3(2)\AAYUSH\16-Aug-2025\0\\
 # freq 6-311++g(d,p) m062x\\Title Card Required\\0,2\O,-1.35135557,1.6
 9612544,0.097321\H,-1.97804057,1.81472844,0.827699\C,-2.72513257,-0.46
 860856,-0.447339\H,-3.75105057,-0.54655956,-0.72415\C,-1.56419057,-0.2
 7211756,-0.143889\C,-0.16434157,-0.53996656,0.22542\O,0.16656543,-0.89
 238956,1.321304\O,0.63796043,-0.33829256,-0.810339\C,2.05252843,-0.424
 41656,-0.53934\C,2.54099443,0.84369244,0.13191\H,2.50168043,-0.5630905
 6,-1.52093\H,2.23948243,-1.30540756,0.075602\H,3.62288143,0.79292744,0

 Normal termination of Gaussian 16 at Sat Aug 16 16:39:54 2025.
