 Gaussian 16, Revision A.03,
 Gaussian 16:  ES64L-G16RevA.03 25-Dec-2016

 -------------------
 # freq 6-31+g m062x
 -------------------

 -------------------
 Title Card Required
 -------------------
 Symbolic Z-matrix:
 Charge =  0 Multiplicity = 2

                         Standard orientation:
 ---------------------------------------------------------------------
 Center     Atomic      Atomic             Coordinates (Angstroms)
 Number     Number       Type             X           Y           Z
 ---------------------------------------------------------------------
      1          8           0       -1.388043    1.823173    0.071642
      2          1           0       -2.016679    1.855349    0.812043
      3          6           0       -2.799951   -0.498405   -0.430213
      4          1           0       -3.832297   -0.499763   -0.692523
      5          6           0       -1.631516   -0.488841   -0.152523
      6          6           0       -0.226717   -0.593506    0.239872
      7          8           0        0.119294   -0.866286    1.355606
      8          8           0        0.576449   -0.388315   -0.796951
      9          6           0        1.990973   -0.464197   -0.525925
     10          6           0        2.487606    0.819435    0.107850
     11          1           0        2.438151   -0.632290   -1.503987
     12          1           0        2.178071   -1.327345    0.114126
     13          1           0        3.569991    0.767367    0.241175
     14          1           0        2.254045    1.672093   -0.530981
     15          1           0        2.024741    0.969093    1.083406
 ---------------------------------------------------------------------

 SCF Done:  E(UM062X) =  -419.961065611     A.U. after   24 cycles

 The electronic state is 2-A.
 Alpha  occ. eigenvalues --  -19.70459 -19.70299 -19.66022 -10.72858 -10.61237
 Alpha  occ. eigenvalues --  -10.59393 -10.59049 -10.54085  -1.27778  -1.18416
 Alpha  occ. eigenvalues --   -1.14726  -0.91216  -0.87764  -0.78336  -0.71017
 Alpha  occ. eigenvalues --   -0.64384  -0.61910  -0.58342  -0.57000  -0.54817
 Alpha  occ. eigenvalues --   -0.53674  -0.50477  -0.48750  -0.46397  -0.44937
 Alpha  occ. eigenvalues --   -0.42606  -0.41659  -0.39402  -0.37977  -0.36716
 Alpha  occ. eigenvalues --   -0.36465
 Alpha virt. eigenvalues --   -0.01239   0.01979   0.02499   0.03646   0.03783
 Alpha virt. eigenvalues --    0.04538   0.05467   0.05917   0.07700   0.08405
 Alpha virt. eigenvalues --    0.08855   0.08898   0.10084   0.11861   0.12280

  Beta  occ. eigenvalues --  -19.70303 -19.68809 -19.66034 -10.72847 -10.61237
  Beta  occ. eigenvalues --  -10.59377 -10.58972 -10.54086  -1.27785  -1.18438
  Beta  occ. eigenvalues --   -1.07352  -0.91004  -0.87596  -0.78265  -0.70941
  Beta  occ. eigenvalues --   -0.64355  -0.61701  -0.58254  -0.56685  -0.53662
  Beta  occ. eigenvalues --   -0.51760  -0.49220  -0.46566  -0.44971  -0.41657
  Beta  occ. eigenvalues --   -0.39388  -0.39070  -0.38355  -0.38001  -0.36437
  Beta virt. eigenvalues --   -0.09208  -0.00824   0.02032   0.02509   0.03764
  Beta virt. eigenvalues --    0.03829   0.04711   0.05535   0.06016   0.07762
  Beta virt. eigenvalues --    0.08358   0.08899   0.09033   0.10155   0.11993

 Mulliken charges and spin densities:
               1          2
     1  O   -0.410588   0.949637
     2  H    0.403458  -0.035163
     3  C   -0.290360   0.087732
     4  H    0.343769  -0.004922
     5  C   -0.150101  -0.035419
     6  C    0.279214   0.045238
     7  O   -0.333861  -0.005396
     8  O   -0.165215  -0.000336
     9  C   -0.227917  -0.001407
    10  C   -0.567183   0.000282
    11  H    0.218924  -0.000014
    12  H    0.230835  -0.000050
    13  H    0.204466  -0.000028
    14  H    0.227381  -0.000065
    15  H    0.237179  -0.000089
 Sum of Mulliken charges =  -0.00000   1.00000

 Dipole moment (field-independent basis, Debye):
    X=             -0.7794    Y=              0.2446    Z=             -0.3280  Tot=              0.8803
 Quadrupole moment (field-independent basis, Debye-Ang):
   XX=            -30.0119   YY=            -48.7066   ZZ=            -52.5426
   XY=             -1.1691   XZ=             -2.4554   YZ=              5.6778

  Exact polarizability:  87.328   3.694  57.547   3.600  -0.414  56.773
 Approx polarizability:  93.221   2.312  56.960   7.366  -3.864  71.383

 ******    4 imaginary frequencies (negative Signs) ******

                      1                      2                      3
                      A                      A                      A
 Frequencies --   -457.3645              -183.2716               -77.0693
 Red. masses --      1.0895                 1.7931                 5.5829
 Frc consts  --      0.1343                 0.0355                 0.0195
 IR Inten    --    125.0925                90.5322                 6.9257

                      4                      5                      6
                      A                      A                      A
 Frequencies --    -17.8389                65.6750                90.3144
 Red. masses --      2.9180                 3.1747                 3.1193
 Frc consts  --      0.0005                 0.0081                 0.0150
 IR Inten    --      0.2873                 2.3230                 7.2209

                      7                      8                      9
                      A                      A                      A
 Frequencies --    119.3316               173.6599               221.2541
 Red. masses --      4.9110                 1.3322                 2.7577
 Frc consts  --      0.0412                 0.0237                 0.0795
 IR Inten    --      9.1167                 1.7725                11.8543

                     10                     11                     12
                      A                      A                      A
 Frequencies --    284.1453               312.5211               423.6561
 Red. masses --      3.3600                 3.0859                 3.8627
 Frc consts  --      0.1598                 0.1776                 0.4085
 IR Inten    --     33.9608                16.1322                 1.0855

                     13                     14                     15
                      A                      A                      A
 Frequencies --    572.3280               624.7091               765.8540
 Red. masses --      4.2251                 5.3351                 3.2584
 Frc consts  --      0.8154                 1.2267                 1.1260
 IR Inten    --      2.8025                12.9532                82.4302

                     16                     17                     18
                      A                      A                      A
 Frequencies --    792.9552               817.1509               835.7239
 Red. masses --      1.5088                 1.2760                 1.6930
 Frc consts  --      0.5589                 0.5020                 0.6967
 IR Inten    --     56.4938                 5.5337                15.6170

                     19                     20                     21
                      A                      A                      A
 Frequencies --    899.4119               945.4925              1113.3071
 Red. masses --      3.4185                 2.5314                 4.1603
 Frc consts  --      1.6293                 1.3333                 3.0381
 IR Inten    --     20.9466                 5.5576                 8.1152

                     22                     23                     24
                      A                      A                      A
 Frequencies --   1159.4219              1228.6101              1329.9975
 Red. masses --      2.0874                 1.7538                 1.8418
 Frc consts  --      1.6533                 1.5597                 1.9195
 IR Inten    --     18.7992                 4.5061               291.0130

                     25                     26                     27
                      A                      A                      A
 Frequencies --   1374.0836              1444.1507              1457.3911
 Red. masses --      1.8429                 1.3843                 1.2713
 Frc consts  --      2.0501                 1.7010                 1.5909
 IR Inten    --    303.9398                41.9589                16.8249

                     28                     29                     30
                      A                      A                      A
 Frequencies --   1525.7042              1536.4833              1544.3011
 Red. masses --      1.0415                 1.0611                 1.0844
 Frc consts  --      1.4284                 1.4759                 1.5237
 IR Inten    --     14.6243                 2.0547                26.8411

                     31                     32                     33
                      A                      A                      A
 Frequencies --   1907.0181              2310.3607              3107.7144
 Red. masses --     12.2561                 5.6278                 1.0351
 Frc consts  --     26.2610                17.6990                 5.8899
 IR Inten    --    308.3776                60.6604                13.3679

                     34                     35                     36
                      A                      A                      A
 Frequencies --   3135.9086              3187.7789              3190.1266
 Red. masses --      1.0601                 1.1020                 1.1011
 Frc consts  --      6.1423                 6.5981                 6.6021
 IR Inten    --     21.7665                 7.4178                13.6604

                     37                     38                     39
                      A                      A                      A
 Frequencies --   3211.0876              3529.1311              3803.5881
 Red. masses --      1.1050                 1.1755                 1.0671
 Frc consts  --      6.7128                 8.6260                 9.0962
 IR Inten    --     17.6675                60.1483                 9.7020

 - Thermochemistry -
 -------------------
 Temperature   298.150 Kelvin.  Pressure   1.00000 Atm.
 Atom     1 has atomic number  8 and mass  15.99491

 Molecular mass:   115.03952 amu.
 Principal axes and moments of inertia in atomic units:
                           1         2         3
     Eigenvalues --   534.639561383.083901553.02693
           X            0.99995   0.00997  -0.00148
           Y           -0.00986   0.99801   0.06223
           Z            0.00210  -0.06221   0.99806
 This molecule is an asymmetric top.
 Rotational symmetry number  1.
 Warning -- assumption of classical behavior for rotation
           may cause significant error
 Rotational temperatures (Kelvin)      0.16200     0.06262     0.05577
 Rotational constants (GHZ):           3.37562     1.30487     1.16208
    4 imaginary frequencies ignored.
 Zero-point vibrational energy     293326.4 (Joules/Mol)
                                   70.10670 (Kcal/Mol)
 Warning -- explicit consideration of   9 degrees of freedom as
           vibrations may cause significant error
 Vibrational temperatures:     94.49   129.94   171.69   249.86   318.34
          (Kelvin)            408.82   449.65   609.55   823.45   898.82
                             1101.89  1140.89  1175.70  1202.42  1294.05
                             1360.35  1601.80  1668.15  1767.70  1913.57
                             1977.00  2077.81  2096.86  2195.15  2210.66
                             2221.90  2743.77  3324.09  4471.31  4511.87
                             4586.50  4589.88  4620.04  5077.63  5472.51

 Zero-point correction=                           0.111722 (Hartree/Particle)
 Thermal correction to Energy=                    0.119908
 Thermal correction to Enthalpy=                  0.120853
 Thermal correction to Gibbs Free Energy=         0.077421
 Sum of electronic and zero-point Energies=           -419.849343
 Sum of electronic and thermal Energies=              -419.841157
 Sum of electronic and thermal Enthalpies=            -419.840213
 Sum of electronic and thermal Free Energies=         -419.883644

                     E (Thermal)             CV                S
                      KCal/Mol        Cal/Mol-Kelvin    Cal/Mol-Kelvin
 Total                   75.244             27.213             91.409
 Electronic               0.000              0.000              1.377
 Translational            0.889              2.981             40.136
 Rotational               0.889              2.981             28.531
 Vibrational             73.466             21.251             21.365
 Vibration     1          0.597              1.971              4.279
 Vibration     2          0.602              1.956              3.653
 Vibration     3          0.609              1.933              3.111
 Vibration     4          0.627              1.875              2.395
 Vibration     5          0.648              1.809              1.949
 Vibration     6          0.683              1.703              1.509
 Vibration     7          0.701              1.650              1.349
 Vibration     8          0.786              1.419              0.880
 Vibration     9          0.929              1.091              0.500

 Normal termination of Gaussian 16 at Fri Jun 20 13:28:03 2025.
