 Gaussian 16, Revision A.03,
 Gaussian 16:  ES64L-G16RevA.03 25-Dec-2016

 --------------------------
 # ccsd(t)/6-311++g(d,p) sp
 --------------------------

 -------------------
 Title Card Required
 -------------------
 Symbolic Z-matrix:
 Charge =  0 Multiplicity = 2

                         Standard orientation:
 ---------------------------------------------------------------------
 Center     Atomic      Atomic             Coordinates (Angstroms)
 Number     Number       Type             X           Y           Z
 ---------------------------------------------------------------------
      1          8           0       -1.399437    1.744684    0.087529
      2          1           0       -2.032937    1.825776    0.819010
      3          6           0       -2.790960   -0.491932   -0.436857
      4          1           0       -3.820140   -0.540073   -0.706745
      5          6           0       -1.625836   -0.397145   -0.147902
      6          6           0       -0.223646   -0.572646    0.234689
      7          8           0        0.114003   -0.892943    1.339534
      8          8           0        0.579967   -0.372236   -0.801978
      9          6           0        1.993860   -0.456061   -0.530917
     10          6           0        2.485892    0.819745    0.122456
     11          1           0        2.442414   -0.609176   -1.510728
     12          1           0        2.180011   -1.328648    0.096305
     13          1           0        3.567910    0.769450    0.258883
     14          1           0        2.251146    1.680540   -0.504904
     15          1           0        2.019479    0.954329    1.098680
 ---------------------------------------------------------------------

 SCF Done:  E(UHF) =  -417.986242772     A.U. after   40 cycles
 E2 =    -0.1259354770D+01 EUMP2 =    -0.41924559754231D+03
 CCSD(T)= -0.41935525690D+03

 The electronic state is 2-A.
 Alpha  occ. eigenvalues --  -20.62903 -20.60978 -20.55548 -11.41400 -11.29422
 Alpha  occ. eigenvalues --  -11.26752 -11.25843 -11.22186  -1.48003  -1.38606
 Alpha  occ. eigenvalues --   -1.37674  -1.07752  -1.04076  -0.92496  -0.83617
 Alpha  occ. eigenvalues --   -0.76268  -0.73027  -0.69268  -0.68729  -0.66628
 Alpha  occ. eigenvalues --   -0.64734  -0.62842  -0.57870  -0.56075  -0.53838
 Alpha  occ. eigenvalues --   -0.53371  -0.50196  -0.47708  -0.45868  -0.42866
 Alpha  occ. eigenvalues --   -0.42215
 Alpha virt. eigenvalues --    0.03697   0.04603   0.05628   0.06817   0.07001
 Alpha virt. eigenvalues --    0.08766   0.09590   0.10129   0.10937   0.11510
 Alpha virt. eigenvalues --    0.13351   0.13879   0.14753   0.15570   0.16808

  Beta  occ. eigenvalues --  -20.60985 -20.58885 -20.55891 -11.41127 -11.29423
  Beta  occ. eigenvalues --  -11.27168 -11.25193 -11.22188  -1.48143  -1.38228
  Beta  occ. eigenvalues --   -1.23790  -1.07783  -1.03509  -0.91817  -0.83302
  Beta  occ. eigenvalues --   -0.76147  -0.72276  -0.69512  -0.67042  -0.63255
  Beta  occ. eigenvalues --   -0.62920  -0.58182  -0.55371  -0.53880  -0.50306
  Beta  occ. eigenvalues --   -0.50255  -0.48362  -0.46848  -0.43295  -0.42284
  Beta virt. eigenvalues --    0.03754   0.04509   0.04888   0.06684   0.07000
  Beta virt. eigenvalues --    0.08396   0.08915   0.09759   0.10684   0.11270
  Beta virt. eigenvalues --    0.12071   0.13516   0.14311   0.15163   0.15822

 Mulliken charges and spin densities:
               1          2
     1  O   -0.167613   0.960808
     2  H    0.238264  -0.036570
     3  C   -1.850318   0.701788
     4  H    0.198528  -0.054767
     5  C    1.827935  -0.702480
     6  C   -0.218216   0.197294
     7  O   -0.275682  -0.070551
     8  O   -0.023072   0.001674
     9  C   -0.151861   0.002590
    10  C   -0.386011   0.000522
    11  H    0.166509   0.000100
    12  H    0.173127   0.000105
    13  H    0.140278  -0.000084
    14  H    0.148644  -0.000469
    15  H    0.179487   0.000041
 Sum of Mulliken charges =  -0.00000   1.00000

 Dipole moment (field-independent basis, Debye):
    X=             -0.7644    Y=              0.6515    Z=             -0.6636  Tot=              1.2038
 Quadrupole moment (field-independent basis, Debye-Ang):
   XX=            -30.4307   YY=            -47.9933   ZZ=            -51.7923
   XY=             -1.4029   XZ=             -2.1454   YZ=              5.4764

 419.2996086\CCSD=-419.3021135\CCSD(T)=-419.3552569\S2=0.8958\S2-1=0.85
 Normal termination of Gaussian 16 at Fri Jul 18 15:32:20 2025.
