 Gaussian 16, Revision A.03,
 Gaussian 16:  ES64L-G16RevA.03 25-Dec-2016

 --------------------------
 # freq 6-311++g(d,p) m062x
 --------------------------

 -------------------
 Title Card Required
 -------------------
 Symbolic Z-matrix:
 Charge =  0 Multiplicity = 2

                         Standard orientation:
 ---------------------------------------------------------------------
 Center     Atomic      Atomic             Coordinates (Angstroms)
 Number     Number       Type             X           Y           Z
 ---------------------------------------------------------------------
      1          8           0       -1.403373    1.715179    0.092906
      2          1           0       -2.034730    1.813545    0.823588
      3          6           0       -2.786967   -0.491163   -0.439509
      4          1           0       -3.814625   -0.554467   -0.712487
      5          6           0       -1.623881   -0.357495   -0.145236
      6          6           0       -0.222684   -0.567383    0.232626
      7          8           0        0.111951   -0.902428    1.333576
      8          8           0        0.580593   -0.367813   -0.803888
      9          6           0        1.994626   -0.452805   -0.532764
     10          6           0        2.485013    0.820058    0.127809
     11          1           0        2.443559   -0.600101   -1.513256
     12          1           0        2.181119   -1.328750    0.089580
     13          1           0        3.566958    0.769827    0.264809
     14          1           0        2.249866    1.684019   -0.494996
     15          1           0        2.017840    0.949145    1.104453
 ---------------------------------------------------------------------

 SCF Done:  E(UM062X) =  -420.203473670     A.U. after   24 cycles

 The electronic state is 2-A.
 Alpha  occ. eigenvalues --  -19.68042 -19.66569 -19.62951 -10.70563 -10.60326
 Alpha  occ. eigenvalues --  -10.58591 -10.58047 -10.53367  -1.25578  -1.16278
 Alpha  occ. eigenvalues --   -1.12557  -0.90843  -0.87324  -0.78035  -0.70580
 Alpha  occ. eigenvalues --   -0.64388  -0.61908  -0.58480  -0.57160  -0.54160
 Alpha  occ. eigenvalues --   -0.53233  -0.50370  -0.48516  -0.46110  -0.45054
 Alpha  occ. eigenvalues --   -0.41715  -0.41637  -0.39567  -0.38277  -0.36541
 Alpha  occ. eigenvalues --   -0.34918
 Alpha virt. eigenvalues --   -0.00775  -0.00209   0.00508   0.01472   0.02530
 Alpha virt. eigenvalues --    0.02788   0.03574   0.04365   0.05650   0.06192
 Alpha virt. eigenvalues --    0.07137   0.07635   0.08456   0.09825   0.10705

  Beta  occ. eigenvalues --  -19.68046 -19.65084 -19.62969 -10.70542 -10.60326
  Beta  occ. eigenvalues --  -10.58616 -10.57868 -10.53367  -1.25583  -1.16316
  Beta  occ. eigenvalues --   -1.06033  -0.90378  -0.86947  -0.77847  -0.70384
  Beta  occ. eigenvalues --   -0.64306  -0.61506  -0.58425  -0.56689  -0.53206
  Beta  occ. eigenvalues --   -0.51706  -0.49003  -0.46553  -0.45108  -0.41706
  Beta  occ. eigenvalues --   -0.39462  -0.39095  -0.38397  -0.38038  -0.35972
  Beta virt. eigenvalues --   -0.09447  -0.00224   0.00281   0.00592   0.01765
  Beta virt. eigenvalues --    0.02644   0.02823   0.03590   0.04443   0.05721
  Beta virt. eigenvalues --    0.06182   0.07234   0.07596   0.08495   0.09909

 Mulliken charges and spin densities:
               1          2
     1  O   -0.228730   0.838880
     2  H    0.234264  -0.019338
     3  C   -1.010704   0.285238
     4  H    0.189978  -0.013111
     5  C    1.130445  -0.127623
     6  C   -0.397737   0.043512
     7  O   -0.199858  -0.008645
     8  O    0.058862   0.000523
     9  C   -0.274790  -0.000726
    10  C   -0.415746   0.002553
    11  H    0.194878   0.000122
    12  H    0.188560  -0.000010
    13  H    0.169800   0.000077
    14  H    0.171745  -0.000334
    15  H    0.189032  -0.001120
 Sum of Mulliken charges =  -0.00000   1.00000

 Dipole moment (field-independent basis, Debye):
    X=             -0.6572    Y=              0.0113    Z=             -0.6784  Tot=              0.9446
 Quadrupole moment (field-independent basis, Debye-Ang):
   XX=            -30.0991   YY=            -48.8285   ZZ=            -51.1933
   XY=             -0.0657   XZ=             -1.7653   YZ=              5.1032

  Exact polarizability:  91.398   6.701  70.446   4.572   2.381  59.514
 Approx polarizability:  98.713   6.767  74.407   7.530  -0.854  76.792

 ******    2 imaginary frequencies (negative Signs) ******

                      1                      2                      3
                      A                      A                      A
 Frequencies --   -299.6277               -14.9328                47.2893
 Red. masses --     11.8951                 4.8348                 3.9370
 Frc consts  --      0.6292                 0.0006                 0.0052
 IR Inten    --     35.3409                 7.0092                 1.4803

                      4                      5                      6
                      A                      A                      A
 Frequencies --    115.7269               140.0456               161.0858
 Red. masses --      3.6963                 5.2083                 2.5704
 Frc consts  --      0.0292                 0.0602                 0.0393
 IR Inten    --      1.6168                12.6716                 9.4237

                      7                      8                      9
                      A                      A                      A
 Frequencies --    210.9043               226.9803               257.5695
 Red. masses --      1.5947                 1.4327                 1.8846
 Frc consts  --      0.0418                 0.0435                 0.0737
 IR Inten    --     34.7822                 2.8153                32.6234

                     10                     11                     12
                      A                      A                      A
 Frequencies --    336.0210               428.1104               559.5853
 Red. masses --      2.9083                 3.7502                 3.7136
 Frc consts  --      0.1935                 0.4050                 0.6851
 IR Inten    --      9.7550                 3.5772                 7.5960

                     13                     14                     15
                      A                      A                      A
 Frequencies --    607.5354               668.3240               714.7808
 Red. masses --      6.4889                 1.1246                 1.3301
 Frc consts  --      1.4111                 0.2960                 0.4004
 IR Inten    --     12.6392                77.5243                31.0864

                     16                     17                     18
                      A                      A                      A
 Frequencies --    739.3320               772.6727               803.0681
 Red. masses --      1.3239                 7.8982                 1.2055
 Frc consts  --      0.4264                 2.7782                 0.4581
 IR Inten    --     23.0398                60.4294                 5.1514

                     19                     20                     21
                      A                      A                      A
 Frequencies --    897.4662               928.9083              1075.4419
 Red. masses --      3.2364                 2.7502                 4.1316
 Frc consts  --      1.5359                 1.3982                 2.8154
 IR Inten    --     15.9190                 6.1005                23.6833

                     22                     23                     24
                      A                      A                      A
 Frequencies --   1129.6861              1204.4432              1290.6427
 Red. masses --      2.0914                 1.7714                 3.6519
 Frc consts  --      1.5726                 1.5140                 3.5841
 IR Inten    --     22.5775                 5.8348               535.3748

                     25                     26                     27
                      A                      A                      A
 Frequencies --   1346.1875              1402.0681              1431.2501
 Red. masses --      1.2552                 1.2852                 1.3826
 Frc consts  --      1.3402                 1.4885                 1.6687
 IR Inten    --    100.6235                27.4020                13.1931

                     28                     29                     30
                      A                      A                      A
 Frequencies --   1491.2114              1502.4412              1515.0770
 Red. masses --      1.0400                 1.0548                 1.0934
 Frc consts  --      1.3626                 1.4028                 1.4787
 IR Inten    --     10.8985                 1.1497                21.3978

                     31                     32                     33
                      A                      A                      A
 Frequencies --   1844.9093              2193.2117              3075.8815
 Red. masses --     11.9944                 6.0459                 1.0353
 Frc consts  --     24.0536                17.1346                 5.7709
 IR Inten    --    342.7063                80.1735                 9.3884

                     34                     35                     36
                      A                      A                      A
 Frequencies --   3107.6800              3152.6984              3154.3242
 Red. masses --      1.0607                 1.1019                 1.1045
 Frc consts  --      6.0357                 6.4530                 6.4747
 IR Inten    --     19.8273                13.3714                 3.7387

                     37                     38                     39
                      A                      A                      A
 Frequencies --   3175.2726              3482.7866              3808.4643
 Red. masses --      1.1074                 1.1595                 1.0674
 Frc consts  --      6.5782                 8.2864                 9.1215
 IR Inten    --     14.7909                68.9172                43.2719

 - Thermochemistry -
 -------------------
 Temperature   298.150 Kelvin.  Pressure   1.00000 Atm.
 Atom     1 has atomic number  8 and mass  15.99491

 Molecular mass:   115.03952 amu.
 Principal axes and moments of inertia in atomic units:
                           1         2         3
     Eigenvalues --   506.743611379.454091525.02957
           X            0.99994   0.01087  -0.00079
           Y           -0.01078   0.99712   0.07512
           Z            0.00161  -0.07511   0.99717
 This molecule is an asymmetric top.
 Rotational symmetry number  1.
 Warning -- assumption of classical behavior for rotation
           may cause significant error
 Rotational temperatures (Kelvin)      0.17092     0.06279     0.05679
 Rotational constants (GHZ):           3.56145     1.30830     1.18341
    2 imaginary frequencies ignored.
 Zero-point vibrational energy     293079.6 (Joules/Mol)
                                   70.04771 (Kcal/Mol)
 Warning -- explicit consideration of  11 degrees of freedom as
           vibrations may cause significant error
 Vibrational temperatures:     68.04   166.51   201.49   231.77   303.44
          (Kelvin)            326.57   370.59   483.46   615.96   805.12
                              874.11   961.57  1028.41  1063.73  1111.70
                             1155.44  1291.25  1336.49  1547.32  1625.37
                             1732.93  1856.95  1936.86  2017.26  2059.25
                             2145.52  2161.68  2179.86  2654.41  3155.54
                             4425.51  4471.26  4536.03  4538.37  4568.51
                             5010.95  5479.53

 Zero-point correction=                           0.111628 (Hartree/Particle)
 Thermal correction to Energy=                    0.120545
 Thermal correction to Enthalpy=                  0.121489
 Thermal correction to Gibbs Free Energy=         0.076841
 Sum of electronic and zero-point Energies=           -420.091846
 Sum of electronic and thermal Energies=              -420.082929
 Sum of electronic and thermal Enthalpies=            -420.081985
 Sum of electronic and thermal Free Energies=         -420.126632

                     E (Thermal)             CV                S
                      KCal/Mol        Cal/Mol-Kelvin    Cal/Mol-Kelvin
 Total                   75.643             30.446             93.969
 Electronic               0.000              0.000              1.377
 Translational            0.889              2.981             40.136
 Rotational               0.889              2.981             28.457
 Vibrational             73.866             24.485             23.999
 Vibration     1          0.595              1.979              4.928
 Vibration     2          0.608              1.936              3.171
 Vibration     3          0.615              1.913              2.803
 Vibration     4          0.622              1.890              2.537
 Vibration     5          0.643              1.824              2.036
 Vibration     6          0.651              1.800              1.903
 Vibration     7          0.667              1.750              1.678
 Vibration     8          0.717              1.604              1.231
 Vibration     9          0.790              1.409              0.865
 Vibration    10          0.915              1.119              0.525
 Vibration    11          0.966              1.016              0.437

 1\1\GINC-AJ\Freq\UM062X\6-311++G(d,p)\C5H7O3(2)\AAYUSH\23-Jun-2025\0\\
 # freq 6-311++g(d,p) m062x\\Title Card Required\\0,2\O,-1.403373,1.715
 179,0.092906\H,-2.03473,1.813545,0.823588\C,-2.786967,-0.491163,-0.439
 509\H,-3.814625,-0.554467,-0.712487\C,-1.623881,-0.357495,-0.145236\C,
 -0.222684,-0.567383,0.232626\O,0.111951,-0.902428,1.333576\O,0.580593,
 -0.367813,-0.803888\C,1.994626,-0.452805,-0.532764\C,2.485013,0.820058
 ,0.127809\H,2.443559,-0.600101,-1.513256\H,2.181119,-1.32875,0.08958\H
 ,3.566958,0.769827,0.264809\H,2.249866,1.684019,-0.494996\H,2.01784,0.

 Normal termination of Gaussian 16 at Mon Jun 23 04:09:55 2025.
