 Gaussian 16, Revision A.03,
 Gaussian 16:  ES64L-G16RevA.03 25-Dec-2016

 --------------------------
 # ccsd(t)/6-311++g(d,p) sp
 --------------------------

 -------------------
 Title Card Required
 -------------------
 Symbolic Z-matrix:
 Charge =  0 Multiplicity = 2

                         Standard orientation:
 ---------------------------------------------------------------------
 Center     Atomic      Atomic             Coordinates (Angstroms)
 Number     Number       Type             X           Y           Z
 ---------------------------------------------------------------------
      1          8           0       -1.401452    1.729825    0.090239
      2          1           0       -2.034055    1.819805    0.821214
      3          6           0       -2.788929   -0.491430   -0.438179
      4          1           0       -3.817321   -0.547619   -0.709644
      5          6           0       -1.624829   -0.377492   -0.146624
      6          6           0       -0.223159   -0.569764    0.233682
      7          8           0        0.112940   -0.897754    1.336533
      8          8           0        0.580329   -0.369963   -0.802936
      9          6           0        1.994262   -0.454445   -0.531835
     10          6           0        2.485440    0.819903    0.125157
     11          1           0        2.443031   -0.604642   -1.511980
     12          1           0        2.180574   -1.328718    0.092949
     13          1           0        3.567417    0.769689    0.261913
     14          1           0        2.250489    1.682277   -0.499939
     15          1           0        2.018614    0.951717    1.101585
 ---------------------------------------------------------------------

 SCF Done:  E(UHF) =  -417.984799828     A.U. after   39 cycles
 E2 =    -0.1258777008D+01 EUMP2 =    -0.41924357683662D+03
 CCSD(T)= -0.41935470590D+03

 The electronic state is 2-A.
 Alpha  occ. eigenvalues --  -20.62811 -20.60967 -20.55526 -11.41380 -11.29419
 Alpha  occ. eigenvalues --  -11.26786 -11.25892 -11.22188  -1.47997  -1.38544
 Alpha  occ. eigenvalues --   -1.37659  -1.07777  -1.04100  -0.92508  -0.83612
 Alpha  occ. eigenvalues --   -0.76272  -0.73037  -0.69261  -0.68769  -0.66511
 Alpha  occ. eigenvalues --   -0.64690  -0.62814  -0.57835  -0.56033  -0.53832
 Alpha  occ. eigenvalues --   -0.53314  -0.50189  -0.47690  -0.45829  -0.42910
 Alpha  occ. eigenvalues --   -0.42217
 Alpha virt. eigenvalues --    0.03701   0.04605   0.05628   0.06819   0.07003
 Alpha virt. eigenvalues --    0.08760   0.09600   0.10207   0.10974   0.11546
 Alpha virt. eigenvalues --    0.13357   0.13885   0.14756   0.15585   0.16806

  Beta  occ. eigenvalues --  -20.60973 -20.58825 -20.55885 -11.41090 -11.29420
  Beta  occ. eigenvalues --  -11.27321 -11.25110 -11.22190  -1.48143  -1.38238
  Beta  occ. eigenvalues --   -1.23936  -1.07788  -1.03492  -0.91772  -0.83250
  Beta  occ. eigenvalues --   -0.76137  -0.72223  -0.69510  -0.67121  -0.63247
  Beta  occ. eigenvalues --   -0.62902  -0.58164  -0.55406  -0.53885  -0.50283
  Beta  occ. eigenvalues --   -0.50243  -0.48376  -0.46865  -0.43432  -0.42286
  Beta virt. eigenvalues --    0.03760   0.04507   0.04859   0.06677   0.07003
  Beta virt. eigenvalues --    0.08328   0.08909   0.09754   0.10721   0.11382
  Beta virt. eigenvalues --    0.12073   0.13528   0.14344   0.15225   0.15836

 Mulliken charges and spin densities:
               1          2
     1  O   -0.166652   0.949750
     2  H    0.239341  -0.036069
     3  C   -1.626108   0.775857
     4  H    0.201501  -0.059513
     5  C    1.642591  -0.757267
     6  C   -0.256456   0.196508
     7  O   -0.276538  -0.073715
     8  O   -0.024714   0.001801
     9  C   -0.153598   0.002274
    10  C   -0.386696   0.000819
    11  H    0.166318   0.000084
    12  H    0.172895   0.000157
    13  H    0.139977  -0.000112
    14  H    0.148931  -0.000500
    15  H    0.179208  -0.000073
 Sum of Mulliken charges =  -0.00000   1.00000

 Dipole moment (field-independent basis, Debye):
    X=             -0.7669    Y=              0.6325    Z=             -0.6731  Tot=              1.2005
 Quadrupole moment (field-independent basis, Debye-Ang):
   XX=            -30.4382   YY=            -48.0037   ZZ=            -51.7611
   XY=             -1.3151   XZ=             -2.1250   YZ=              5.4846

 MP3-0=-419.2812108\MP4SDQ=-419.2981992\CCSD=-419.301376\CCSD(T)=-419.3
 Normal termination of Gaussian 16 at Sun Aug  3 01:36:30 2025.
