 Gaussian 16, Revision A.03,
 Gaussian 16:  ES64L-G16RevA.03 25-Dec-2016

 --------------------------
 # freq 6-311++g(d,p) m062x
 --------------------------

 -------------------
 Title Card Required
 -------------------
 Symbolic Z-matrix:
 Charge =  0 Multiplicity = 2

                         Standard orientation:
 ---------------------------------------------------------------------
 Center     Atomic      Atomic             Coordinates (Angstroms)
 Number     Number       Type             X           Y           Z
 ---------------------------------------------------------------------
      1          8           0       -1.395101    1.775143    0.081783
      2          1           0       -2.028916    1.837384    0.815250
      3          6           0       -2.794990   -0.493677   -0.434183
      4          1           0       -3.825670   -0.523713   -0.700856
      5          6           0       -1.628057   -0.435255   -0.150144
      6          6           0       -0.224738   -0.579866    0.236651
      7          8           0        0.116250   -0.882793    1.345721
      8          8           0        0.578890   -0.377451   -0.800020
      9          6           0        1.992885   -0.459278   -0.529049
     10          6           0        2.486812    0.819454    0.116852
     11          1           0        2.440903   -0.618331   -1.508194
     12          1           0        2.178923   -1.328355    0.103134
     13          1           0        3.568939    0.768662    0.252345
     14          1           0        2.252551    1.677080   -0.515034
     15          1           0        2.021483    0.959806    1.092723
 ---------------------------------------------------------------------

 SCF Done:  E(UM062X) =  -420.206454035     A.U. after   24 cycles

 The electronic state is 2-A.
 Alpha  occ. eigenvalues --  -19.68002 -19.67405 -19.62899 -10.70520 -10.60298
 Alpha  occ. eigenvalues --  -10.57876 -10.57555 -10.53348  -1.25506  -1.16202
 Alpha  occ. eigenvalues --   -1.13204  -0.90595  -0.87148  -0.77934  -0.70483
 Alpha  occ. eigenvalues --   -0.64303  -0.61643  -0.58363  -0.57010  -0.54731
 Alpha  occ. eigenvalues --   -0.53248  -0.50468  -0.48628  -0.46187  -0.45019
 Alpha  occ. eigenvalues --   -0.42297  -0.41699  -0.39438  -0.38253  -0.36411
 Alpha  occ. eigenvalues --   -0.35780
 Alpha virt. eigenvalues --   -0.01044  -0.00203   0.00516   0.01474   0.02524
 Alpha virt. eigenvalues --    0.02794   0.03692   0.04423   0.05624   0.06162
 Alpha virt. eigenvalues --    0.07149   0.07695   0.08456   0.09812   0.10764

  Beta  occ. eigenvalues --  -19.68006 -19.65847 -19.62913 -10.70506 -10.60298
  Beta  occ. eigenvalues --  -10.57859 -10.57458 -10.53349  -1.25513  -1.16233
  Beta  occ. eigenvalues --   -1.05862  -0.90303  -0.86884  -0.77815  -0.70366
  Beta  occ. eigenvalues --   -0.64256  -0.61375  -0.58325  -0.56509  -0.53230
  Beta  occ. eigenvalues --   -0.52059  -0.49038  -0.46484  -0.45054  -0.41697
  Beta  occ. eigenvalues --   -0.39413  -0.39057  -0.38350  -0.38050  -0.36068
  Beta virt. eigenvalues --   -0.09014  -0.00468  -0.00014   0.00557   0.01771
  Beta virt. eigenvalues --    0.02630   0.02824   0.03722   0.04521   0.05695
  Beta virt. eigenvalues --    0.06191   0.07241   0.07730   0.08481   0.09911

 Mulliken charges and spin densities:
               1          2
     1  O   -0.221752   0.908484
     2  H    0.235090  -0.020270
     3  C   -1.777360   0.148631
     4  H    0.176633  -0.008545
     5  C    1.737823  -0.080159
     6  C   -0.247709   0.058207
     7  O   -0.197614  -0.006543
     8  O    0.061504   0.000234
     9  C   -0.264737   0.000218
    10  C   -0.416763   0.000306
    11  H    0.195130   0.000134
    12  H    0.189696  -0.000009
    13  H    0.170200   0.000053
    14  H    0.170616  -0.000108
    15  H    0.189241  -0.000632
 Sum of Mulliken charges =  -0.00000   1.00000

 Dipole moment (field-independent basis, Debye):
    X=             -0.6315    Y=              0.2203    Z=             -0.6125  Tot=              0.9069
 Quadrupole moment (field-independent basis, Debye-Ang):
   XX=            -30.3582   YY=            -48.5347   ZZ=            -51.3160
   XY=             -0.6542   XZ=             -1.9468   YZ=              5.0971

  Exact polarizability:  91.588   4.853  64.500   4.275   0.913  59.284
 Approx polarizability:  99.303   3.882  69.167   7.361  -2.060  76.649

 ******    1 imaginary frequencies (negative Signs) ******

                      1                      2                      3
                      A                      A                      A
 Frequencies --    -26.7954                36.3249               112.3260
 Red. masses --      4.8516                 4.1698                 4.2225
 Frc consts  --      0.0021                 0.0032                 0.0314
 IR Inten    --      7.9698                 1.7165                 1.1701

                      4                      5                      6
                      A                      A                      A
 Frequencies --    122.1180               159.4031               196.6020
 Red. masses --      4.0665                 2.5496                 5.1005
 Frc consts  --      0.0357                 0.0382                 0.1162
 IR Inten    --     11.1251                11.4165                 6.7698

                      7                      8                      9
                      A                      A                      A
 Frequencies --    210.0163               226.2028               264.5560
 Red. masses --      1.6009                 1.3481                 2.6632
 Frc consts  --      0.0416                 0.0406                 0.1098
 IR Inten    --     42.9107                 6.2444                21.5488

                     10                     11                     12
                      A                      A                      A
 Frequencies --    337.4823               426.6282               551.1467
 Red. masses --      2.9459                 3.7980                 1.7634
 Frc consts  --      0.1977                 0.4073                 0.3156
 IR Inten    --     10.1379                 4.0364                50.1520

                     13                     14                     15
                      A                      A                      A
 Frequencies --    576.8432               609.1433               726.6010
 Red. masses --      1.6751                 6.6501                 1.3253
 Frc consts  --      0.3284                 1.4538                 0.4122
 IR Inten    --     53.8758                 7.3137                37.6997

                     16                     17                     18
                      A                      A                      A
 Frequencies --    752.8216               778.7279               802.9080
 Red. masses --      1.3322                 7.2685                 1.2129
 Frc consts  --      0.4448                 2.5970                 0.4607
 IR Inten    --     21.6767                52.8563                 5.5249

                     19                     20                     21
                      A                      A                      A
 Frequencies --    897.6467               929.2763              1077.0861
 Red. masses --      3.2238                 2.7660                 4.1268
 Frc consts  --      1.5305                 1.4073                 2.8208
 IR Inten    --     15.7123                 5.5915                22.0083

                     22                     23                     24
                      A                      A                      A
 Frequencies --   1129.8753              1204.5576              1293.1233
 Red. masses --      2.0924                 1.7706                 3.5815
 Frc consts  --      1.5738                 1.5137                 3.5286
 IR Inten    --     22.4069                 5.2841               540.9572

                     25                     26                     27
                      A                      A                      A
 Frequencies --   1347.5651              1402.1640              1431.8555
 Red. masses --      1.2602                 1.2852                 1.3871
 Frc consts  --      1.3483                 1.4887                 1.6755
 IR Inten    --    106.4349                29.7497                11.8703

                     28                     29                     30
                      A                      A                      A
 Frequencies --   1490.8915              1502.4889              1515.0525
 Red. masses --      1.0401                 1.0559                 1.0926
 Frc consts  --      1.3621                 1.4044                 1.4776
 IR Inten    --     10.8095                 0.9925                21.0870

                     31                     32                     33
                      A                      A                      A
 Frequencies --   1842.1789              2234.7676              3075.6807
 Red. masses --     11.9955                 5.8760                 1.0353
 Frc consts  --     23.9846                17.2901                 5.7703
 IR Inten    --    336.0856                63.0769                 9.9591

                     34                     35                     36
                      A                      A                      A
 Frequencies --   3106.4077              3151.9832              3154.2199
 Red. masses --      1.0607                 1.1021                 1.1044
 Frc consts  --      6.0307                 6.4514                 6.4736
 IR Inten    --     19.9221                12.6801                 4.6592

                     37                     38                     39
                      A                      A                      A
 Frequencies --   3174.6235              3486.5714              3800.7539
 Red. masses --      1.1072                 1.1657                 1.0673
 Frc consts  --      6.5744                 8.3487                 9.0836
 IR Inten    --     15.0065                68.2225                36.9639

 - Thermochemistry -
 -------------------
 Temperature   298.150 Kelvin.  Pressure   1.00000 Atm.
 Atom     1 has atomic number  8 and mass  15.99491

 Molecular mass:   115.03952 amu.
 Principal axes and moments of inertia in atomic units:
                           1         2         3
     Eigenvalues --   521.790561381.927511540.64739
           X            0.99995   0.01032  -0.00118
           Y           -0.01022   0.99766   0.06757
           Z            0.00188  -0.06756   0.99771
 This molecule is an asymmetric top.
 Rotational symmetry number  1.
 Warning -- assumption of classical behavior for rotation
           may cause significant error
 Rotational temperatures (Kelvin)      0.16599     0.06268     0.05622
 Rotational constants (GHZ):           3.45875     1.30596     1.17142
    1 imaginary frequencies ignored.
 Zero-point vibrational energy     293914.2 (Joules/Mol)
                                   70.24719 (Kcal/Mol)
 Warning -- explicit consideration of  13 degrees of freedom as
           vibrations may cause significant error
 Vibrational temperatures:     52.26   161.61   175.70   229.35   282.87
          (Kelvin)            302.17   325.46   380.64   485.56   613.82
                              792.98   829.95   876.42  1045.42  1083.14
                             1120.42  1155.21  1291.51  1337.02  1549.69
                             1625.64  1733.09  1860.52  1938.85  2017.40
                             2060.12  2145.06  2161.75  2179.82  2650.48
                             3215.33  4425.22  4469.43  4535.00  4538.22
                             4567.58  5016.40  5468.44

 Zero-point correction=                           0.111946 (Hartree/Particle)
 Thermal correction to Energy=                    0.121526
 Thermal correction to Enthalpy=                  0.122471
 Thermal correction to Gibbs Free Energy=         0.076321
 Sum of electronic and zero-point Energies=           -420.094508
 Sum of electronic and thermal Energies=              -420.084928
 Sum of electronic and thermal Enthalpies=            -420.083983
 Sum of electronic and thermal Free Energies=         -420.130133

                     E (Thermal)             CV                S
                      KCal/Mol        Cal/Mol-Kelvin    Cal/Mol-Kelvin
 Total                   76.259             32.451             97.130
 Electronic               0.000              0.000              1.377
 Translational            0.889              2.981             40.136
 Rotational               0.889              2.981             28.498
 Vibrational             74.482             26.490             27.119
 Vibration     1          0.594              1.982              5.450
 Vibration     2          0.607              1.939              3.228
 Vibration     3          0.610              1.931              3.067
 Vibration     4          0.621              1.892              2.557
 Vibration     5          0.636              1.845              2.165
 Vibration     6          0.642              1.826              2.044
 Vibration     7          0.650              1.801              1.909
 Vibration     8          0.671              1.738              1.632
 Vibration     9          0.718              1.601              1.224
 Vibration    10          0.788              1.412              0.870
 Vibration    11          0.906              1.137              0.542
 Vibration    12          0.933              1.081              0.491
 Vibration    13          0.968              1.012              0.434

 1\1\GINC-AJ\Freq\UM062X\6-311++G(d,p)\C5H7O3(2)\AAYUSH\23-Jun-2025\0\\
 # freq 6-311++g(d,p) m062x\\Title Card Required\\0,2\O,-1.395101,1.775
 143,0.081783\H,-2.028916,1.837384,0.81525\C,-2.79499,-0.493677,-0.4341
 83\H,-3.82567,-0.523713,-0.700856\C,-1.628057,-0.435255,-0.150144\C,-0
 .224738,-0.579866,0.236651\O,0.11625,-0.882793,1.345721\O,0.57889,-0.3
 77451,-0.80002\C,1.992885,-0.459278,-0.529049\C,2.486812,0.819454,0.11
 6852\H,2.440903,-0.618331,-1.508194\H,2.178923,-1.328355,0.103134\H,3.
 568939,0.768662,0.252345\H,2.252551,1.67708,-0.515034\H,2.021483,0.959

 Normal termination of Gaussian 16 at Mon Jun 23 03:42:22 2025.
