 Gaussian 16, Revision A.03,
 Gaussian 16:  ES64L-G16RevA.03 25-Dec-2016

 -------------------
 # freq 6-31+g m062x
 -------------------

 -------------------
 Title Card Required
 -------------------
 Symbolic Z-matrix:
 Charge =  0 Multiplicity = 2

                         Standard orientation:
 ---------------------------------------------------------------------
 Center     Atomic      Atomic             Coordinates (Angstroms)
 Number     Number       Type             X           Y           Z
 ---------------------------------------------------------------------
      1          8           0       -1.414142    1.618470    0.111896
      2          1           0       -2.034284    1.758157    0.841779
      3          6           0       -2.777339   -0.496337   -0.450019
      4          1           0       -3.802398   -0.578087   -0.730471
      5          6           0       -1.617373   -0.210378   -0.131774
      6          6           0       -0.220439   -0.562382    0.223241
      7          8           0        0.107438   -0.932983    1.313317
      8          8           0        0.581206   -0.353255   -0.810593
      9          6           0        1.996442   -0.440755   -0.540042
     10          6           0        2.482917    0.820421    0.145737
     11          1           0        2.445897   -0.567788   -1.523005
     12          1           0        2.183920   -1.328518    0.064829
     13          1           0        3.564751    0.768622    0.283104
     14          1           0        2.246563    1.695887   -0.460080
     15          1           0        2.014283    0.930455    1.124029
 ---------------------------------------------------------------------

 SCF Done:  E(UM062X) =  -419.955454215     A.U. after   21 cycles

 The electronic state is 2-A.
 Alpha  occ. eigenvalues --  -19.70595 -19.67224 -19.66450 -10.73083 -10.63411
 Alpha  occ. eigenvalues --  -10.61414 -10.61140 -10.54165  -1.28225  -1.18876
 Alpha  occ. eigenvalues --   -1.12211  -0.92317  -0.88386  -0.78738  -0.71552
 Alpha  occ. eigenvalues --   -0.64837  -0.62990  -0.59082  -0.57582  -0.53738
 Alpha  occ. eigenvalues --   -0.53312  -0.49827  -0.48168  -0.46311  -0.45127
 Alpha  occ. eigenvalues --   -0.41812  -0.40486  -0.39682  -0.38177  -0.36907
 Alpha  occ. eigenvalues --   -0.32311
 Alpha virt. eigenvalues --   -0.00388   0.01730   0.02305   0.02918   0.03734
 Alpha virt. eigenvalues --    0.04295   0.05589   0.05974   0.07707   0.07795
 Alpha virt. eigenvalues --    0.08872   0.08917   0.09900   0.11599   0.12089

  Beta  occ. eigenvalues --  -19.70595 -19.66471 -19.66167 -10.73027 -10.63566
  Beta  occ. eigenvalues --  -10.61413 -10.60672 -10.54166  -1.28212  -1.18897
  Beta  occ. eigenvalues --   -1.08584  -0.91323  -0.87770  -0.78344  -0.71054
  Beta  occ. eigenvalues --   -0.64634  -0.62185  -0.58863  -0.57317  -0.53677
  Beta  occ. eigenvalues --   -0.51550  -0.49109  -0.46789  -0.45274  -0.41744
  Beta  occ. eigenvalues --   -0.41192  -0.39494  -0.38332  -0.38141  -0.35481
  Beta virt. eigenvalues --   -0.10078   0.00901   0.01678   0.02317   0.02948
  Beta virt. eigenvalues --    0.03812   0.04360   0.05574   0.05875   0.07697
  Beta virt. eigenvalues --    0.07721   0.08779   0.08923   0.10080   0.11529

 Mulliken charges and spin densities:
               1          2
     1  O   -0.493224   0.539236
     2  H    0.409959  -0.016827
     3  C    0.427945   0.765021
     4  H    0.304231  -0.027853
     5  C   -0.427506  -0.317175
     6  C   -0.023035   0.065402
     7  O   -0.345134  -0.009256
     8  O   -0.166822   0.000244
     9  C   -0.258258   0.000438
    10  C   -0.555017   0.000991
    11  H    0.221494  -0.000015
    12  H    0.234757  -0.000166
    13  H    0.204546  -0.000080
    14  H    0.230594  -0.000006
    15  H    0.235471   0.000046
 Sum of Mulliken charges =  -0.00000   1.00000

 Dipole moment (field-independent basis, Debye):
    X=             -0.8566    Y=             -0.6377    Z=             -0.5857  Tot=              1.2180
 Quadrupole moment (field-independent basis, Debye-Ang):
   XX=            -29.0855   YY=            -50.3610   ZZ=            -52.1375
   XY=              0.8122   XZ=             -1.8159   YZ=              5.5643

  Exact polarizability:  85.597   7.474  68.856   3.785   2.331  57.083
 Approx polarizability:  88.483  10.830  74.719   6.974  -0.404  71.632

 ******    3 imaginary frequencies (negative Signs) ******

                      1                      2                      3
                      A                      A                      A
 Frequencies --   -705.7371              -460.9754               -75.8713
 Red. masses --     12.6241                 1.0759                 7.0053
 Frc consts  --      3.7046                 0.1347                 0.0238
 IR Inten    --      3.1986               112.7593                 6.2780

                      4                      5                      6
                      A                      A                      A
 Frequencies --     11.9829                37.4603               125.5210
 Red. masses --      2.6784                 3.5275                 2.4160
 Frc consts  --      0.0002                 0.0029                 0.0224
 IR Inten    --      1.5390                 5.6134                 5.9907

                      7                      8                      9
                      A                      A                      A
 Frequencies --    183.2555               206.1686               265.7063
 Red. masses --      1.5254                 7.0868                 3.3866
 Frc consts  --      0.0302                 0.1775                 0.1409
 IR Inten    --      2.2452                 0.8235                 5.2479

                     10                     11                     12
                      A                      A                      A
 Frequencies --    308.3147               425.6486               486.2571
 Red. masses --      2.9946                 3.4516                 1.3892
 Frc consts  --      0.1677                 0.3684                 0.1935
 IR Inten    --     14.6112                 5.1448                41.3019

                     13                     14                     15
                      A                      A                      A
 Frequencies --    563.7997               615.3425               713.9063
 Red. masses --      3.3908                 6.2283                 9.1907
 Frc consts  --      0.6350                 1.3895                 2.7598
 IR Inten    --     17.2942                15.4686                39.2046

                     16                     17                     18
                      A                      A                      A
 Frequencies --    725.6518               816.3815               822.9687
 Red. masses --      1.2828                 1.3103                 1.2744
 Frc consts  --      0.3980                 0.5145                 0.5085
 IR Inten    --     56.3538                 7.8444                62.4727

                     19                     20                     21
                      A                      A                      A
 Frequencies --    894.4306               940.6001              1105.2235
 Red. masses --      3.2180                 2.4823                 4.2004
 Frc consts  --      1.5168                 1.2939                 3.0230
 IR Inten    --     22.2191                 5.7871                13.4342

                     22                     23                     24
                      A                      A                      A
 Frequencies --   1158.0502              1228.1228              1322.0621
 Red. masses --      2.0557                 1.7444                 2.1084
 Frc consts  --      1.6243                 1.5502                 2.1713
 IR Inten    --     17.7983                 6.5465               319.2763

                     25                     26                     27
                      A                      A                      A
 Frequencies --   1367.5098              1440.9463              1458.9434
 Red. masses --      1.6848                 1.3754                 1.2494
 Frc consts  --      1.8563                 1.6826                 1.5668
 IR Inten    --    239.6210                26.8816                20.1309

                     28                     29                     30
                      A                      A                      A
 Frequencies --   1526.4661              1536.8025              1545.2530
 Red. masses --      1.0411                 1.0532                 1.0906
 Frc consts  --      1.4293                 1.4655                 1.5343
 IR Inten    --     15.1836                 2.5654                26.4876

                     31                     32                     33
                      A                      A                      A
 Frequencies --   1912.0005              2033.3509              3108.8278
 Red. masses --     11.7295                 6.8637                 1.0351
 Frc consts  --     25.2643                16.7199                 5.8941
 IR Inten    --    311.3648                58.1648                11.5881

                     34                     35                     36
                      A                      A                      A
 Frequencies --   3139.6150              3190.6133              3191.2558
 Red. masses --      1.0602                 1.1037                 1.0992
 Frc consts  --      6.1573                 6.6196                 6.5956
 IR Inten    --     21.0973                 0.1304                19.3169

                     37                     38                     39
                      A                      A                      A
 Frequencies --   3212.9606              3503.2213              3852.4829
 Red. masses --      1.1054                 1.1382                 1.0673
 Frc consts  --      6.7232                 8.2298                 9.3333
 IR Inten    --     16.4923                67.0152                28.8792

 - Thermochemistry -
 -------------------
 Temperature   298.150 Kelvin.  Pressure   1.00000 Atm.
 Atom     1 has atomic number  8 and mass  15.99491

 Molecular mass:   115.03952 amu.
 Principal axes and moments of inertia in atomic units:
                           1         2         3
     Eigenvalues --   484.893331375.968491502.53134
           X            0.99993   0.01157  -0.00016
           Y           -0.01151   0.99601   0.08846
           Z            0.00119  -0.08846   0.99608
 This molecule is an asymmetric top.
 Rotational symmetry number  1.
 Warning -- assumption of classical behavior for rotation
           may cause significant error
 Rotational temperatures (Kelvin)      0.17862     0.06295     0.05765
 Rotational constants (GHZ):           3.72193     1.31162     1.20113
    3 imaginary frequencies ignored.
 Zero-point vibrational energy     292948.1 (Joules/Mol)
                                   70.01629 (Kcal/Mol)
 Warning -- explicit consideration of  11 degrees of freedom as
           vibrations may cause significant error
 Vibrational temperatures:     17.24    53.90   180.60   263.66   296.63
          (Kelvin)            382.29   443.60   612.41   699.62   811.18
                              885.34  1027.15  1044.05  1174.59  1184.07
                             1286.89  1353.31  1590.17  1666.18  1766.99
                             1902.15  1967.54  2073.20  2099.09  2196.24
                             2211.12  2223.27  2750.94  2925.54  4472.91
                             4517.21  4590.58  4591.51  4622.73  5040.35
                             5542.86

 Zero-point correction=                           0.111578 (Hartree/Particle)
 Thermal correction to Energy=                    0.120303
 Thermal correction to Enthalpy=                  0.121247
 Thermal correction to Gibbs Free Energy=         0.075014
 Sum of electronic and zero-point Energies=           -419.843876
 Sum of electronic and thermal Energies=              -419.835151
 Sum of electronic and thermal Enthalpies=            -419.834207
 Sum of electronic and thermal Free Energies=         -419.880440

                     E (Thermal)             CV                S
                      KCal/Mol        Cal/Mol-Kelvin    Cal/Mol-Kelvin
 Total                   75.491             28.882             97.305
 Electronic               0.000              0.000              1.377
 Translational            0.889              2.981             40.136
 Rotational               0.889              2.981             28.396
 Vibrational             73.714             22.920             27.396
 Vibration     1          0.593              1.987              7.652
 Vibration     2          0.594              1.982              5.389
 Vibration     3          0.610              1.928              3.014
 Vibration     4          0.631              1.863              2.295
 Vibration     5          0.641              1.831              2.077
 Vibration     6          0.672              1.736              1.624
 Vibration     7          0.698              1.658              1.371
 Vibration     8          0.787              1.414              0.873
 Vibration     9          0.842              1.281              0.693
 Vibration    10          0.920              1.110              0.516
 Vibration    11          0.975              0.999              0.424

 Normal termination of Gaussian 16 at Fri Jun 20 13:23:08 2025.
