 Gaussian 16, Revision A.03,
 Gaussian 16:  ES64L-G16RevA.03 25-Dec-2016

 --------------------------
 # ccsd(t)/6-311++g(d,p) sp
 --------------------------

 -------------------
 Title Card Required
 -------------------
 Symbolic Z-matrix:
 Charge =  0 Multiplicity = 2

                         Standard orientation:
 ---------------------------------------------------------------------
 Center     Atomic      Atomic             Coordinates (Angstroms)
 Number     Number       Type             X           Y           Z
 ---------------------------------------------------------------------
      1          8           0       -1.405177    1.700765    0.095557
      2          1           0       -2.035120    1.806774    0.826051
      3          6           0       -2.785100   -0.491094   -0.440856
      4          1           0       -3.812030   -0.560831   -0.715320
      5          6           0       -1.622994   -0.337180   -0.143730
      6          6           0       -0.222209   -0.565420    0.231526
      7          8           0        0.111020   -0.907001    1.330639
      8          8           0        0.580770   -0.365733   -0.804837
      9          6           0        1.994955   -0.451155   -0.533714
     10          6           0        2.484620    0.820180    0.130425
     11          1           0        2.444014   -0.595571   -1.514555
     12          1           0        2.181624   -1.328767    0.086189
     13          1           0        3.566536    0.769847    0.267617
     14          1           0        2.249287    1.685743   -0.490048
     15          1           0        2.017142    0.946575    1.107292
 ---------------------------------------------------------------------

 SCF Done:  E(UHF) =  -417.981872166     A.U. after   39 cycles
 E2 =    -0.1257617040D+01 EUMP2 =    -0.41923948920560D+03
 CCSD(T)= -0.41935380761D+03

 The electronic state is 2-A.
 Alpha  occ. eigenvalues --  -20.62578 -20.60951 -20.55493 -11.41342 -11.29418
 Alpha  occ. eigenvalues --  -11.26901 -11.26084 -11.22190  -1.47997  -1.38363
 Alpha  occ. eigenvalues --   -1.37640  -1.07847  -1.04152  -0.92526  -0.83604
 Alpha  occ. eigenvalues --   -0.76293  -0.73063  -0.69256  -0.68827  -0.66212
 Alpha  occ. eigenvalues --   -0.64565  -0.62757  -0.57765  -0.55914  -0.53822
 Alpha  occ. eigenvalues --   -0.53187  -0.50177  -0.47672  -0.45763  -0.43019
 Alpha  occ. eigenvalues --   -0.42228
 Alpha virt. eigenvalues --    0.03707   0.04610   0.05632   0.06821   0.07008
 Alpha virt. eigenvalues --    0.08749   0.09619   0.10362   0.11055   0.11618
 Alpha virt. eigenvalues --    0.13364   0.13900   0.14746   0.15624   0.16803

  Beta  occ. eigenvalues --  -20.60957 -20.58682 -20.55876 -11.41019 -11.29418
  Beta  occ. eigenvalues --  -11.27735 -11.24977 -11.22192  -1.48149  -1.38261
  Beta  occ. eigenvalues --   -1.24289  -1.07783  -1.03457  -0.91669  -0.83130
  Beta  occ. eigenvalues --   -0.76125  -0.72116  -0.69508  -0.67286  -0.63233
  Beta  occ. eigenvalues --   -0.62865  -0.58120  -0.55477  -0.53896  -0.50258
  Beta  occ. eigenvalues --   -0.50183  -0.48407  -0.46898  -0.43782  -0.42295
  Beta virt. eigenvalues --    0.03771   0.04497   0.04795   0.06658   0.07007
  Beta virt. eigenvalues --    0.08183   0.08899   0.09744   0.10754   0.11635
  Beta virt. eigenvalues --    0.12061   0.13549   0.14402   0.15353   0.15877

 Mulliken charges and spin densities:
               1          2
     1  O   -0.166365   0.921960
     2  H    0.241705  -0.034897
     3  C   -1.193278   0.930615
     4  H    0.207158  -0.069645
     5  C    1.302466  -0.866863
     6  C   -0.345932   0.192918
     7  O   -0.278462  -0.078617
     8  O   -0.028240   0.002129
     9  C   -0.157613   0.001730
    10  C   -0.387404   0.001331
    11  H    0.165974   0.000064
    12  H    0.172567   0.000238
    13  H    0.139208  -0.000170
    14  H    0.149559  -0.000565
    15  H    0.178658  -0.000230
 Sum of Mulliken charges =  -0.00000   1.00000

 Dipole moment (field-independent basis, Debye):
    X=             -0.7751    Y=              0.5703    Z=             -0.6960  Tot=              1.1876
 Quadrupole moment (field-independent basis, Debye-Ang):
   XX=            -30.4436   YY=            -48.0730   ZZ=            -51.6953
   XY=             -1.1142   XZ=             -2.0786   YZ=              5.4957

 419.2802267\MP4SDQ=-419.295408\CCSD=-419.300046\CCSD(T)=-419.3538076\S
 Normal termination of Gaussian 16 at Sat Aug  2 11:23:40 2025.
