 Gaussian 16, Revision A.03,
 Gaussian 16:  ES64L-G16RevA.03 25-Dec-2016

 --------------------------
 # ccsd(t)/6-311++g(d,p) sp
 --------------------------

 -------------------
 Title Card Required
 -------------------
 Symbolic Z-matrix:
 Charge =  0 Multiplicity = 2

                         Standard orientation:
 ---------------------------------------------------------------------
 Center     Atomic      Atomic             Coordinates (Angstroms)
 Number     Number       Type             X           Y           Z
 ---------------------------------------------------------------------
      1          8           0       -1.412704    1.631877    0.109129
      2          1           0       -2.034551    1.766492    0.839218
      3          6           0       -2.778495   -0.494791   -0.448357
      4          1           0       -3.803505   -0.577991   -0.728180
      5          6           0       -1.618415   -0.231787   -0.134093
      6          6           0       -0.220472   -0.562235    0.224811
      7          8           0        0.107860   -0.928686    1.316246
      8          8           0        0.581114   -0.355405   -0.809620
      9          6           0        1.996228   -0.442564   -0.538935
     10          6           0        2.483171    0.820399    0.143153
     11          1           0        2.445567   -0.572563   -1.521575
     12          1           0        2.183551   -1.328629    0.068489
     13          1           0        3.565016    0.768835    0.280527
     14          1           0        2.246972    1.694176   -0.465179
     15          1           0        2.014688    0.933260    1.121198
 ---------------------------------------------------------------------

 SCF Done:  E(UHF) =  -417.976774135     A.U. after   30 cycles
 E2 =    -0.1257029392D+01 EUMP2 =    -0.41923380352690D+03
 CCSD(T)= -0.41935548062D+03

 The electronic state is 2-A.
 Alpha  occ. eigenvalues --  -20.61572 -20.60977 -20.55531 -11.41253 -11.29435
 Alpha  occ. eigenvalues --  -11.27692 -11.27376 -11.22177  -1.48059  -1.37743
 Alpha  occ. eigenvalues --   -1.37323  -1.08178  -1.04287  -0.92584  -0.83683
 Alpha  occ. eigenvalues --   -0.76433  -0.73184  -0.69258  -0.68860  -0.65282
 Alpha  occ. eigenvalues --   -0.63617  -0.62614  -0.57618  -0.55402  -0.53802
 Alpha  occ. eigenvalues --   -0.52688  -0.50162  -0.47802  -0.45739  -0.43444
 Alpha  occ. eigenvalues --   -0.42227
 Alpha virt. eigenvalues --    0.03702   0.04623   0.05677   0.06830   0.07016
 Alpha virt. eigenvalues --    0.08737   0.09689   0.10622   0.11230   0.11857
 Alpha virt. eigenvalues --    0.13340   0.13923   0.14675   0.15725   0.16794

  Beta  occ. eigenvalues --  -20.60980 -20.58150 -20.55916 -11.40878 -11.29666
  Beta  occ. eigenvalues --  -11.29436 -11.24993 -11.22179  -1.48202  -1.38327
  Beta  occ. eigenvalues --   -1.25740  -1.07642  -1.03329  -0.91375  -0.82793
  Beta  occ. eigenvalues --   -0.76157  -0.71911  -0.69534  -0.67723  -0.63234
  Beta  occ. eigenvalues --   -0.62762  -0.57961  -0.55671  -0.53917  -0.50227
  Beta  occ. eigenvalues --   -0.49906  -0.48552  -0.46969  -0.45260  -0.42314
  Beta virt. eigenvalues --    0.03788   0.04372   0.04665   0.06575   0.07014
  Beta virt. eigenvalues --    0.07783   0.08870   0.09730   0.10682   0.11961
  Beta virt. eigenvalues --    0.12289   0.13565   0.14474   0.15678   0.16008

 Mulliken charges and spin densities:
               1          2
     1  O   -0.186924   0.794109
     2  H    0.249098  -0.029443
     3  C   -0.413043   1.324588
     4  H    0.222361  -0.095184
     5  C    0.639179  -1.104738
     6  C   -0.441098   0.184162
     7  O   -0.283504  -0.078463
     8  O   -0.036275   0.003228
     9  C   -0.166978   0.001175
    10  C   -0.386596   0.001395
    11  H    0.165148   0.000076
    12  H    0.172491   0.000328
    13  H    0.137397  -0.000320
    14  H    0.151214  -0.000649
    15  H    0.177530  -0.000264
 Sum of Mulliken charges =  -0.00000   1.00000

 Dipole moment (field-independent basis, Debye):
    X=             -0.8334    Y=              0.2396    Z=             -0.7815  Tot=              1.1674
 Quadrupole moment (field-independent basis, Debye-Ang):
   XX=            -30.3278   YY=            -48.6483   ZZ=            -51.5177
   XY=             -0.4420   XZ=             -1.9215   YZ=              5.4729

 PMP3-0=-419.2824492\MP4SDQ=-419.2923888\CCSD=-419.3005155\CCSD(T)=-419
 Normal termination of Gaussian 16 at Sun Aug  3 04:07:45 2025.
