 Gaussian 16, Revision A.03,
 Gaussian 16:  ES64L-G16RevA.03 25-Dec-2016

 --------------------------
 # freq 6-311++g(d,p) m062x
 --------------------------

 -------------------
 Title Card Required
 -------------------
 Symbolic Z-matrix:
 Charge =  0 Multiplicity = 2

                         Standard orientation:
 ---------------------------------------------------------------------
 Center     Atomic      Atomic             Coordinates (Angstroms)
 Number     Number       Type             X           Y           Z
 ---------------------------------------------------------------------
      1          8           0       -1.388043    1.823173    0.071642
      2          1           0       -2.016679    1.855349    0.812043
      3          6           0       -2.799951   -0.498405   -0.430213
      4          1           0       -3.832297   -0.499763   -0.692523
      5          6           0       -1.631516   -0.488841   -0.152523
      6          6           0       -0.226717   -0.593506    0.239872
      7          8           0        0.119294   -0.866286    1.355606
      8          8           0        0.576449   -0.388315   -0.796951
      9          6           0        1.990973   -0.464197   -0.525925
     10          6           0        2.487606    0.819435    0.107850
     11          1           0        2.438151   -0.632290   -1.503987
     12          1           0        2.178071   -1.327345    0.114126
     13          1           0        3.569991    0.767367    0.241175
     14          1           0        2.254045    1.672093   -0.530981
     15          1           0        2.024741    0.969093    1.083406
 ---------------------------------------------------------------------

 SCF Done:  E(UM062X) =  -420.208198405     A.U. after   23 cycles

 The electronic state is 2-A.
 Alpha  occ. eigenvalues --  -19.68003 -19.67805 -19.62911 -10.70530 -10.60297
 Alpha  occ. eigenvalues --  -10.57668 -10.57384 -10.53335  -1.25492  -1.16183
 Alpha  occ. eigenvalues --   -1.13464  -0.90502  -0.87074  -0.77887  -0.70448
 Alpha  occ. eigenvalues --   -0.64280  -0.61540  -0.58308  -0.56898  -0.55027
 Alpha  occ. eigenvalues --   -0.53268  -0.50452  -0.48693  -0.46228  -0.44998
 Alpha  occ. eigenvalues --   -0.42604  -0.41699  -0.39406  -0.38262  -0.36417
 Alpha  occ. eigenvalues --   -0.36187
 Alpha virt. eigenvalues --   -0.01234  -0.00201   0.00519   0.01492   0.02516
 Alpha virt. eigenvalues --    0.02796   0.03716   0.04451   0.05613   0.06407
 Alpha virt. eigenvalues --    0.07141   0.07827   0.08493   0.10025   0.10895

  Beta  occ. eigenvalues --  -19.68008 -19.66223 -19.62922 -10.70520 -10.60297
  Beta  occ. eigenvalues --  -10.57635 -10.57324 -10.53335  -1.25499  -1.16208
  Beta  occ. eigenvalues --   -1.05802  -0.90282  -0.86868  -0.77798  -0.70363
  Beta  occ. eigenvalues --   -0.64247  -0.61338  -0.58282  -0.56416  -0.53255
  Beta  occ. eigenvalues --   -0.52238  -0.49058  -0.46451  -0.45024  -0.41701
  Beta  occ. eigenvalues --   -0.39414  -0.39182  -0.38325  -0.37967  -0.36126
  Beta virt. eigenvalues --   -0.08962  -0.00767  -0.00064   0.00556   0.01789
  Beta virt. eigenvalues --    0.02620   0.02824   0.03757   0.04561   0.05684
  Beta virt. eigenvalues --    0.06424   0.07229   0.07918   0.08530   0.10174

 Mulliken charges and spin densities:
               1          2
     1  O   -0.222585   0.937254
     2  H    0.234312  -0.021320
     3  C   -0.486466   0.132674
     4  H    0.199330  -0.006904
     5  C    0.935034  -0.039078
     6  C   -0.765343   0.002827
     7  O   -0.195761  -0.005048
     8  O    0.057358   0.000209
     9  C   -0.252964  -0.000554
    10  C   -0.415098   0.000336
    11  H    0.195461   0.000076
    12  H    0.190017  -0.000106
    13  H    0.167164   0.000093
    14  H    0.170236  -0.000118
    15  H    0.189305  -0.000341
 Sum of Mulliken charges =  -0.00000   1.00000

 Dipole moment (field-independent basis, Debye):
    X=             -0.6186    Y=              0.2764    Z=             -0.5744  Tot=              0.8883
 Quadrupole moment (field-independent basis, Debye-Ang):
   XX=            -30.5031   YY=            -48.4599   ZZ=            -51.3932
   XY=             -0.9353   XZ=             -2.0467   YZ=              5.0775

  Exact polarizability:  91.602   3.913  61.711   4.114   0.244  59.184
 Approx polarizability:  99.404   2.199  66.557   7.260  -2.599  76.587

 ******    1 imaginary frequencies (negative Signs) ******

                      1                      2                      3
                      A                      A                      A
 Frequencies --     -6.9507                39.0109               108.7570
 Red. masses --      4.9919                 4.2221                 4.9997
 Frc consts  --      0.0001                 0.0038                 0.0348
 IR Inten    --      7.8517                 1.0651                 1.5756

                      4                      5                      6
                      A                      A                      A
 Frequencies --    119.4789               158.4725               197.1549
 Red. masses --      3.5712                 2.5440                 3.2646
 Frc consts  --      0.0300                 0.0376                 0.0748
 IR Inten    --      8.7666                11.0856                12.9898

                      7                      8                      9
                      A                      A                      A
 Frequencies --    217.3097               229.8977               291.7340
 Red. masses --      1.5085                 1.3730                 3.7605
 Frc consts  --      0.0420                 0.0428                 0.1886
 IR Inten    --     26.4778                29.3691                 9.3194

                     10                     11                     12
                      A                      A                      A
 Frequencies --    339.1656               424.8508               510.3451
 Red. masses --      3.0349                 3.7959                 1.0857
 Frc consts  --      0.2057                 0.4037                 0.1666
 IR Inten    --     10.6120                 5.5724               107.7016

                     13                     14                     15
                      A                      A                      A
 Frequencies --    563.9482               608.1651               730.2999
 Red. masses --      3.9994                 7.1979                 1.3176
 Frc consts  --      0.7494                 1.5685                 0.4140
 IR Inten    --      5.3003                 7.0524                38.1305

                     16                     17                     18
                      A                      A                      A
 Frequencies --    758.5005               781.7970               802.5097
 Red. masses --      1.3235                 7.3301                 1.2227
 Frc consts  --      0.4486                 2.6397                 0.4639
 IR Inten    --     25.7162                46.8496                 5.6145

                     19                     20                     21
                      A                      A                      A
 Frequencies --    897.4070               928.6622              1077.7746
 Red. masses --      3.2018                 2.7972                 4.1162
 Frc consts  --      1.5192                 1.4213                 2.8171
 IR Inten    --     15.6662                 5.7502                21.7339

                     22                     23                     24
                      A                      A                      A
 Frequencies --   1129.7642              1204.4137              1293.6553
 Red. masses --      2.0894                 1.7702                 3.6045
 Frc consts  --      1.5712                 1.5130                 3.5541
 IR Inten    --     21.8713                 5.2199               547.5367

                     25                     26                     27
                      A                      A                      A
 Frequencies --   1348.9899              1402.4213              1432.4370
 Red. masses --      1.2561                 1.2836                 1.3874
 Frc consts  --      1.3467                 1.4874                 1.6773
 IR Inten    --    105.8530                30.3912                10.9841

                     28                     29                     30
                      A                      A                      A
 Frequencies --   1490.5891              1502.4119              1515.0490
 Red. masses --      1.0401                 1.0569                 1.0917
 Frc consts  --      1.3616                 1.4056                 1.4765
 IR Inten    --     10.8192                 0.9112                20.6165

                     31                     32                     33
                      A                      A                      A
 Frequencies --   1840.4784              2246.6915              3075.5945
 Red. masses --     11.9893                 5.8216                 1.0354
 Frc consts  --     23.9279                17.3134                 5.7703
 IR Inten    --    332.6882                59.3486                10.2779

                     34                     35                     36
                      A                      A                      A
 Frequencies --   3105.4653              3151.5614              3154.2002
 Red. masses --      1.0608                 1.1021                 1.1045
 Frc consts  --      6.0272                 6.4492                 6.4744
 IR Inten    --     19.8756                13.1483                 4.2673

                     37                     38                     39
                      A                      A                      A
 Frequencies --   3174.3699              3486.0884              3794.9784
 Red. masses --      1.1070                 1.1677                 1.0672
 Frc consts  --      6.5723                 8.3609                 9.0555
 IR Inten    --     15.0681                67.5423                33.5388

 - Thermochemistry -
 -------------------
 Temperature   298.150 Kelvin.  Pressure   1.00000 Atm.
 Atom     1 has atomic number  8 and mass  15.99491

 Molecular mass:   115.03952 amu.
 Principal axes and moments of inertia in atomic units:
                           1         2         3
     Eigenvalues --   534.639561383.083901553.02693
           X            0.99995   0.00997  -0.00148
           Y           -0.00986   0.99801   0.06223
           Z            0.00210  -0.06221   0.99806
 This molecule is an asymmetric top.
 Rotational symmetry number  1.
 Warning -- assumption of classical behavior for rotation
           may cause significant error
 Rotational temperatures (Kelvin)      0.16200     0.06262     0.05577
 Rotational constants (GHZ):           3.37562     1.30487     1.16208
    1 imaginary frequencies ignored.
 Zero-point vibrational energy     293889.0 (Joules/Mol)
                                   70.24115 (Kcal/Mol)
 Warning -- explicit consideration of  13 degrees of freedom as
           vibrations may cause significant error
 Vibrational temperatures:     56.13   156.48   171.90   228.01   283.66
          (Kelvin)            312.66   330.77   419.74   487.98   611.27
                              734.27   811.40   875.01  1050.74  1091.31
                             1124.83  1154.63  1291.17  1336.14  1550.68
                             1625.48  1732.88  1861.28  1940.90  2017.77
                             2060.96  2144.63  2161.64  2179.82  2648.04
                             3232.49  4425.09  4468.07  4534.39  4538.19
                             4567.21  5015.70  5460.13

 Zero-point correction=                           0.111936 (Hartree/Particle)
 Thermal correction to Energy=                    0.121503
 Thermal correction to Enthalpy=                  0.122447
 Thermal correction to Gibbs Free Energy=         0.076370
 Sum of electronic and zero-point Energies=           -420.096262
 Sum of electronic and thermal Energies=              -420.086696
 Sum of electronic and thermal Enthalpies=            -420.085752
 Sum of electronic and thermal Free Energies=         -420.131829

                     E (Thermal)             CV                S
                      KCal/Mol        Cal/Mol-Kelvin    Cal/Mol-Kelvin
 Total                   76.244             32.489             96.977
 Electronic               0.000              0.000              1.377
 Translational            0.889              2.981             40.136
 Rotational               0.889              2.981             28.531
 Vibrational             74.467             26.528             26.933
 Vibration     1          0.594              1.981              5.309
 Vibration     2          0.606              1.942              3.291
 Vibration     3          0.609              1.933              3.109
 Vibration     4          0.621              1.893              2.568
 Vibration     5          0.637              1.844              2.159
 Vibration     6          0.646              1.815              1.981
 Vibration     7          0.652              1.795              1.880
 Vibration     8          0.687              1.689              1.464
 Vibration     9          0.719              1.597              1.216
 Vibration    10          0.787              1.416              0.876
 Vibration    11          0.865              1.227              0.633
 Vibration    12          0.920              1.109              0.516
 Vibration    13          0.967              1.015              0.436

 1\1\GINC-AJ\Freq\UM062X\6-311++G(d,p)\C5H7O3(2)\AAYUSH\16-Aug-2025\0\\
 # freq 6-311++g(d,p) m062x\\Title Card Required\\0,2\O,-1.336332,1.841
 063,0.1171\H,-1.966642,1.850445,0.856717\C,-2.740643,-0.469168,-0.4536
 98\H,-3.772417,-0.465897,-0.718234\C,-1.572838,-0.4643,-0.173252\C,-0.
 168595,-0.576229,0.21913\O,0.175787,-0.879678,1.327423\O,0.636213,-0.3
 39432,-0.809652\C,2.05036,-0.419111,-0.53775\C,2.542031,0.847335,0.133
 368\H,2.500103,-0.558094,-1.519199\H,2.238506,-1.299596,0.077915\H,3.6
 24269,0.794466,0.267564\H,2.307449,1.717172,-0.481479\H,2.076657,0.967

 Normal termination of Gaussian 16 at Sat Aug 16 17:03:26 2025.
