 Gaussian 16, Revision A.03,
 Gaussian 16:  ES64L-G16RevA.03 25-Dec-2016

 -------------------
 # freq 6-31+g m062x
 -------------------

 -------------------
 Title Card Required
 -------------------
 Symbolic Z-matrix:
 Charge =  0 Multiplicity = 2

                         Standard orientation:
 ---------------------------------------------------------------------
 Center     Atomic      Atomic             Coordinates (Angstroms)
 Number     Number       Type             X           Y           Z
 ---------------------------------------------------------------------
      1          8           0       -1.406856    1.686632    0.098244
      2          1           0       -2.035169    1.799293    0.828691
      3          6           0       -2.783513   -0.491356   -0.442275
      4          1           0       -3.809864   -0.565947   -0.717986
      5          6           0       -1.622093   -0.316488   -0.142075
      6          6           0       -0.221743   -0.564111    0.230322
      7          8           0        0.110224   -0.911451    1.327749
      8          8           0        0.580882   -0.363667   -0.805785
      9          6           0        1.995253   -0.449461   -0.534713
     10          6           0        2.484280    0.820272    0.133009
     11          1           0        2.444354   -0.590967   -1.515941
     12          1           0        2.182076   -1.328785    0.082676
     13          1           0        3.566182    0.769746    0.270248
     14          1           0        2.248737    1.687456   -0.485080
     15          1           0        2.016582    0.943957    1.110120
 ---------------------------------------------------------------------

 SCF Done:  E(UM062X) =  -419.953890529     A.U. after   22 cycles

 The electronic state is 2-A.
 Alpha  occ. eigenvalues --  -19.70415 -19.68633 -19.66183 -10.72995 -10.61322
 Alpha  occ. eigenvalues --  -10.60968 -10.60060 -10.54154  -1.27993  -1.18645
 Alpha  occ. eigenvalues --   -1.13314  -0.91791  -0.88121  -0.78558  -0.71247
 Alpha  occ. eigenvalues --   -0.64587  -0.62521  -0.58749  -0.57280  -0.53720
 Alpha  occ. eigenvalues --   -0.53597  -0.50324  -0.48467  -0.46307  -0.45050
 Alpha  occ. eigenvalues --   -0.41741  -0.41176  -0.39677  -0.38053  -0.36908
 Alpha  occ. eigenvalues --   -0.34417
 Alpha virt. eigenvalues --   -0.00809   0.01880   0.02464   0.03497   0.03716
 Alpha virt. eigenvalues --    0.04368   0.05529   0.05846   0.07688   0.07975
 Alpha virt. eigenvalues --    0.08841   0.08929   0.09997   0.11794   0.12235

  Beta  occ. eigenvalues --  -19.70419 -19.67159 -19.66205 -10.72964 -10.61322
  Beta  occ. eigenvalues --  -10.61031 -10.59812 -10.54154  -1.27997  -1.18678
  Beta  occ. eigenvalues --   -1.07560  -0.91240  -0.87757  -0.78367  -0.71024
  Beta  occ. eigenvalues --   -0.64486  -0.61996  -0.58586  -0.56985  -0.53670
  Beta  occ. eigenvalues --   -0.51190  -0.49169  -0.46672  -0.45142  -0.41701
  Beta  occ. eigenvalues --   -0.39623  -0.39446  -0.38209  -0.37960  -0.36075
  Beta virt. eigenvalues --   -0.09857   0.00289   0.01926   0.02485   0.03475
  Beta virt. eigenvalues --    0.03782   0.04562   0.05577   0.05880   0.07718
  Beta virt. eigenvalues --    0.07952   0.08904   0.08954   0.10121   0.11806

 Mulliken charges and spin densities:
               1          2
     1  O   -0.447506   0.792267
     2  H    0.406532  -0.028566
     3  C    0.232305   0.362937
     4  H    0.318998  -0.014241
     5  C   -0.363917  -0.157564
     6  C    0.051402   0.056180
     7  O   -0.342679  -0.010176
     8  O   -0.164149  -0.000535
     9  C   -0.261385  -0.000921
    10  C   -0.553244   0.000865
    11  H    0.220612  -0.000011
    12  H    0.233926  -0.000125
    13  H    0.204665  -0.000050
    14  H    0.228808  -0.000044
    15  H    0.235633  -0.000018
 Sum of Mulliken charges =  -0.00000   1.00000

 Dipole moment (field-independent basis, Debye):
    X=             -0.8111    Y=             -0.1836    Z=             -0.4806  Tot=              0.9605
 Quadrupole moment (field-independent basis, Debye-Ang):
   XX=            -29.3938   YY=            -49.4241   ZZ=            -52.2863
   XY=              0.0477   XZ=             -2.0462   YZ=              5.6623

  Exact polarizability:  86.971   7.399  68.963   4.166   2.270  57.182
 Approx polarizability:  92.017   8.829  68.159   7.728  -1.534  71.570

 ******    5 imaginary frequencies (negative Signs) ******

                      1                      2                      3
                      A                      A                      A
 Frequencies --   -459.3316              -440.3644              -103.5349
 Red. masses --      1.4342                 3.1816                 6.5685
 Frc consts  --      0.1783                 0.3635                 0.0415
 IR Inten    --     89.6049                64.2845                10.6885

                      4                      5                      6
                      A                      A                      A
 Frequencies --    -51.7919               -14.7199                92.9172
 Red. masses --      4.3020                 2.5246                 3.2721
 Frc consts  --      0.0068                 0.0003                 0.0166
 IR Inten    --      4.6188                 0.3683                 6.8021

                      7                      8                      9
                      A                      A                      A
 Frequencies --    148.9372               175.8554               210.9275
 Red. masses --      5.3187                 1.3247                 4.8454
 Frc consts  --      0.0695                 0.0241                 0.1270
 IR Inten    --      0.3649                 1.1829                 0.5976

                     10                     11                     12
                      A                      A                      A
 Frequencies --    306.1216               416.2681               517.9944
 Red. masses --      2.8649                 3.4550                 1.4280
 Frc consts  --      0.1582                 0.3527                 0.2258
 IR Inten    --     13.3678                11.1045                77.8171

                     13                     14                     15
                      A                      A                      A
 Frequencies --    590.6105               620.8756               682.3414
 Red. masses --      2.7872                 4.0039                 1.5414
 Frc consts  --      0.5728                 0.9094                 0.4228
 IR Inten    --     28.7423                11.8032                13.2138

                     16                     17                     18
                      A                      A                      A
 Frequencies --    723.8310               759.7189               817.6758
 Red. masses --      4.5137                 1.3633                 1.2809
 Frc consts  --      1.3933                 0.4636                 0.5046
 IR Inten    --     86.7191                50.9402                 7.4126

                     19                     20                     21
                      A                      A                      A
 Frequencies --    897.7720               944.3618              1108.8200
 Red. masses --      3.3493                 2.5110                 4.1913
 Frc consts  --      1.5905                 1.3194                 3.0361
 IR Inten    --     21.6359                 6.0230                11.4069

                     22                     23                     24
                      A                      A                      A
 Frequencies --   1158.7957              1228.6792              1325.8431
 Red. masses --      2.0766                 1.7512                 1.9401
 Frc consts  --      1.6429                 1.5577                 2.0094
 IR Inten    --     18.0566                 5.6568               302.0904

                     25                     26                     27
                      A                      A                      A
 Frequencies --   1369.7345              1442.0097              1458.0435
 Red. masses --      1.7817                 1.3874                 1.2565
 Frc consts  --      1.9695                 1.6997                 1.5738
 IR Inten    --    275.4767                35.0590                19.5742

                     28                     29                     30
                      A                      A                      A
 Frequencies --   1526.3169              1536.8637              1544.9172
 Red. masses --      1.0413                 1.0554                 1.0893
 Frc consts  --      1.4293                 1.4688                 1.5318
 IR Inten    --     15.1371                 2.5638                27.8245

                     31                     32                     33
                      A                      A                      A
 Frequencies --   1912.4414              2215.5606              3108.2119
 Red. masses --     12.2253                 6.0113                 1.0350
 Frc consts  --     26.3442                17.3854                 5.8915
 IR Inten    --    322.3385                90.2942                11.9381

                     34                     35                     36
                      A                      A                      A
 Frequencies --   3138.6361              3189.4341              3190.6306
 Red. masses --      1.0601                 1.1030                 1.0999
 Frc consts  --      6.1531                 6.6107                 6.5973
 IR Inten    --     21.3700                 2.4939                17.6336

                     37                     38                     39
                      A                      A                      A
 Frequencies --   3211.9064              3520.6830              3827.8392
 Red. masses --      1.1054                 1.1606                 1.0673
 Frc consts  --      6.7187                 8.4760                 9.2137
 IR Inten    --     17.0920                61.8244                17.3236

 - Thermochemistry -
 -------------------
 Temperature   298.150 Kelvin.  Pressure   1.00000 Atm.
 Atom     1 has atomic number  8 and mass  15.99491

 Molecular mass:   115.03952 amu.
 Principal axes and moments of inertia in atomic units:
                           1         2         3
     Eigenvalues --   499.953761378.292481517.93881
           X            0.99994   0.01112  -0.00061
           Y           -0.01104   0.99682   0.07897
           Z            0.00148  -0.07896   0.99688
 This molecule is an asymmetric top.
 Rotational symmetry number  1.
 Warning -- assumption of classical behavior for rotation
           may cause significant error
 Rotational temperatures (Kelvin)      0.17324     0.06284     0.05706
 Rotational constants (GHZ):           3.60982     1.30940     1.18894
    5 imaginary frequencies ignored.
 Zero-point vibrational energy     292616.0 (Joules/Mol)
                                   69.93690 (Kcal/Mol)
 Warning -- explicit consideration of   8 degrees of freedom as
           vibrations may cause significant error
 Vibrational temperatures:    133.69   214.29   253.02   303.48   440.44
          (Kelvin)            598.92   745.28   849.76   893.30   981.74
                             1041.43  1093.07  1176.45  1291.69  1358.73
                             1595.34  1667.25  1767.80  1907.59  1970.74
                             2074.73  2097.80  2196.03  2211.20  2222.79
                             2751.58  3187.70  4472.02  4515.80  4588.88
                             4590.61  4621.22  5065.48  5507.41

 Zero-point correction=                           0.111452 (Hartree/Particle)
 Thermal correction to Energy=                    0.118643
 Thermal correction to Enthalpy=                  0.119588
 Thermal correction to Gibbs Free Energy=         0.078736
 Sum of electronic and zero-point Energies=           -419.842439
 Sum of electronic and thermal Energies=              -419.835247
 Sum of electronic and thermal Enthalpies=            -419.834303
 Sum of electronic and thermal Free Energies=         -419.875155

                     E (Thermal)             CV                S
                      KCal/Mol        Cal/Mol-Kelvin    Cal/Mol-Kelvin
 Total                   74.450             25.142             85.980
 Electronic               0.000              0.000              1.377
 Translational            0.889              2.981             40.136
 Rotational               0.889              2.981             28.438
 Vibrational             72.672             19.180             16.028
 Vibration     1          0.602              1.954              3.598
 Vibration     2          0.618              1.904              2.686
 Vibration     3          0.628              1.872              2.372
 Vibration     4          0.643              1.824              2.036
 Vibration     5          0.697              1.662              1.383
 Vibration     6          0.779              1.435              0.905
 Vibration     7          0.873              1.210              0.615
 Vibration     8          0.948              1.052              0.466

 Normal termination of Gaussian 16 at Fri Jun 20 13:36:14 2025.
