 Gaussian 16, Revision A.03,
 Gaussian 16:  ES64L-G16RevA.03 25-Dec-2016

 --------------------------
 # ccsd(t)/6-311++g(d,p) sp
 --------------------------

 -------------------
 Title Card Required
 -------------------
 Symbolic Z-matrix:
 Charge =  0 Multiplicity = 2

                         Standard orientation:
 ---------------------------------------------------------------------
 Center     Atomic      Atomic             Coordinates (Angstroms)
 Number     Number       Type             X           Y           Z
 ---------------------------------------------------------------------
      1          8           0       -1.417248    1.591542    0.117497
      2          1           0       -2.033950    1.742075    0.846749
      3          6           0       -2.774371   -0.500074   -0.453472
      4          1           0       -3.800223   -0.574014   -0.734647
      5          6           0       -1.615387   -0.167759   -0.126897
      6          6           0       -0.220810   -0.562871    0.219895
      7          8           0        0.106680   -0.941789    1.307214
      8          8           0        0.581491   -0.348781   -0.812574
      9          6           0        1.996885   -0.436934   -0.542266
     10          6           0        2.482348    0.820559    0.151128
     11          1           0        2.446712   -0.557798   -1.525825
     12          1           0        2.184799   -1.328126    0.057359
     13          1           0        3.564163    0.768412    0.288521
     14          1           0        2.245692    1.699488   -0.449517
     15          1           0        2.013421    0.924670    1.129935
 ---------------------------------------------------------------------

 SCF Done:  E(UHF) =  -417.978592292     A.U. after   30 cycles
 E2 =    -0.1261501304D+01 EUMP2 =    -0.41924009359650D+03
 CCSD(T)= -0.41936148926D+03

 The electronic state is 2-A.
 Alpha  occ. eigenvalues --  -20.61038 -20.60606 -20.55665 -11.41193 -11.29456
 Alpha  occ. eigenvalues --  -11.29207 -11.28133 -11.22159  -1.48125  -1.37822
 Alpha  occ. eigenvalues --   -1.36304  -1.08545  -1.04358  -0.92655  -0.83850
 Alpha  occ. eigenvalues --   -0.76560  -0.73272  -0.69279  -0.68883  -0.64890
 Alpha  occ. eigenvalues --   -0.62719  -0.62144  -0.57559  -0.55079  -0.53796
 Alpha  occ. eigenvalues --   -0.52101  -0.50164  -0.47995  -0.45873  -0.43776
 Alpha  occ. eigenvalues --   -0.42066
 Alpha virt. eigenvalues --    0.03688   0.04630   0.05725   0.06838   0.07017
 Alpha virt. eigenvalues --    0.08738   0.09744   0.10669   0.11233   0.12093
 Alpha virt. eigenvalues --    0.13292   0.13929   0.14629   0.15773   0.16734

  Beta  occ. eigenvalues --  -20.61040 -20.57770 -20.55994 -11.40827 -11.31453
  Beta  occ. eigenvalues --  -11.29458 -11.25246 -11.22160  -1.48240  -1.38339
  Beta  occ. eigenvalues --   -1.27278  -1.07444  -1.03213  -0.91226  -0.82637
  Beta  occ. eigenvalues --   -0.76212  -0.71819  -0.69566  -0.68003  -0.63349
  Beta  occ. eigenvalues --   -0.62708  -0.57829  -0.55821  -0.53918  -0.50218
  Beta  occ. eigenvalues --   -0.49797  -0.48798  -0.47225  -0.46398  -0.42266
  Beta virt. eigenvalues --    0.03792   0.04202   0.04642   0.06499   0.07011
  Beta virt. eigenvalues --    0.07554   0.08840   0.09730   0.10587   0.11888
  Beta virt. eigenvalues --    0.12639   0.13549   0.14470   0.15829   0.16072

 Mulliken charges and spin densities:
               1          2
     1  O   -0.225487   0.644275
     2  H    0.254515  -0.023194
     3  C   -0.169963   1.519498
     4  H    0.233157  -0.104689
     5  C    0.362565  -1.150167
     6  C   -0.377789   0.175342
     7  O   -0.285342  -0.065726
     8  O   -0.039463   0.003620
     9  C   -0.170429   0.001066
    10  C   -0.385508   0.000678
    11  H    0.164788   0.000085
    12  H    0.172805   0.000299
    13  H    0.136802  -0.000352
    14  H    0.152115  -0.000592
    15  H    0.177232  -0.000142
 Sum of Mulliken charges =  -0.00000   1.00000

 Dipole moment (field-independent basis, Debye):
    X=             -0.8918    Y=             -0.0470    Z=             -0.8445  Tot=              1.2291
 Quadrupole moment (field-independent basis, Debye-Ang):
   XX=            -30.1861   YY=            -49.2667   ZZ=            -51.4023
   XY=              0.0167   XZ=             -1.8128   YZ=              5.4158

 \PMP3-0=-419.2885443\MP4SDQ=-419.2982087\CCSD=-419.3062728\CCSD(T)=-41
 Normal termination of Gaussian 16 at Thu Aug 21 23:58:13 2025.
