 Gaussian 16, Revision A.03,
 Gaussian 16:  ES64L-G16RevA.03 25-Dec-2016

 --------------------------
 # freq 6-311++g(d,p) m062x
 --------------------------

 -------------------
 Title Card Required
 -------------------
 Symbolic Z-matrix:
 Charge =  0 Multiplicity = 2

                         Standard orientation:
 ---------------------------------------------------------------------
 Center     Atomic      Atomic             Coordinates (Angstroms)
 Number     Number       Type             X           Y           Z
 ---------------------------------------------------------------------
      1          8           0       -1.409872    1.658899    0.103636
      2          1           0       -2.034930    1.783408    0.833990
      3          6           0       -2.780782   -0.492538   -0.445213
      4          1           0       -3.806264   -0.573825   -0.723148
      5          6           0       -1.620323   -0.274462   -0.138382
      6          6           0       -0.220969   -0.562548    0.227716
      7          8           0        0.108877   -0.920109    1.322017
      8          8           0        0.581010   -0.359591   -0.807686
      9          6           0        1.995774   -0.446066   -0.536765
     10          6           0        2.483685    0.820372    0.138077
     11          1           0        2.444977   -0.581854   -1.518717
     12          1           0        2.182857   -1.328750    0.075677
     13          1           0        3.565557    0.769355    0.275415
     14          1           0        2.247799    1.690817   -0.475205
     15          1           0        2.015565    0.938705    1.115652
 ---------------------------------------------------------------------

 SCF Done:  E(UM062X) =  -420.202434144     A.U. after   23 cycles

 The electronic state is 2-A.
 Alpha  occ. eigenvalues --  -19.68164 -19.65231 -19.63121 -10.70684 -10.60392
 Alpha  occ. eigenvalues --  -10.60288 -10.58999 -10.53371  -1.25738  -1.16446
 Alpha  occ. eigenvalues --   -1.11380  -0.91302  -0.87597  -0.78197  -0.70800
 Alpha  occ. eigenvalues --   -0.64585  -0.62356  -0.58657  -0.57347  -0.53404
 Alpha  occ. eigenvalues --   -0.53231  -0.50026  -0.48350  -0.46007  -0.45093
 Alpha  occ. eigenvalues --   -0.41757  -0.40633  -0.39778  -0.38370  -0.36765
 Alpha  occ. eigenvalues --   -0.33525
 Alpha virt. eigenvalues --   -0.00486  -0.00236   0.00484   0.01486   0.02534
 Alpha virt. eigenvalues --    0.02754   0.03249   0.04288   0.05697   0.06153
 Alpha virt. eigenvalues --    0.07071   0.07600   0.08392   0.09858   0.10597

  Beta  occ. eigenvalues --  -19.68166 -19.63955 -19.63142 -10.70649 -10.60392
  Beta  occ. eigenvalues --  -10.60378 -10.58684 -10.53372  -1.25736  -1.16486
  Beta  occ. eigenvalues --   -1.06440  -0.90492  -0.87029  -0.77868  -0.70433
  Beta  occ. eigenvalues --   -0.64433  -0.61769  -0.58587  -0.56944  -0.53203
  Beta  occ. eigenvalues --   -0.51317  -0.48956  -0.46658  -0.45172  -0.41733
  Beta  occ. eigenvalues --   -0.39903  -0.39528  -0.38471  -0.37869  -0.35666
  Beta virt. eigenvalues --   -0.10111  -0.00177   0.00466   0.00900   0.01797
  Beta virt. eigenvalues --    0.02607   0.02798   0.03312   0.04340   0.05747
  Beta virt. eigenvalues --    0.06113   0.07176   0.07493   0.08457   0.09921

 Mulliken charges and spin densities:
               1          2
     1  O   -0.255052   0.687512
     2  H    0.234263  -0.015140
     3  C   -0.380784   0.553784
     4  H    0.205073  -0.020400
     5  C    0.642397  -0.236849
     6  C   -0.516535   0.038953
     7  O   -0.202000  -0.010364
     8  O    0.054064   0.000839
     9  C   -0.279510  -0.000314
    10  C   -0.415777   0.003643
    11  H    0.195314   0.000231
    12  H    0.187990  -0.000029
    13  H    0.168198  -0.000003
    14  H    0.173268  -0.000549
    15  H    0.189091  -0.001313
 Sum of Mulliken charges =  -0.00000   1.00000

 Dipole moment (field-independent basis, Debye):
    X=             -0.7155    Y=             -0.4079    Z=             -0.7823  Tot=              1.1359
 Quadrupole moment (field-independent basis, Debye-Ang):
   XX=            -29.6871   YY=            -49.4777   ZZ=            -51.0575
   XY=              0.7627   XZ=             -1.5172   YZ=              5.0419

  Exact polarizability:  90.790   8.020  74.598   4.641   3.436  59.649
 Approx polarizability:  96.975   9.497  81.102   7.382   0.536  76.975

 ******    1 imaginary frequencies (negative Signs) ******

                      1                      2                      3
                      A                      A                      A
 Frequencies --   -640.1015                61.5982                66.2306
 Red. masses --     12.1175                 4.4238                 3.6308
 Frc consts  --      2.9252                 0.0099                 0.0094
 IR Inten    --     64.6204                 5.7340                 2.3773

                      4                      5                      6
                      A                      A                      A
 Frequencies --    117.4563               165.0868               182.9136
 Red. masses --      3.4263                 2.5598                 4.7582
 Frc consts  --      0.0279                 0.0411                 0.0938
 IR Inten    --      1.3163                21.4959                 9.7396

                      7                      8                      9
                      A                      A                      A
 Frequencies --    214.1597               231.3605               268.2056
 Red. masses --      1.4779                 1.4592                 2.3159
 Frc consts  --      0.0399                 0.0460                 0.0982
 IR Inten    --     35.8955                 7.1197                17.7861

                     10                     11                     12
                      A                      A                      A
 Frequencies --    336.5112               431.5900               563.4809
 Red. masses --      2.9736                 3.6853                 3.8972
 Frc consts  --      0.1984                 0.4045                 0.7291
 IR Inten    --     10.0372                 3.9586                 3.0798

                     13                     14                     15
                      A                      A                      A
 Frequencies --    606.3437               644.0089               719.0330
 Red. masses --      5.0257                 1.3997                 1.3132
 Frc consts  --      1.0886                 0.3420                 0.4000
 IR Inten    --     18.2997                26.1072                39.6242

                     16                     17                     18
                      A                      A                      A
 Frequencies --    765.7820               802.7036               818.9303
 Red. masses --      8.5315                 1.2071                 1.1472
 Frc consts  --      2.9477                 0.4583                 0.4533
 IR Inten    --     32.9152                 5.1090                79.3012

                     19                     20                     21
                      A                      A                      A
 Frequencies --    896.6577               925.2969              1072.3296
 Red. masses --      3.2821                 2.7048                 4.0879
 Frc consts  --      1.5547                 1.3644                 2.7696
 IR Inten    --     17.3778                 7.2307                26.4024

                     22                     23                     24
                      A                      A                      A
 Frequencies --   1129.3788              1203.8769              1285.5407
 Red. masses --      2.0840                 1.7715                 3.8282
 Frc consts  --      1.5661                 1.5127                 3.7275
 IR Inten    --     21.7772                 7.3440               531.3001

                     25                     26                     27
                      A                      A                      A
 Frequencies --   1345.1842              1402.1331              1430.9160
 Red. masses --      1.2421                 1.2820                 1.3740
 Frc consts  --      1.3243                 1.4850                 1.6576
 IR Inten    --     89.6604                23.4691                13.7486

                     28                     29                     30
                      A                      A                      A
 Frequencies --   1491.3434              1502.1663              1514.9260
 Red. masses --      1.0400                 1.0540                 1.0936
 Frc consts  --      1.3628                 1.4012                 1.4787
 IR Inten    --     10.9704                 1.2108                20.9965

                     31                     32                     33
                      A                      A                      A
 Frequencies --   1847.6693              2084.3707              3076.3736
 Red. masses --     11.9233                 6.5084                 1.0353
 Frc consts  --     23.9826                16.6599                 5.7728
 IR Inten    --    346.8904                89.5192                 8.9074

                     34                     35                     36
                      A                      A                      A
 Frequencies --   3108.7343              3153.6371              3154.8415
 Red. masses --      1.0608                 1.1013                 1.1050
 Frc consts  --      6.0401                 6.4533                 6.4799
 IR Inten    --     19.6661                15.5343                 1.1084

                     37                     38                     39
                      A                      A                      A
 Frequencies --   3176.2204              3470.7229              3822.6670
 Red. masses --      1.1074                 1.1450                 1.0676
 Frc consts  --      6.5825                 8.1265                 9.1915
 IR Inten    --     14.4285                72.3906                53.7990

 - Thermochemistry -
 -------------------
 Temperature   298.150 Kelvin.  Pressure   1.00000 Atm.
 Atom     1 has atomic number  8 and mass  15.99491

 Molecular mass:   115.03952 amu.
 Principal axes and moments of inertia in atomic units:
                           1         2         3
     Eigenvalues --   493.612801377.294921511.40805
           X            0.99994   0.01134  -0.00043
           Y           -0.01127   0.99650   0.08281
           Z            0.00136  -0.08280   0.99657
 This molecule is an asymmetric top.
 Rotational symmetry number  1.
 Warning -- assumption of classical behavior for rotation
           may cause significant error
 Rotational temperatures (Kelvin)      0.17547     0.06289     0.05731
 Rotational constants (GHZ):           3.65619     1.31035     1.19408
    1 imaginary frequencies ignored.
 Zero-point vibrational energy     293625.7 (Joules/Mol)
                                   70.17822 (Kcal/Mol)
 Warning -- explicit consideration of  12 degrees of freedom as
           vibrations may cause significant error
 Vibrational temperatures:     88.63    95.29   168.99   237.52   263.17
          (Kelvin)            308.13   332.88   385.89   484.16   620.96
                              810.72   872.39   926.59  1034.53  1101.79
                             1154.91  1178.26  1290.09  1331.30  1542.84
                             1624.92  1732.11  1849.61  1935.42  2017.36
                             2058.77  2145.71  2161.28  2179.64  2658.38
                             2998.94  4426.22  4472.78  4537.38  4539.11
                             4569.87  4993.60  5499.97

 Zero-point correction=                           0.111836 (Hartree/Particle)
 Thermal correction to Energy=                    0.121399
 Thermal correction to Enthalpy=                  0.122343
 Thermal correction to Gibbs Free Energy=         0.076298
 Sum of electronic and zero-point Energies=           -420.090598
 Sum of electronic and thermal Energies=              -420.081035
 Sum of electronic and thermal Enthalpies=            -420.080091
 Sum of electronic and thermal Free Energies=         -420.126136

                     E (Thermal)             CV                S
                      KCal/Mol        Cal/Mol-Kelvin    Cal/Mol-Kelvin
 Total                   76.179             32.243             96.910
 Electronic               0.000              0.000              1.377
 Translational            0.889              2.981             40.136
 Rotational               0.889              2.981             28.421
 Vibrational             74.402             26.281             26.977
 Vibration     1          0.597              1.973              4.405
 Vibration     2          0.598              1.970              4.262
 Vibration     3          0.608              1.935              3.142
 Vibration     4          0.623              1.885              2.491
 Vibration     5          0.630              1.863              2.298
 Vibration     6          0.644              1.819              2.008
 Vibration     7          0.653              1.793              1.868
 Vibration     8          0.673              1.732              1.608
 Vibration     9          0.717              1.603              1.229
 Vibration    10          0.793              1.401              0.853
 Vibration    11          0.919              1.110              0.517
 Vibration    12          0.965              1.018              0.439

 1\1\GINC-AJ\Freq\UM062X\6-311++G(d,p)\C5H7O3(2)\AAYUSH\23-Jun-2025\0\\
 # freq 6-311++g(d,p) m062x\\Title Card Required\\0,2\O,-1.409872,1.658
 899,0.103636\H,-2.03493,1.783408,0.83399\C,-2.780782,-0.492538,-0.4452
 13\H,-3.806264,-0.573825,-0.723148\C,-1.620323,-0.274462,-0.138382\C,-
 0.220969,-0.562548,0.227716\O,0.108877,-0.920109,1.322017\O,0.58101,-0
 .359591,-0.807686\C,1.995774,-0.446066,-0.536765\C,2.483685,0.820372,0
 .138077\H,2.444977,-0.581854,-1.518717\H,2.182857,-1.32875,0.075677\H,
 3.565557,0.769355,0.275415\H,2.247799,1.690817,-0.475205\H,2.015565,0.

 Normal termination of Gaussian 16 at Mon Jun 23 03:44:50 2025.
