 Gaussian 16, Revision A.03,
 Gaussian 16:  ES64L-G16RevA.03 25-Dec-2016

 --------------------------
 # ccsd(t)/6-311++g(d,p) sp
 --------------------------

 -------------------
 Title Card Required
 -------------------
 Symbolic Z-matrix:
 Charge =  0 Multiplicity = 2

                         Standard orientation:
 ---------------------------------------------------------------------
 Center     Atomic      Atomic             Coordinates (Angstroms)
 Number     Number       Type             X           Y           Z
 ---------------------------------------------------------------------
      1          8           0       -1.411303    1.645304    0.106375
      2          1           0       -2.034821    1.775038    0.836608
      3          6           0       -2.779582   -0.493490   -0.446744
      4          1           0       -3.804732   -0.576605   -0.725779
      5          6           0       -1.619417   -0.253199   -0.136305
      6          6           0       -0.220648   -0.562222    0.226311
      7          8           0        0.108331   -0.924418    1.319131
      8          8           0        0.581051   -0.357517   -0.808656
      9          6           0        1.996009   -0.444328   -0.537840
     10          6           0        2.483419    0.820394    0.140609
     11          1           0        2.445280   -0.577244   -1.520133
     12          1           0        2.183210   -1.328691    0.072119
     13          1           0        3.565272    0.769101    0.277997
     14          1           0        2.247379    1.692501   -0.470208
     15          1           0        2.015094    0.936020    1.118412
 ---------------------------------------------------------------------

 SCF Done:  E(UHF) =  -417.977243568     A.U. after   34 cycles
 E2 =    -0.1256568180D+01 EUMP2 =    -0.41923381174847D+03
 CCSD(T)= -0.41935443712D+03

 The electronic state is 2-A.
 Alpha  occ. eigenvalues --  -20.61832 -20.60963 -20.55505 -11.41271 -11.29429
 Alpha  occ. eigenvalues --  -11.27439 -11.27033 -11.22182  -1.48040  -1.37767
 Alpha  occ. eigenvalues --   -1.37548  -1.08087  -1.04261  -0.92567  -0.83649
 Alpha  occ. eigenvalues --   -0.76395  -0.73154  -0.69257  -0.68860  -0.65452
 Alpha  occ. eigenvalues --   -0.63925  -0.62645  -0.57643  -0.55522  -0.53805
 Alpha  occ. eigenvalues --   -0.52825  -0.50163  -0.47753  -0.45721  -0.43340
 Alpha  occ. eigenvalues --   -0.42240
 Alpha virt. eigenvalues --    0.03706   0.04620   0.05664   0.06827   0.07015
 Alpha virt. eigenvalues --    0.08737   0.09672   0.10591   0.11208   0.11796
 Alpha virt. eigenvalues --    0.13351   0.13921   0.14692   0.15706   0.16800

  Beta  occ. eigenvalues --  -20.60967 -20.58276 -20.55899 -11.40901 -11.29431
  Beta  occ. eigenvalues --  -11.29164 -11.24943 -11.22184  -1.48188  -1.38315
  Beta  occ. eigenvalues --   -1.25361  -1.07687  -1.03361  -0.91432  -0.82857
  Beta  occ. eigenvalues --   -0.76143  -0.71942  -0.69525  -0.67634  -0.63224
  Beta  occ. eigenvalues --   -0.62782  -0.57999  -0.55629  -0.53914  -0.50232
  Beta  occ. eigenvalues --   -0.49967  -0.48511  -0.46954  -0.44887  -0.42314
  Beta virt. eigenvalues --    0.03786   0.04415   0.04681   0.06596   0.07014
  Beta virt. eigenvalues --    0.07864   0.08878   0.09732   0.10710   0.11984
  Beta virt. eigenvalues --    0.12166   0.13567   0.14469   0.15617   0.15982

 Mulliken charges and spin densities:
               1          2
     1  O   -0.179111   0.829287
     2  H    0.247450  -0.030960
     3  C   -0.528682   1.249204
     4  H    0.219022  -0.090582
     5  C    0.751507  -1.067594
     6  C   -0.444370   0.186050
     7  O   -0.282601  -0.080335
     8  O   -0.034891   0.003012
     9  C   -0.165419   0.001223
    10  C   -0.386932   0.001533
    11  H    0.165305   0.000071
    12  H    0.172438   0.000322
    13  H    0.137689  -0.000294
    14  H    0.150888  -0.000648
    15  H    0.177707  -0.000289
 Sum of Mulliken charges =  -0.00000   1.00000

 Dipole moment (field-independent basis, Debye):
    X=             -0.8166    Y=              0.3258    Z=             -0.7613  Tot=              1.1630
 Quadrupole moment (field-independent basis, Debye-Ang):
   XX=            -30.3681   YY=            -48.4823   ZZ=            -51.5547
   XY=             -0.5947   XZ=             -1.9576   YZ=              5.4843

 \PMP3-0=-419.2812528\MP4SDQ=-419.2920732\CCSD=-419.2996795\CCSD(T)=-41
 Normal termination of Gaussian 16 at Sat Aug 23 23:38:17 2025.
