 Gaussian 16, Revision A.03,
 Gaussian 16:  ES64L-G16RevA.03 25-Dec-2016

 -------------------
 # freq 6-31+g m062x
 -------------------

 -------------------
 Title Card Required
 -------------------
 Symbolic Z-matrix:
 Charge =  0 Multiplicity = 2

                         Standard orientation:
 ---------------------------------------------------------------------
 Center     Atomic      Atomic             Coordinates (Angstroms)
 Number     Number       Type             X           Y           Z
 ---------------------------------------------------------------------
      1          8           0       -1.418961    1.577940    0.120346
      2          1           0       -2.033977    1.734374    0.849143
      3          6           0       -2.772414   -0.502224   -0.455260
      4          1           0       -3.799043   -0.569625   -0.736481
      5          6           0       -1.614492   -0.146645   -0.124369
      6          6           0       -0.221220   -0.563146    0.218114
      7          8           0        0.106327   -0.946342    1.303997
      8          8           0        0.581688   -0.346435   -0.813587
      9          6           0        1.997121   -0.434891   -0.543378
     10          6           0        2.482019    0.820697    0.153977
     11          1           0        2.447213   -0.552521   -1.527205
     12          1           0        2.185325   -1.327826    0.053531
     13          1           0        3.563823    0.768447    0.291410
     14          1           0        2.245208    1.701410   -0.443993
     15          1           0        2.012938    0.921681    1.133046
 ---------------------------------------------------------------------

 SCF Done:  E(UM062X) =  -419.962447311     A.U. after   20 cycles

 The electronic state is 2-A.
 Alpha  occ. eigenvalues --  -19.70600 -19.67053 -19.66490 -10.72898 -10.64513
 Alpha  occ. eigenvalues --  -10.61410 -10.61272 -10.54172  -1.28217  -1.18861
 Alpha  occ. eigenvalues --   -1.12558  -0.92225  -0.88359  -0.78704  -0.71597
 Alpha  occ. eigenvalues --   -0.64839  -0.62839  -0.59299  -0.57792  -0.53917
 Alpha  occ. eigenvalues --   -0.53620  -0.49676  -0.48053  -0.46395  -0.45157
 Alpha  occ. eigenvalues --   -0.41819  -0.40517  -0.39652  -0.38179  -0.36579
 Alpha  occ. eigenvalues --   -0.31463
 Alpha virt. eigenvalues --    0.00217   0.01746   0.02137   0.02720   0.03723
 Alpha virt. eigenvalues --    0.04281   0.05606   0.06123   0.07695   0.07964
 Alpha virt. eigenvalues --    0.08856   0.08936   0.09866   0.11492   0.12075

  Beta  occ. eigenvalues --  -19.70597 -19.66502 -19.66311 -10.72833 -10.64693
  Beta  occ. eigenvalues --  -10.61409 -10.60669 -10.54172  -1.28186  -1.18861
  Beta  occ. eigenvalues --   -1.10096  -0.91069  -0.87545  -0.78173  -0.70892
  Beta  occ. eigenvalues --   -0.64619  -0.61868  -0.58979  -0.57527  -0.53600
  Beta  occ. eigenvalues --   -0.52602  -0.49050  -0.46899  -0.45356  -0.42689
  Beta  occ. eigenvalues --   -0.41718  -0.39303  -0.38827  -0.38196  -0.35177
  Beta virt. eigenvalues --   -0.09426   0.01247   0.01544   0.02240   0.02852
  Beta virt. eigenvalues --    0.03826   0.04267   0.05567   0.05940   0.07613
  Beta virt. eigenvalues --    0.07834   0.08666   0.08898   0.10062   0.11342

 Mulliken charges and spin densities:
               1          2
     1  O   -0.510500   0.367358
     2  H    0.418448  -0.009446
     3  C    0.396829   0.952798
     4  H    0.293901  -0.034469
     5  C   -0.406980  -0.342783
     6  C    0.005576   0.067237
     7  O   -0.347017  -0.004224
     8  O   -0.169109   0.001471
     9  C   -0.249963   0.001316
    10  C   -0.558555   0.000886
    11  H    0.221673  -0.000019
    12  H    0.235176  -0.000164
    13  H    0.204560  -0.000051
    14  H    0.230842   0.000023
    15  H    0.235118   0.000067
 Sum of Mulliken charges =  -0.00000   1.00000

 Dipole moment (field-independent basis, Debye):
    X=             -0.8421    Y=             -0.6004    Z=             -0.5769  Tot=              1.1842
 Quadrupole moment (field-independent basis, Debye-Ang):
   XX=            -29.3735   YY=            -50.6277   ZZ=            -52.0859
   XY=              0.6540   XZ=             -1.8669   YZ=              5.5303

  Exact polarizability:  84.404   6.589  65.647   3.317   1.760  56.909
 Approx polarizability:  85.526   9.971  73.775   6.074  -0.627  71.464

 ******    3 imaginary frequencies (negative Signs) ******

                      1                      2                      3
                      A                      A                      A
 Frequencies --   -568.6395              -466.3083               -67.3084
 Red. masses --      8.2022                 1.0730                 6.0089
 Frc consts  --      1.5626                 0.1375                 0.0160
 IR Inten    --     36.7478               113.9898                 4.2460

                      4                      5                      6
                      A                      A                      A
 Frequencies --     35.4578                55.7196               141.4895
 Red. masses --      2.6979                 3.6127                 1.8182
 Frc consts  --      0.0020                 0.0066                 0.0214
 IR Inten    --      1.8849                 7.5892                 5.2802

                      7                      8                      9
                      A                      A                      A
 Frequencies --    195.3334               225.5450               247.6588
 Red. masses --      1.8697                 2.4293                 1.9146
 Frc consts  --      0.0420                 0.0728                 0.0692
 IR Inten    --      2.7043                13.4231                17.0376

                     10                     11                     12
                      A                      A                      A
 Frequencies --    311.0314               344.9792               435.4277
 Red. masses --      3.0494                 5.5358                 3.6438
 Frc consts  --      0.1738                 0.3882                 0.4070
 IR Inten    --     15.8170                 5.8043                10.3397

                     13                     14                     15
                      A                      A                      A
 Frequencies --    574.6373               627.1520               716.1187
 Red. masses --      3.6848                 5.8148                 1.3298
 Frc consts  --      0.7169                 1.3475                 0.4018
 IR Inten    --     12.8119                16.8892                59.2575

                     16                     17                     18
                      A                      A                      A
 Frequencies --    725.3017               816.0293               893.1990
 Red. masses --     10.0221                 1.3231                 3.1511
 Frc consts  --      3.1063                 0.5191                 1.4812
 IR Inten    --     21.4339                 7.8918                20.0516

                     19                     20                     21
                      A                      A                      A
 Frequencies --    923.9225               963.3805              1104.5868
 Red. masses --      1.7938                 1.5138                 4.1678
 Frc consts  --      0.9022                 0.8278                 2.9961
 IR Inten    --     16.4284                35.3540                14.6387

                     22                     23                     24
                      A                      A                      A
 Frequencies --   1157.9425              1227.9094              1321.0851
 Red. masses --      2.0527                 1.7434                 2.1531
 Frc consts  --      1.6216                 1.5488                 2.2140
 IR Inten    --     18.3179                 6.3205               317.2481

                     25                     26                     27
                      A                      A                      A
 Frequencies --   1366.8360              1440.4163              1459.1203
 Red. masses --      1.6645                 1.3717                 1.2472
 Frc consts  --      1.8322                 1.6768                 1.5645
 IR Inten    --    229.8373                23.8521                19.9276

                     28                     29                     30
                      A                      A                      A
 Frequencies --   1526.6715              1536.8252              1545.3332
 Red. masses --      1.0411                 1.0527                 1.0907
 Frc consts  --      1.4296                 1.4649                 1.5346
 IR Inten    --     15.0024                 2.3559                25.3563

                     31                     32                     33
                      A                      A                      A
 Frequencies --   1898.3489              1950.8208              3108.9615
 Red. masses --      9.3050                 8.4765                 1.0351
 Frc consts  --     19.7570                19.0065                 5.8947
 IR Inten    --    207.4701               120.7106                11.7098

                     34                     35                     36
                      A                      A                      A
 Frequencies --   3139.9652              3190.8206              3191.3913
 Red. masses --      1.0602                 1.1036                 1.0992
 Frc consts  --      6.1587                 6.6201                 6.5963
 IR Inten    --     21.0948                 0.5129                18.8659

                     37                     38                     39
                      A                      A                      A
 Frequencies --   3213.1874              3490.5293              3867.9402
 Red. masses --      1.1054                 1.1301                 1.0672
 Frc consts  --      6.7242                 8.1124                 9.4070
 IR Inten    --     16.5193                67.8860                34.2290

 - Thermochemistry -
 -------------------
 Temperature   298.150 Kelvin.  Pressure   1.00000 Atm.
 Atom     1 has atomic number  8 and mass  15.99491

 Molecular mass:   115.03952 amu.
 Principal axes and moments of inertia in atomic units:
                           1         2         3
     Eigenvalues --   476.811231374.392991494.12991
           X            0.99993   0.01163   0.00009
           Y           -0.01159   0.99551   0.09399
           Z            0.00100  -0.09398   0.99557
 This molecule is an asymmetric top.
 Rotational symmetry number  1.
 Warning -- assumption of classical behavior for rotation
           may cause significant error
 Rotational temperatures (Kelvin)      0.18165     0.06302     0.05797
 Rotational constants (GHZ):           3.78502     1.31312     1.20789
    3 imaginary frequencies ignored.
 Zero-point vibrational energy     292912.1 (Joules/Mol)
                                   70.00767 (Kcal/Mol)
 Warning -- explicit consideration of  10 degrees of freedom as
           vibrations may cause significant error
 Vibrational temperatures:     51.02    80.17   203.57   281.04   324.51
          (Kelvin)            356.33   447.50   496.35   626.48   826.77
                              902.33  1030.34  1043.55  1174.08  1285.11
                             1329.32  1386.09  1589.25  1666.02  1766.69
                             1900.75  1966.57  2072.44  2099.35  2196.54
                             2211.15  2223.39  2731.30  2806.80  4473.10
                             4517.71  4590.88  4591.70  4623.06  5022.09
                             5565.10

 Zero-point correction=                           0.111564 (Hartree/Particle)
 Thermal correction to Energy=                    0.120228
 Thermal correction to Enthalpy=                  0.121172
 Thermal correction to Gibbs Free Energy=         0.076372
 Sum of electronic and zero-point Energies=           -419.850883
 Sum of electronic and thermal Energies=              -419.842219
 Sum of electronic and thermal Enthalpies=            -419.841275
 Sum of electronic and thermal Free Energies=         -419.886076

                     E (Thermal)             CV                S
                      KCal/Mol        Cal/Mol-Kelvin    Cal/Mol-Kelvin
 Total                   75.444             28.903             94.291
 Electronic               0.000              0.000              1.377
 Translational            0.889              2.981             40.136
 Rotational               0.889              2.981             28.373
 Vibrational             73.667             22.941             24.405
 Vibration     1          0.594              1.982              5.498
 Vibration     2          0.596              1.975              4.603
 Vibration     3          0.615              1.912              2.784
 Vibration     4          0.636              1.846              2.177
 Vibration     5          0.650              1.802              1.914
 Vibration     6          0.661              1.767              1.747
 Vibration     7          0.700              1.653              1.357
 Vibration     8          0.723              1.585              1.189
 Vibration     9          0.796              1.393              0.841
 Vibration    10          0.931              1.086              0.495

 Normal termination of Gaussian 16 at Fri Jun 20 13:22:19 2025.
