 Gaussian 16, Revision A.03,
 Gaussian 16:  ES64L-G16RevA.03 25-Dec-2016

 --------------------------
 # freq 6-311++g(d,p) m062x
 --------------------------

 -------------------
 Title Card Required
 -------------------
 Symbolic Z-matrix:
 Charge =  0 Multiplicity = 2

                         Standard orientation:
 ---------------------------------------------------------------------
 Center     Atomic      Atomic             Coordinates (Angstroms)
 Number     Number       Type             X           Y           Z
 ---------------------------------------------------------------------
      1          8           0       -1.406856    1.686632    0.098244
      2          1           0       -2.035169    1.799293    0.828691
      3          6           0       -2.783513   -0.491356   -0.442275
      4          1           0       -3.809864   -0.565947   -0.717986
      5          6           0       -1.622093   -0.316488   -0.142075
      6          6           0       -0.221743   -0.564111    0.230322
      7          8           0        0.110224   -0.911451    1.327749
      8          8           0        0.580882   -0.363667   -0.805785
      9          6           0        1.995253   -0.449461   -0.534713
     10          6           0        2.484280    0.820272    0.133009
     11          1           0        2.444354   -0.590967   -1.515941
     12          1           0        2.182076   -1.328785    0.082676
     13          1           0        3.566182    0.769746    0.270248
     14          1           0        2.248737    1.687456   -0.485080
     15          1           0        2.016582    0.943957    1.110120
 ---------------------------------------------------------------------

 SCF Done:  E(UM062X) =  -420.202401336     A.U. after   23 cycles

 The electronic state is 2-A.
 Alpha  occ. eigenvalues --  -19.68096 -19.65938 -19.63025 -10.70624 -10.60357
 Alpha  occ. eigenvalues --  -10.59307 -10.58485 -10.53372  -1.25652  -1.16356
 Alpha  occ. eigenvalues --   -1.12008  -0.91053  -0.87457  -0.78111  -0.70675
 Alpha  occ. eigenvalues --   -0.64476  -0.62125  -0.58565  -0.57243  -0.53768
 Alpha  occ. eigenvalues --   -0.53237  -0.50224  -0.48439  -0.46057  -0.45074
 Alpha  occ. eigenvalues --   -0.41734  -0.41136  -0.39684  -0.38318  -0.36660
 Alpha  occ. eigenvalues --   -0.34299
 Alpha virt. eigenvalues --   -0.00644  -0.00224   0.00498   0.01478   0.02535
 Alpha virt. eigenvalues --    0.02778   0.03434   0.04326   0.05672   0.06178
 Alpha virt. eigenvalues --    0.07108   0.07613   0.08428   0.09839   0.10659

  Beta  occ. eigenvalues --  -19.68100 -19.64531 -19.63045 -10.70597 -10.60357
  Beta  occ. eigenvalues --  -10.59361 -10.58246 -10.53372  -1.25654  -1.16396
  Beta  occ. eigenvalues --   -1.06187  -0.90439  -0.86996  -0.77865  -0.70410
  Beta  occ. eigenvalues --   -0.64364  -0.61633  -0.58502  -0.56809  -0.53204
  Beta  occ. eigenvalues --   -0.51476  -0.48982  -0.46601  -0.45140  -0.41719
  Beta  occ. eigenvalues --   -0.39540  -0.39341  -0.38426  -0.37928  -0.35863
  Beta virt. eigenvalues --   -0.09831  -0.00189   0.00427   0.00695   0.01774
  Beta virt. eigenvalues --    0.02642   0.02816   0.03457   0.04392   0.05737
  Beta virt. eigenvalues --    0.06150   0.07210   0.07538   0.08481   0.09916

 Mulliken charges and spin densities:
               1          2
     1  O   -0.239225   0.776798
     2  H    0.233696  -0.018039
     3  C   -0.658732   0.405989
     4  H    0.197134  -0.016434
     5  C    0.869131  -0.175955
     6  C   -0.478065   0.035556
     7  O   -0.200898  -0.009689
     8  O    0.056567   0.000677
     9  C   -0.277865  -0.000789
    10  C   -0.415533   0.003444
    11  H    0.195065   0.000161
    12  H    0.188158  -0.000024
    13  H    0.169047   0.000055
    14  H    0.172503  -0.000464
    15  H    0.189018  -0.001287
 Sum of Mulliken charges =  -0.00000   1.00000

 Dipole moment (field-independent basis, Debye):
    X=             -0.6829    Y=             -0.1825    Z=             -0.7276  Tot=              1.0144
 Quadrupole moment (field-independent basis, Debye-Ang):
   XX=            -29.8934   YY=            -49.1176   ZZ=            -51.1240
   XY=              0.3433   XZ=             -1.6421   YZ=              5.0803

  Exact polarizability:  91.224   7.674  73.639   4.698   3.164  59.640
 Approx polarizability:  98.102   8.333  77.880   7.550  -0.105  76.899

 ******    1 imaginary frequencies (negative Signs) ******

                      1                      2                      3
                      A                      A                      A
 Frequencies --   -489.4693                35.8420                56.0337
 Red. masses --     11.9493                 4.7101                 3.7497
 Frc consts  --      1.6867                 0.0036                 0.0069
 IR Inten    --     66.7176                 6.4492                 1.8254

                      4                      5                      6
                      A                      A                      A
 Frequencies --    116.6079               154.5607               165.5245
 Red. masses --      3.5267                 4.6291                 2.8113
 Frc consts  --      0.0283                 0.0652                 0.0454
 IR Inten    --      1.5144                20.4255                 4.3997

                      7                      8                      9
                      A                      A                      A
 Frequencies --    212.6162               228.8128               261.5783
 Red. masses --      1.5264                 1.4476                 2.0257
 Frc consts  --      0.0407                 0.0447                 0.0817
 IR Inten    --     35.0640                 4.8413                26.6737

                     10                     11                     12
                      A                      A                      A
 Frequencies --    336.0216               429.3579               561.1155
 Red. masses --      2.9281                 3.7281                 3.8696
 Frc consts  --      0.1948                 0.4049                 0.7178
 IR Inten    --      9.8339                 3.7284                 5.2377

                     13                     14                     15
                      A                      A                      A
 Frequencies --    607.0475               692.5537               722.0747
 Red. masses --      6.3629                 1.3298                 1.2111
 Frc consts  --      1.3815                 0.3758                 0.3720
 IR Inten    --     13.4043                29.4322                52.3208

                     16                     17                     18
                      A                      A                      A
 Frequencies --    742.6666               769.9734               802.9457
 Red. masses --      1.2458                 7.0699                 1.2056
 Frc consts  --      0.4048                 2.4696                 0.4580
 IR Inten    --     33.6249                72.6077                 5.0234

                     19                     20                     21
                      A                      A                      A
 Frequencies --    897.1017               927.4044              1074.0029
 Red. masses --      3.2549                 2.7372                 4.1160
 Frc consts  --      1.5434                 1.3870                 2.7973
 IR Inten    --     16.4293                 6.6112                25.0306

                     22                     23                     24
                      A                      A                      A
 Frequencies --   1129.5167              1204.1950              1288.1128
 Red. masses --      2.0880                 1.7716                 3.7406
 Frc consts  --      1.5696                 1.5136                 3.6568
 IR Inten    --     22.2284                 6.5386               533.8296

                     25                     26                     27
                      A                      A                      A
 Frequencies --   1345.6294              1402.0807              1431.0428
 Red. masses --      1.2483                 1.2837                 1.3785
 Frc consts  --      1.3318                 1.4868                 1.6633
 IR Inten    --     94.8336                25.4042                13.6946

                     28                     29                     30
                      A                      A                      A
 Frequencies --   1491.2871              1502.3201              1515.0219
 Red. masses --      1.0400                 1.0543                 1.0935
 Frc consts  --      1.3627                 1.4020                 1.4789
 IR Inten    --     10.9593                 1.2224                21.3245

                     31                     32                     33
                      A                      A                      A
 Frequencies --   1846.4985              2148.6936              3076.1065
 Red. masses --     11.9776                 6.2313                 1.0353
 Frc consts  --     24.0612                16.9503                 5.7717
 IR Inten    --    346.3402                92.9988                 9.0937

                     34                     35                     36
                      A                      A                      A
 Frequencies --   3108.2610              3153.1794              3154.5355
 Red. masses --      1.0608                 1.1016                 1.1047
 Frc consts  --      6.0381                 6.4533                 6.4770
 IR Inten    --     19.7425                14.3822                 2.5025

                     37                     38                     39
                      A                      A                      A
 Frequencies --   3175.7405              3477.9490              3814.9636
 Red. masses --      1.1074                 1.1533                 1.0675
 Frc consts  --      6.5804                 8.2192                 9.1534
 IR Inten    --     14.6128                69.9296                47.6511

 - Thermochemistry -
 -------------------
 Temperature   298.150 Kelvin.  Pressure   1.00000 Atm.
 Atom     1 has atomic number  8 and mass  15.99491

 Molecular mass:   115.03952 amu.
 Principal axes and moments of inertia in atomic units:
                           1         2         3
     Eigenvalues --   499.953761378.292481517.93881
           X            0.99994   0.01112  -0.00061
           Y           -0.01104   0.99682   0.07897
           Z            0.00148  -0.07896   0.99688
 This molecule is an asymmetric top.
 Rotational symmetry number  1.
 Warning -- assumption of classical behavior for rotation
           may cause significant error
 Rotational temperatures (Kelvin)      0.17324     0.06284     0.05706
 Rotational constants (GHZ):           3.60982     1.30940     1.18894
    1 imaginary frequencies ignored.
 Zero-point vibrational energy     293437.8 (Joules/Mol)
                                   70.13333 (Kcal/Mol)
 Warning -- explicit consideration of  12 degrees of freedom as
           vibrations may cause significant error
 Vibrational temperatures:     51.57    80.62   167.77   222.38   238.15
          (Kelvin)            305.91   329.21   376.35   483.46   617.75
                              807.32   873.41   996.43  1038.90  1068.53
                             1107.82  1155.26  1290.73  1334.33  1545.25
                             1625.12  1732.57  1853.31  1936.06  2017.28
                             2058.95  2145.63  2161.50  2179.78  2656.70
                             3091.49  4425.83  4472.09  4536.72  4538.67
                             4569.18  5003.99  5488.88

 Zero-point correction=                           0.111765 (Hartree/Particle)
 Thermal correction to Energy=                    0.121468
 Thermal correction to Enthalpy=                  0.122412
 Thermal correction to Gibbs Free Energy=         0.075499
 Sum of electronic and zero-point Energies=           -420.090637
 Sum of electronic and thermal Energies=              -420.080933
 Sum of electronic and thermal Enthalpies=            -420.079989
 Sum of electronic and thermal Free Energies=         -420.126902

                     E (Thermal)             CV                S
                      KCal/Mol        Cal/Mol-Kelvin    Cal/Mol-Kelvin
 Total                   76.222             32.330             98.737
 Electronic               0.000              0.000              1.377
 Translational            0.889              2.981             40.136
 Rotational               0.889              2.981             28.438
 Vibrational             74.445             26.369             28.785
 Vibration     1          0.594              1.982              5.477
 Vibration     2          0.596              1.975              4.592
 Vibration     3          0.608              1.936              3.156
 Vibration     4          0.620              1.898              2.615
 Vibration     5          0.624              1.885              2.486
 Vibration     6          0.644              1.822              2.021
 Vibration     7          0.651              1.797              1.888
 Vibration     8          0.669              1.743              1.651
 Vibration     9          0.717              1.604              1.231
 Vibration    10          0.791              1.406              0.861
 Vibration    11          0.917              1.115              0.522
 Vibration    12          0.966              1.017              0.438

 1\1\GINC-AJ\Freq\UM062X\6-311++G(d,p)\C5H7O3(2)\AAYUSH\16-Aug-2025\0\\
 # freq 6-311++g(d,p) m062x\\Title Card Required\\0,2\O,-1.350148,1.709
 578,0.099061\H,-1.978574,1.820149,0.829731\C,-2.726376,-0.46716,-0.447
 554\H,-3.75268,-0.54117,-0.723599\C,-1.565024,-0.292917,-0.14673\C,-0.
 164681,-0.54132,0.225172\O,0.167203,-0.891588,1.321694\O,0.638044,-0.3
 37928,-0.810282\C,2.052395,-0.424225,-0.539263\C,2.541126,0.843768,0.1
 31972\H,2.501645,-0.562989,-1.520814\H,2.239284,-1.305194,0.075758\H,3
 .623019,0.793048,0.269212\H,2.305519,1.712591,-0.483788\H,2.073282,0.9

 Normal termination of Gaussian 16 at Sat Aug 16 16:42:15 2025.
