 Gaussian 16, Revision A.03,
 Gaussian 16:  ES64L-G16RevA.03 25-Dec-2016

 -------------------
 # freq 6-31+g m062x
 -------------------

 -------------------
 Title Card Required
 -------------------
 Symbolic Z-matrix:
 Charge =  0 Multiplicity = 2

                         Standard orientation:
 ---------------------------------------------------------------------
 Center     Atomic      Atomic             Coordinates (Angstroms)
 Number     Number       Type             X           Y           Z
 ---------------------------------------------------------------------
      1          8           0       -1.409872    1.658899    0.103636
      2          1           0       -2.034930    1.783408    0.833990
      3          6           0       -2.780782   -0.492538   -0.445213
      4          1           0       -3.806264   -0.573825   -0.723148
      5          6           0       -1.620323   -0.274462   -0.138382
      6          6           0       -0.220969   -0.562548    0.227716
      7          8           0        0.108877   -0.920109    1.322017
      8          8           0        0.581010   -0.359591   -0.807686
      9          6           0        1.995774   -0.446066   -0.536765
     10          6           0        2.483685    0.820372    0.138077
     11          1           0        2.444977   -0.581854   -1.518717
     12          1           0        2.182857   -1.328750    0.075677
     13          1           0        3.565557    0.769355    0.275415
     14          1           0        2.247799    1.690817   -0.475205
     15          1           0        2.015565    0.938705    1.115652
 ---------------------------------------------------------------------

 SCF Done:  E(UM062X) =  -419.953199373     A.U. after   22 cycles

 The electronic state is 2-A.
 Alpha  occ. eigenvalues --  -19.70496 -19.67968 -19.66300 -10.73073 -10.61878
 Alpha  occ. eigenvalues --  -10.61367 -10.60551 -10.54161  -1.28102  -1.18755
 Alpha  occ. eigenvalues --   -1.12742  -0.92043  -0.88253  -0.78644  -0.71374
 Alpha  occ. eigenvalues --   -0.64699  -0.62769  -0.58881  -0.57387  -0.53726
 Alpha  occ. eigenvalues --   -0.53324  -0.50132  -0.48354  -0.46290  -0.45082
 Alpha  occ. eigenvalues --   -0.41772  -0.40738  -0.39752  -0.38112  -0.36987
 Alpha  occ. eigenvalues --   -0.33607
 Alpha virt. eigenvalues --   -0.00721   0.01805   0.02421   0.03285   0.03724
 Alpha virt. eigenvalues --    0.04333   0.05561   0.05861   0.07685   0.07870
 Alpha virt. eigenvalues --    0.08857   0.08918   0.09958   0.11725   0.12172

  Beta  occ. eigenvalues --  -19.70498 -19.66618 -19.66323 -10.73033 -10.61978
  Beta  occ. eigenvalues --  -10.61366 -10.60226 -10.54162  -1.28102  -1.18786
  Beta  occ. eigenvalues --   -1.07782  -0.91326  -0.87806  -0.78389  -0.71066
  Beta  occ. eigenvalues --   -0.64558  -0.62132  -0.58705  -0.57114  -0.53686
  Beta  occ. eigenvalues --   -0.51142  -0.49145  -0.46711  -0.45196  -0.41726
  Beta  occ. eigenvalues --   -0.40100  -0.39502  -0.38244  -0.37938  -0.35832
  Beta virt. eigenvalues --   -0.10144   0.00540   0.01834   0.02436   0.03254
  Beta virt. eigenvalues --    0.03790   0.04488   0.05584   0.05864   0.07699
  Beta virt. eigenvalues --    0.07851   0.08870   0.08938   0.10106   0.11711

 Mulliken charges and spin densities:
               1          2
     1  O   -0.465915   0.708421
     2  H    0.406530  -0.024855
     3  C    0.348054   0.516561
     4  H    0.312944  -0.019105
     5  C   -0.404181  -0.225227
     6  C    0.001698   0.055245
     7  O   -0.343819  -0.010815
     8  O   -0.165020  -0.000443
     9  C   -0.262315  -0.000581
    10  C   -0.553093   0.001055
    11  H    0.221027  -0.000011
    12  H    0.234322  -0.000147
    13  H    0.204624  -0.000069
    14  H    0.229591  -0.000034
    15  H    0.235553   0.000007
 Sum of Mulliken charges =  -0.00000   1.00000

 Dipole moment (field-independent basis, Debye):
    X=             -0.8335    Y=             -0.4014    Z=             -0.5326  Tot=              1.0675
 Quadrupole moment (field-independent basis, Debye-Ang):
   XX=            -29.1869   YY=            -49.8117   ZZ=            -52.2201
   XY=              0.4499   XZ=             -1.9217   YZ=              5.6230

  Exact polarizability:  86.657   7.921  70.536   4.159   2.644  57.223
 Approx polarizability:  91.080  10.208  71.653   7.624  -0.874  71.654

 ******    5 imaginary frequencies (negative Signs) ******

                      1                      2                      3
                      A                      A                      A
 Frequencies --   -609.6473              -456.1589               -93.2771
 Red. masses --     12.3581                 1.0818                 7.0767
 Frc consts  --      2.7062                 0.1326                 0.0363
 IR Inten    --     49.2036               113.9529                 8.2962

                      4                      5                      6
                      A                      A                      A
 Frequencies --    -37.0421                -7.4804               104.6085
 Red. masses --      3.9708                 2.5334                 3.0701
 Frc consts  --      0.0032                 0.0001                 0.0198
 IR Inten    --      4.9399                 0.8183                 6.7537

                      7                      8                      9
                      A                      A                      A
 Frequencies --    168.3862               179.4432               230.6117
 Red. masses --      3.4656                 1.6324                 4.3170
 Frc consts  --      0.0579                 0.0310                 0.1353
 IR Inten    --      1.4244                 0.5784                 1.1572

                     10                     11                     12
                      A                      A                      A
 Frequencies --    306.6616               419.5451               549.7505
 Red. masses --      2.9044                 3.5910                 2.5983
 Frc consts  --      0.1609                 0.3724                 0.4627
 IR Inten    --     13.7723                 7.5617                25.2012

                     13                     14                     15
                      A                      A                      A
 Frequencies --    605.6530               636.8099               668.4727
 Red. masses --      3.3765                 1.5354                 1.3655
 Frc consts  --      0.7297                 0.3669                 0.3595
 IR Inten    --     38.7665                19.4762                49.1954

                     16                     17                     18
                      A                      A                      A
 Frequencies --    715.5119               750.8072               817.1940
 Red. masses --      6.8199                 1.4111                 1.2916
 Frc consts  --      2.0571                 0.4687                 0.5082
 IR Inten    --     75.7227                50.3331                 8.0022

                     19                     20                     21
                      A                      A                      A
 Frequencies --    896.4060               942.3982              1107.2217
 Red. masses --      3.3051                 2.5051                 4.1996
 Frc consts  --      1.5648                 1.3108                 3.0334
 IR Inten    --     22.2373                 5.8422                12.4429

                     22                     23                     24
                      A                      A                      A
 Frequencies --   1158.4160              1228.4331              1323.9738
 Red. masses --      2.0668                 1.7482                 2.0236
 Frc consts  --      1.6341                 1.5543                 2.0900
 IR Inten    --     17.7709                 6.2165               313.7125

                     25                     26                     27
                      A                      A                      A
 Frequencies --   1368.5756              1441.5358              1458.4164
 Red. masses --      1.7297                 1.3816                 1.2531
 Frc consts  --      1.9087                 1.6915                 1.5704
 IR Inten    --    257.6564                31.3594                20.0254

                     28                     29                     30
                      A                      A                      A
 Frequencies --   1526.3584              1536.8385              1545.0706
 Red. masses --      1.0412                 1.0543                 1.0900
 Frc consts  --      1.4292                 1.4672                 1.5331
 IR Inten    --     15.2250                 2.6588                27.4874

                     31                     32                     33
                      A                      A                      A
 Frequencies --   1913.2793              2150.3171              3108.4641
 Red. masses --     12.1602                 6.2868                 1.0351
 Frc consts  --     26.2270                17.1272                 5.8926
 IR Inten    --    323.5204                90.7582                11.6807

                     34                     35                     36
                      A                      A                      A
 Frequencies --   3139.1152              3189.9813              3190.8694
 Red. masses --      1.0602                 1.1033                 1.0996
 Frc consts  --      6.1551                 6.6150                 6.5962
 IR Inten    --     21.2245                 1.1679                18.6303

                     37                     38                     39
                      A                      A                      A
 Frequencies --   3212.3637              3513.8768              3836.3401
 Red. masses --      1.1054                 1.1517                 1.0673
 Frc consts  --      6.7207                 8.3781                 9.2550
 IR Inten    --     16.7977                63.3129                20.9531

 - Thermochemistry -
 -------------------
 Temperature   298.150 Kelvin.  Pressure   1.00000 Atm.
 Atom     1 has atomic number  8 and mass  15.99491

 Molecular mass:   115.03952 amu.
 Principal axes and moments of inertia in atomic units:
                           1         2         3
     Eigenvalues --   493.612801377.295001511.40810
           X            0.99994   0.01134  -0.00043
           Y           -0.01127   0.99650   0.08281
           Z            0.00136  -0.08280   0.99657
 This molecule is an asymmetric top.
 Rotational symmetry number  1.
 Warning -- assumption of classical behavior for rotation
           may cause significant error
 Rotational temperatures (Kelvin)      0.17547     0.06289     0.05731
 Rotational constants (GHZ):           3.65619     1.31035     1.19408
    5 imaginary frequencies ignored.
 Zero-point vibrational energy     292736.4 (Joules/Mol)
                                   69.96568 (Kcal/Mol)
 Warning -- explicit consideration of   8 degrees of freedom as
           vibrations may cause significant error
 Vibrational temperatures:    150.51   242.27   258.18   331.80   441.22
          (Kelvin)            603.63   790.97   871.40   916.23   961.78
                             1029.46  1080.24  1175.76  1289.73  1355.90
                             1593.05  1666.70  1767.44  1904.90  1969.08
                             2074.05  2098.34  2196.09  2211.17  2223.01
                             2752.78  3093.83  4472.39  4516.49  4589.67
                             4590.95  4621.87  5055.69  5519.64

 Zero-point correction=                           0.111497 (Hartree/Particle)
 Thermal correction to Energy=                    0.118570
 Thermal correction to Enthalpy=                  0.119514
 Thermal correction to Gibbs Free Energy=         0.079032
 Sum of electronic and zero-point Energies=           -419.841702
 Sum of electronic and thermal Energies=              -419.834629
 Sum of electronic and thermal Enthalpies=            -419.833685
 Sum of electronic and thermal Free Energies=         -419.874168

                     E (Thermal)             CV                S
                      KCal/Mol        Cal/Mol-Kelvin    Cal/Mol-Kelvin
 Total                   74.404             25.001             85.203
 Electronic               0.000              0.000              1.377
 Translational            0.889              2.981             40.136
 Rotational               0.889              2.981             28.421
 Vibrational             72.626             19.040             15.270
 Vibration     1          0.605              1.946              3.367
 Vibration     2          0.625              1.881              2.453
 Vibration     3          0.629              1.868              2.334
 Vibration     4          0.652              1.794              1.874
 Vibration     5          0.697              1.661              1.380
 Vibration     6          0.782              1.428              0.894
 Vibration     7          0.905              1.140              0.545
 Vibration     8          0.964              1.020              0.440

 Normal termination of Gaussian 16 at Fri Jun 20 13:25:35 2025.
