 Gaussian 16, Revision A.03,
 Gaussian 16:  ES64L-G16RevA.03 25-Dec-2016

 --------------------------
 # freq 6-311++g(d,p) m062x
 --------------------------

 -------------------
 Title Card Required
 -------------------
 Symbolic Z-matrix:
 Charge =  0 Multiplicity = 2

                         Standard orientation:
 ---------------------------------------------------------------------
 Center     Atomic      Atomic             Coordinates (Angstroms)
 Number     Number       Type             X           Y           Z
 ---------------------------------------------------------------------
      1          8           0       -1.422804    1.550353    0.126173
      2          1           0       -2.034630    1.719721    0.853623
      3          6           0       -2.767312   -0.507033   -0.458975
      4          1           0       -3.796192   -0.555680   -0.739496
      5          6           0       -1.612948   -0.105031   -0.119161
      6          6           0       -0.222484   -0.563601    0.214335
      7          8           0        0.105624   -0.955837    1.297133
      8          8           0        0.582191   -0.341472   -0.815674
      9          6           0        1.997635   -0.430484   -0.545584
     10          6           0        2.481239    0.821146    0.160063
     11          1           0        2.448424   -0.541281   -1.529892
     12          1           0        2.186587   -1.326982    0.045661
     13          1           0        3.563021    0.768854    0.297651
     14          1           0        2.244102    1.705554   -0.432333
     15          1           0        2.011817    0.915487    1.139658
 ---------------------------------------------------------------------

 SCF Done:  E(UM062X) =  -420.221755296     A.U. after   18 cycles

 The electronic state is 2-A.
 Alpha  occ. eigenvalues --  -19.68158 -19.64532 -19.63195 -10.70251 -10.63393
 Alpha  occ. eigenvalues --  -10.60378 -10.59491 -10.53384  -1.25700  -1.16414
 Alpha  occ. eigenvalues --   -1.11862  -0.91106  -0.87557  -0.78092  -0.70885
 Alpha  occ. eigenvalues --   -0.64606  -0.61925  -0.59029  -0.58025  -0.54122
 Alpha  occ. eigenvalues --   -0.53026  -0.49787  -0.48162  -0.46180  -0.45136
 Alpha  occ. eigenvalues --   -0.41732  -0.40594  -0.39536  -0.38369  -0.36090
 Alpha  occ. eigenvalues --   -0.31279
 Alpha virt. eigenvalues --   -0.00249   0.00390   0.01133   0.01278   0.02266
 Alpha virt. eigenvalues --    0.02711   0.03270   0.04367   0.05792   0.06149
 Alpha virt. eigenvalues --    0.07169   0.07743   0.08421   0.10047   0.10516

  Beta  occ. eigenvalues --  -19.68154 -19.64002 -19.63198 -10.70194 -10.63552
  Beta  occ. eigenvalues --  -10.60377 -10.58849 -10.53384  -1.25660  -1.16406
  Beta  occ. eigenvalues --   -1.09997  -0.89934  -0.86441  -0.77402  -0.69989
  Beta  occ. eigenvalues --   -0.64388  -0.60985  -0.58725  -0.57701  -0.53359
  Beta  occ. eigenvalues --   -0.52876  -0.48742  -0.47149  -0.45306  -0.43792
  Beta  occ. eigenvalues --   -0.41664  -0.39413  -0.38978  -0.38310  -0.34673
  Beta virt. eigenvalues --   -0.08576  -0.00226   0.00455   0.01471   0.02141
  Beta virt. eigenvalues --    0.02359   0.02764   0.03465   0.04421   0.05765
  Beta virt. eigenvalues --    0.06003   0.07270   0.07650   0.08460   0.09858

 Mulliken charges and spin densities:
               1          2
     1  O   -0.283162   0.255873
     2  H    0.256689   0.000121
     3  C   -0.021151   1.016351
     4  H    0.221480  -0.028408
     5  C    0.115548  -0.310339
     6  C   -0.342217   0.061061
     7  O   -0.209131  -0.000786
     8  O    0.047650   0.003788
     9  C   -0.279994   0.001753
    10  C   -0.420491   0.001547
    11  H    0.195315   0.000239
    12  H    0.189465  -0.000273
    13  H    0.166256  -0.000078
    14  H    0.173898  -0.000246
    15  H    0.189844  -0.000604
 Sum of Mulliken charges =  -0.00000   1.00000

 Dipole moment (field-independent basis, Debye):
    X=             -0.6683    Y=             -0.3708    Z=             -0.7837  Tot=              1.0946
 Quadrupole moment (field-independent basis, Debye-Ang):
   XX=            -30.4803   YY=            -50.0088   ZZ=            -50.9379
   XY=              0.5427   XZ=             -1.5981   YZ=              4.9471

  Exact polarizability:  87.928   6.023  66.471   3.550   1.990  59.245
 Approx polarizability:  90.068   8.089  78.957   5.347   0.158  76.662

 ******    1 imaginary frequencies (negative Signs) ******

                      1                      2                      3
                      A                      A                      A
 Frequencies --   -455.1543                42.0723                93.1395
 Red. masses --      4.6119                 1.4038                 3.9755
 Frc consts  --      0.5629                 0.0015                 0.0203
 IR Inten    --     99.3970                31.8984                 7.8167

                      4                      5                      6
                      A                      A                      A
 Frequencies --    110.6921               137.1568               188.8690
 Red. masses --      2.6996                 2.8768                 1.7124
 Frc consts  --      0.0195                 0.0319                 0.0360
 IR Inten    --      5.9023                24.0298                 8.0059

                      7                      8                      9
                      A                      A                      A
 Frequencies --    226.9111               245.8119               272.9815
 Red. masses --      1.3058                 1.8312                 5.8205
 Frc consts  --      0.0396                 0.0652                 0.2555
 IR Inten    --     32.9873                 1.7429                 0.3253

                     10                     11                     12
                      A                      A                      A
 Frequencies --    340.5108               357.9780               450.1255
 Red. masses --      3.1218                 9.8216                 3.5122
 Frc consts  --      0.2133                 0.7416                 0.4193
 IR Inten    --     11.6797                 1.1599                 8.1934

                     13                     14                     15
                      A                      A                      A
 Frequencies --    595.8338               639.9674               692.2971
 Red. masses --      3.9921                 4.8093                 1.4354
 Frc consts  --      0.8350                 1.1605                 0.4053
 IR Inten    --     10.2634                16.1416                39.9434

                     16                     17                     18
                      A                      A                      A
 Frequencies --    787.0573               801.9183               894.1457
 Red. masses --     10.5854                 1.2140                 3.2331
 Frc consts  --      3.8634                 0.4600                 1.5229
 IR Inten    --     14.2598                 4.8165                16.0031

                     19                     20                     21
                      A                      A                      A
 Frequencies --    918.5345              1060.5432              1093.8771
 Red. masses --      2.6894                 2.5099                 1.4143
 Frc consts  --      1.3369                 1.6633                 0.9970
 IR Inten    --      1.5172                16.2513                60.6724

                     22                     23                     24
                      A                      A                      A
 Frequencies --   1129.2039              1202.9501              1282.2206
 Red. masses --      2.0761                 1.7733                 3.9276
 Frc consts  --      1.5597                 1.5119                 3.8046
 IR Inten    --     22.5636                 7.6661               506.7275

                     25                     26                     27
                      A                      A                      A
 Frequencies --   1343.9137              1401.8996              1430.2641
 Red. masses --      1.2350                 1.2805                 1.3650
 Frc consts  --      1.3142                 1.4827                 1.6452
 IR Inten    --     82.6516                20.0732                11.7364

                     28                     29                     30
                      A                      A                      A
 Frequencies --   1491.7930              1501.8201              1514.1508
 Red. masses --      1.0400                 1.0543                 1.0924
 Frc consts  --      1.3637                 1.4010                 1.4757
 IR Inten    --     10.5287                 0.9097                18.6378

                     31                     32                     33
                      A                      A                      A
 Frequencies --   1809.4288              1868.0529              3076.8153
 Red. masses --      7.8431                10.6229                 1.0353
 Frc consts  --     15.1293                21.8411                 5.7746
 IR Inten    --     93.0858               247.3145                 9.0707

                     34                     35                     36
                      A                      A                      A
 Frequencies --   3109.8389              3154.1820              3155.3873
 Red. masses --      1.0608                 1.1011                 1.1052
 Frc consts  --      6.0444                 6.4540                 6.4831
 IR Inten    --     19.7683                16.4770                 0.0952

                     37                     38                     39
                      A                      A                      A
 Frequencies --   3177.0130              3431.9179              3860.3903
 Red. masses --      1.1075                 1.1227                 1.0676
 Frc consts  --      6.5862                 7.7910                 9.3736
 IR Inten    --     14.4688                76.6193                66.9385

 - Thermochemistry -
 -------------------
 Temperature   298.150 Kelvin.  Pressure   1.00000 Atm.
 Atom     1 has atomic number  8 and mass  15.99491

 Molecular mass:   115.03952 amu.
 Principal axes and moments of inertia in atomic units:
                           1         2         3
     Eigenvalues --   471.651971373.001161488.53567
           X            0.99993   0.01156   0.00025
           Y           -0.01153   0.99516   0.09757
           Z            0.00088  -0.09757   0.99523
 This molecule is an asymmetric top.
 Rotational symmetry number  1.
 Warning -- assumption of classical behavior for rotation
           may cause significant error
 Rotational temperatures (Kelvin)      0.18364     0.06308     0.05819
 Rotational constants (GHZ):           3.82643     1.31445     1.21243
    1 imaginary frequencies ignored.
 Zero-point vibrational energy     292437.1 (Joules/Mol)
                                   69.89414 (Kcal/Mol)
 Warning -- explicit consideration of  12 degrees of freedom as
           vibrations may cause significant error
 Vibrational temperatures:     60.53   134.01   159.26   197.34   271.74
          (Kelvin)            326.47   353.67   392.76   489.92   515.05
                              647.63   857.27   920.77   996.06  1132.40
                             1153.78  1286.48  1321.57  1525.89  1573.85
                             1624.67  1730.78  1844.83  1933.59  2017.02
                             2057.83  2146.36  2160.78  2178.53  2603.36
                             2687.71  4426.85  4474.36  4538.16  4539.90
                             4571.01  4937.76  5554.24

 Zero-point correction=                           0.111383 (Hartree/Particle)
 Thermal correction to Energy=                    0.121058
 Thermal correction to Enthalpy=                  0.122002
 Thermal correction to Gibbs Free Energy=         0.075652
 Sum of electronic and zero-point Energies=           -420.110372
 Sum of electronic and thermal Energies=              -420.100697
 Sum of electronic and thermal Enthalpies=            -420.099753
 Sum of electronic and thermal Free Energies=         -420.146103

                     E (Thermal)             CV                S
                      KCal/Mol        Cal/Mol-Kelvin    Cal/Mol-Kelvin
 Total                   75.965             32.364             97.552
 Electronic               0.000              0.000              1.377
 Translational            0.889              2.981             40.136
 Rotational               0.889              2.981             28.357
 Vibrational             74.188             26.402             27.682
 Vibration     1          0.595              1.980              5.159
 Vibration     2          0.602              1.954              3.593
 Vibration     3          0.607              1.941              3.257
 Vibration     4          0.614              1.916              2.843
 Vibration     5          0.633              1.855              2.239
 Vibration     6          0.651              1.800              1.903
 Vibration     7          0.660              1.770              1.760
 Vibration     8          0.676              1.723              1.577
 Vibration     9          0.720              1.595              1.210
 Vibration    10          0.733              1.559              1.131
 Vibration    11          0.809              1.361              0.795
 Vibration    12          0.954              1.041              0.457

 1\1\GINC-AJ\Freq\UM062X\6-311++G(d,p)\C5H7O3(2)\AAYUSH\23-Jun-2025\0\\
 # freq 6-311++g(d,p) m062x\\Title Card Required\\0,2\O,-1.422804,1.550
 353,0.126173\H,-2.03463,1.719721,0.853623\C,-2.767312,-0.507033,-0.458
 975\H,-3.796192,-0.55568,-0.739496\C,-1.612948,-0.105031,-0.119161\C,-
 0.222484,-0.563601,0.214335\O,0.105624,-0.955837,1.297133\O,0.582191,-
 0.341472,-0.815674\C,1.997635,-0.430484,-0.545584\C,2.481239,0.821146,
 0.160063\H,2.448424,-0.541281,-1.529892\H,2.186587,-1.326982,0.045661\
 H,3.563021,0.768854,0.297651\H,2.244102,1.705554,-0.432333\H,2.011817,

 Normal termination of Gaussian 16 at Mon Jun 23 03:39:50 2025.
