 Gaussian 16, Revision A.03,
 Gaussian 16:  ES64L-G16RevA.03 25-Dec-2016

 --------------------------
 # freq 6-311++g(d,p) m062x
 --------------------------

 -------------------
 Title Card Required
 -------------------
 Symbolic Z-matrix:
 Charge =  0 Multiplicity = 2

                         Standard orientation:
 ---------------------------------------------------------------------
 Center     Atomic      Atomic             Coordinates (Angstroms)
 Number     Number       Type             X           Y           Z
 ---------------------------------------------------------------------
      1          8           0       -1.392778    1.790820    0.078660
      2          1           0       -2.025797    1.843109    0.813778
      3          6           0       -2.796857   -0.494945   -0.432836
      4          1           0       -3.828173   -0.515364   -0.697957
      5          6           0       -1.629236   -0.453633   -0.151084
      6          6           0       -0.225365   -0.584084    0.237653
      7          8           0        0.117341   -0.877462    1.348913
      8          8           0        0.578172   -0.380553   -0.799019
      9          6           0        1.992299   -0.460905   -0.528064
     10          6           0        2.487219    0.819346    0.113943
     11          1           0        2.440027   -0.622972   -1.506864
     12          1           0        2.178460   -1.328120    0.106671
     13          1           0        3.569415    0.768146    0.248830
     14          1           0        2.253242    1.675365   -0.520228
     15          1           0        2.022581    0.962722    1.089670
 ---------------------------------------------------------------------

 SCF Done:  E(UM062X) =  -420.207064885     A.U. after   22 cycles

 The electronic state is 2-A.
 Alpha  occ. eigenvalues --  -19.68000 -19.67553 -19.62901 -10.70521 -10.60295
 Alpha  occ. eigenvalues --  -10.57791 -10.57488 -10.53342  -1.25499  -1.16194
 Alpha  occ. eigenvalues --   -1.13306  -0.90560  -0.87120  -0.77916  -0.70470
 Alpha  occ. eigenvalues --   -0.64293  -0.61605  -0.58342  -0.56973  -0.54838
 Alpha  occ. eigenvalues --   -0.53254  -0.50467  -0.48650  -0.46201  -0.45010
 Alpha  occ. eigenvalues --   -0.42412  -0.41697  -0.39425  -0.38255  -0.36404
 Alpha  occ. eigenvalues --   -0.35942
 Alpha virt. eigenvalues --   -0.01110  -0.00197   0.00520   0.01491   0.02519
 Alpha virt. eigenvalues --    0.02797   0.03702   0.04433   0.05621   0.06400
 Alpha virt. eigenvalues --    0.07145   0.07826   0.08488   0.10053   0.10891

  Beta  occ. eigenvalues --  -19.68005 -19.65985 -19.62914 -10.70509 -10.60295
  Beta  occ. eigenvalues --  -10.57767 -10.57405 -10.53342  -1.25506  -1.16223
  Beta  occ. eigenvalues --   -1.05839  -0.90294  -0.86877  -0.77808  -0.70365
  Beta  occ. eigenvalues --   -0.64252  -0.61362  -0.58308  -0.56475  -0.53238
  Beta  occ. eigenvalues --   -0.52125  -0.49045  -0.46471  -0.45042  -0.41697
  Beta  occ. eigenvalues --   -0.39413  -0.39096  -0.38339  -0.38027  -0.36089
  Beta virt. eigenvalues --   -0.08978  -0.00566  -0.00038   0.00558   0.01785
  Beta virt. eigenvalues --    0.02624   0.02825   0.03737   0.04535   0.05692
  Beta virt. eigenvalues --    0.06405   0.07235   0.07886   0.08525   0.10191

 Mulliken charges and spin densities:
               1          2
     1  O   -0.224731   0.919277
     2  H    0.234150  -0.020819
     3  C   -0.454578   0.163362
     4  H    0.200156  -0.008061
     5  C    0.899430  -0.052893
     6  C   -0.755068   0.005477
     7  O   -0.196726  -0.006000
     8  O    0.056993   0.000140
     9  C   -0.257570  -0.000598
    10  C   -0.414846   0.000724
    11  H    0.195463   0.000077
    12  H    0.190475  -0.000100
    13  H    0.167135   0.000089
    14  H    0.170575  -0.000132
    15  H    0.189144  -0.000542
 Sum of Mulliken charges =  -0.00000   1.00000

 Dipole moment (field-independent basis, Debye):
    X=             -0.6299    Y=              0.2430    Z=             -0.5979  Tot=              0.9018
 Quadrupole moment (field-independent basis, Debye-Ang):
   XX=            -30.4040   YY=            -48.5060   ZZ=            -51.3449
   XY=             -0.7632   XZ=             -1.9886   YZ=              5.0917

  Exact polarizability:  91.548   4.497  63.394   4.220   0.665  59.212
 Approx polarizability:  99.292   3.266  68.123   7.335  -2.253  76.573

 ******    1 imaginary frequencies (negative Signs) ******

                      1                      2                      3
                      A                      A                      A
 Frequencies --    -24.6428                37.0040               111.3329
 Red. masses --      4.8672                 4.1742                 4.4705
 Frc consts  --      0.0017                 0.0034                 0.0326
 IR Inten    --      8.3583                 1.4145                 1.2432

                      4                      5                      6
                      A                      A                      A
 Frequencies --    119.9813               157.7372               199.3337
 Red. masses --      3.7811                 2.5562                 2.3628
 Frc consts  --      0.0321                 0.0375                 0.0553
 IR Inten    --     11.7204                11.6861                22.3667

                      7                      8                      9
                      A                      A                      A
 Frequencies --    215.3001               226.8239               275.7230
 Red. masses --      2.0692                 1.3675                 3.3280
 Frc consts  --      0.0565                 0.0415                 0.1491
 IR Inten    --     26.9633                11.2212                14.5982

                     10                     11                     12
                      A                      A                      A
 Frequencies --    337.8802               425.9589               539.8343
 Red. masses --      2.9629                 3.8032                 1.2456
 Frc consts  --      0.1993                 0.4066                 0.2139
 IR Inten    --     10.2252                 4.4887                85.4066

                     13                     14                     15
                      A                      A                      A
 Frequencies --    568.0606               608.3120               727.5119
 Red. masses --      2.7281                 7.0015                 1.3215
 Frc consts  --      0.5187                 1.5265                 0.4121
 IR Inten    --     21.9039                 7.0922                37.6671

                     16                     17                     18
                      A                      A                      A
 Frequencies --    754.4254               779.8684               802.8055
 Red. masses --      1.3227                 7.4850                 1.2159
 Frc consts  --      0.4435                 2.6822                 0.4617
 IR Inten    --     24.2858                49.7145                 5.5371

                     19                     20                     21
                      A                      A                      A
 Frequencies --    897.5873               929.0965              1077.3242
 Red. masses --      3.2183                 2.7748                 4.1229
 Frc consts  --      1.5276                 1.4113                 2.8193
 IR Inten    --     15.6833                 5.5974                21.8745

                     22                     23                     24
                      A                      A                      A
 Frequencies --   1129.8755              1204.5516              1293.3527
 Red. masses --      2.0914                 1.7703                 3.5891
 Frc consts  --      1.5731                 1.5134                 3.5373
 IR Inten    --     22.2335                 5.2301               543.5228

                     25                     26                     27
                      A                      A                      A
 Frequencies --   1348.0316              1402.2474              1432.0727
 Red. masses --      1.2591                 1.2847                 1.3871
 Frc consts  --      1.3480                 1.4883                 1.6761
 IR Inten    --    106.4951                29.9537                11.5275

                     28                     29                     30
                      A                      A                      A
 Frequencies --   1490.8243              1502.4820              1515.1094
 Red. masses --      1.0401                 1.0561                 1.0924
 Frc consts  --      1.3620                 1.4047                 1.4774
 IR Inten    --     10.8103                 0.9415                20.8580

                     31                     32                     33
                      A                      A                      A
 Frequencies --   1841.5693              2239.5948              3075.6452
 Red. masses --     11.9943                 5.8549                 1.0353
 Frc consts  --     23.9664                17.3024                 5.7703
 IR Inten    --    334.5275                61.3618                10.0854

                     34                     35                     36
                      A                      A                      A
 Frequencies --   3106.0889              3151.8274              3154.2189
 Red. masses --      1.0607                 1.1021                 1.1044
 Frc consts  --      6.0295                 6.4507                 6.4738
 IR Inten    --     19.8874                12.7974                 4.5820

                     37                     38                     39
                      A                      A                      A
 Frequencies --   3174.5172              3486.5514              3799.0204
 Red. masses --      1.1071                 1.1664                 1.0672
 Frc consts  --      6.5736                 8.3542                 9.0751
 IR Inten    --     15.0268                67.9598                35.6518

 - Thermochemistry -
 -------------------
 Temperature   298.150 Kelvin.  Pressure   1.00000 Atm.
 Atom     1 has atomic number  8 and mass  15.99491

 Molecular mass:   115.03952 amu.
 Principal axes and moments of inertia in atomic units:
                           1         2         3
     Eigenvalues --   525.897331382.429521544.74226
           X            0.99995   0.01019  -0.00128
           Y           -0.01009   0.99779   0.06575
           Z            0.00195  -0.06574   0.99784
 This molecule is an asymmetric top.
 Rotational symmetry number  1.
 Warning -- assumption of classical behavior for rotation
           may cause significant error
 Rotational temperatures (Kelvin)      0.16470     0.06265     0.05607
 Rotational constants (GHZ):           3.43174     1.30549     1.16831
    1 imaginary frequencies ignored.
 Zero-point vibrational energy     293919.4 (Joules/Mol)
                                   70.24842 (Kcal/Mol)
 Warning -- explicit consideration of  13 degrees of freedom as
           vibrations may cause significant error
 Vibrational temperatures:     53.24   160.18   172.63   226.95   286.80
          (Kelvin)            309.77   326.35   396.70   486.13   612.86
                              776.70   817.31   875.23  1046.73  1085.45
                             1122.06  1155.06  1291.43  1336.76  1550.03
                             1625.64  1733.08  1860.85  1939.52  2017.52
                             2060.43  2144.96  2161.74  2179.90  2649.61
                             3222.28  4425.17  4468.97  4534.78  4538.22
                             4567.42  5016.37  5465.94

 Zero-point correction=                           0.111948 (Hartree/Particle)
 Thermal correction to Energy=                    0.121519
 Thermal correction to Enthalpy=                  0.122463
 Thermal correction to Gibbs Free Energy=         0.076344
 Sum of electronic and zero-point Energies=           -420.095117
 Sum of electronic and thermal Energies=              -420.085546
 Sum of electronic and thermal Enthalpies=            -420.084601
 Sum of electronic and thermal Free Energies=         -420.130721

                     E (Thermal)             CV                S
                      KCal/Mol        Cal/Mol-Kelvin    Cal/Mol-Kelvin
 Total                   76.254             32.463             97.067
 Electronic               0.000              0.000              1.377
 Translational            0.889              2.981             40.136
 Rotational               0.889              2.981             28.509
 Vibrational             74.477             26.502             27.045
 Vibration     1          0.594              1.982              5.413
 Vibration     2          0.607              1.940              3.246
 Vibration     3          0.609              1.933              3.101
 Vibration     4          0.621              1.894              2.577
 Vibration     5          0.637              1.841              2.139
 Vibration     6          0.645              1.818              1.998
 Vibration     7          0.650              1.800              1.904
 Vibration     8          0.677              1.718              1.560
 Vibration     9          0.718              1.600              1.222
 Vibration    10          0.788              1.414              0.872
 Vibration    11          0.895              1.162              0.566
 Vibration    12          0.924              1.100              0.508
 Vibration    13          0.967              1.014              0.436

 1\1\GINC-AJ\Freq\UM062X\6-311++G(d,p)\C5H7O3(2)\AAYUSH\23-Jun-2025\0\\
 # freq 6-311++g(d,p) m062x\\Title Card Required\\0,2\O,-1.392778,1.790
 82,0.07866\H,-2.025797,1.843109,0.813778\C,-2.796857,-0.494945,-0.4328
 36\H,-3.828173,-0.515364,-0.697957\C,-1.629236,-0.453633,-0.151084\C,-
 0.225365,-0.584084,0.237653\O,0.117341,-0.877462,1.348913\O,0.578172,-
 0.380553,-0.799019\C,1.992299,-0.460905,-0.528064\C,2.487219,0.819346,
 0.113943\H,2.440027,-0.622972,-1.506864\H,2.17846,-1.32812,0.106671\H,
 3.569415,0.768146,0.24883\H,2.253242,1.675365,-0.520228\H,2.022581,0.9

 Normal termination of Gaussian 16 at Mon Jun 23 04:19:51 2025.
