 Gaussian 16, Revision A.03,
 Gaussian 16:  ES64L-G16RevA.03 25-Dec-2016

 --------------------------
 # freq 6-311++g(d,p) m062x
 --------------------------

 -------------------
 Title Card Required
 -------------------
 Symbolic Z-matrix:
 Charge =  0 Multiplicity = 2

                         Standard orientation:
 ---------------------------------------------------------------------
 Center     Atomic      Atomic             Coordinates (Angstroms)
 Number     Number       Type             X           Y           Z
 ---------------------------------------------------------------------
      1          8           0       -1.414142    1.618470    0.111896
      2          1           0       -2.034284    1.758157    0.841779
      3          6           0       -2.777339   -0.496337   -0.450019
      4          1           0       -3.802398   -0.578087   -0.730471
      5          6           0       -1.617373   -0.210378   -0.131774
      6          6           0       -0.220439   -0.562382    0.223241
      7          8           0        0.107438   -0.932983    1.313317
      8          8           0        0.581206   -0.353255   -0.810593
      9          6           0        1.996442   -0.440755   -0.540042
     10          6           0        2.482917    0.820421    0.145737
     11          1           0        2.445897   -0.567788   -1.523005
     12          1           0        2.183920   -1.328518    0.064829
     13          1           0        3.564751    0.768622    0.283104
     14          1           0        2.246563    1.695887   -0.460080
     15          1           0        2.014283    0.930455    1.124029
 ---------------------------------------------------------------------

 SCF Done:  E(UM062X) =  -420.206033475     A.U. after   22 cycles

 The electronic state is 2-A.
 Alpha  occ. eigenvalues --  -19.68234 -19.64451 -19.63231 -10.70659 -10.61858
 Alpha  occ. eigenvalues --  -10.60423 -10.59561 -10.53368  -1.25820  -1.16535
 Alpha  occ. eigenvalues --   -1.10801  -0.91523  -0.87716  -0.78268  -0.70943
 Alpha  occ. eigenvalues --   -0.64697  -0.62503  -0.58771  -0.57541  -0.53302
 Alpha  occ. eigenvalues --   -0.53150  -0.49748  -0.48215  -0.46002  -0.45117
 Alpha  occ. eigenvalues --   -0.41771  -0.40361  -0.39687  -0.38425  -0.36700
 Alpha  occ. eigenvalues --   -0.32333
 Alpha virt. eigenvalues --   -0.00288  -0.00021   0.00476   0.01463   0.02452
 Alpha virt. eigenvalues --    0.02697   0.03074   0.04259   0.05734   0.06128
 Alpha virt. eigenvalues --    0.07046   0.07617   0.08354   0.09913   0.10509

  Beta  occ. eigenvalues --  -19.68234 -19.63457 -19.63248 -10.70613 -10.61997
  Beta  occ. eigenvalues --  -10.60423 -10.59116 -10.53369  -1.25806  -1.16563
  Beta  occ. eigenvalues --   -1.07201  -0.90435  -0.86952  -0.77781  -0.70370
  Beta  occ. eigenvalues --   -0.64490  -0.61790  -0.58678  -0.57158  -0.53164
  Beta  occ. eigenvalues --   -0.51572  -0.48898  -0.46770  -0.45212  -0.41734
  Beta  occ. eigenvalues --   -0.41060  -0.39508  -0.38502  -0.38089  -0.35335
  Beta virt. eigenvalues --   -0.09883  -0.00182   0.00468   0.01224   0.01857
  Beta virt. eigenvalues --    0.02459   0.02772   0.03234   0.04297   0.05743
  Beta virt. eigenvalues --    0.06071   0.07154   0.07477   0.08426   0.09919

 Mulliken charges and spin densities:
               1          2
     1  O   -0.277982   0.518777
     2  H    0.239602  -0.008410
     3  C   -0.135211   0.773654
     4  H    0.215737  -0.026116
     5  C    0.377256  -0.307450
     6  C   -0.482904   0.054596
     7  O   -0.204350  -0.008825
     8  O    0.050762   0.001538
     9  C   -0.280054   0.000680
    10  C   -0.417241   0.003019
    11  H    0.195568   0.000297
    12  H    0.188232  -0.000069
    13  H    0.167099  -0.000075
    14  H    0.174053  -0.000518
    15  H    0.189433  -0.001099
 Sum of Mulliken charges =  -0.00000   1.00000

 Dipole moment (field-independent basis, Debye):
    X=             -0.7393    Y=             -0.6248    Z=             -0.8350  Tot=              1.2783
 Quadrupole moment (field-independent basis, Debye-Ang):
   XX=            -29.6487   YY=            -49.9264   ZZ=            -50.9844
   XY=              1.1124   XZ=             -1.4202   YZ=              4.9877

  Exact polarizability:  89.600   7.258  71.871   4.202   2.933  59.469
 Approx polarizability:  94.280   9.732  83.019   6.679   0.858  76.930

 ******    1 imaginary frequencies (negative Signs) ******

                      1                      2                      3
                      A                      A                      A
 Frequencies --   -687.5309                76.8564                85.0734
 Red. masses --     12.3474                 3.2336                 4.5884
 Frc consts  --      3.4388                 0.0113                 0.0196
 IR Inten    --      3.1954                 1.4897                 6.6823

                      4                      5                      6
                      A                      A                      A
 Frequencies --    117.4473               174.4818               205.6595
 Red. masses --      3.2040                 2.0390                 1.3716
 Frc consts  --      0.0260                 0.0366                 0.0342
 IR Inten    --      1.2557                22.9122                58.3804

                      7                      8                      9
                      A                      A                      A
 Frequencies --    224.2613               236.6795               284.9440
 Red. masses --      4.0643                 1.7898                 2.5504
 Frc consts  --      0.1204                 0.0591                 0.1220
 IR Inten    --      1.0140                 4.5472                 9.5300

                     10                     11                     12
                      A                      A                      A
 Frequencies --    338.2505               436.7588               495.2755
 Red. masses --      3.0868                 3.4459                 1.4118
 Frc consts  --      0.2081                 0.3873                 0.2040
 IR Inten    --     10.4481                 3.5581                35.7287

                     13                     14                     15
                      A                      A                      A
 Frequencies --    572.2591               614.7928               706.9542
 Red. masses --      3.9056                 6.4869                 1.3421
 Frc consts  --      0.7536                 1.4446                 0.3952
 IR Inten    --      6.1559                12.2673                40.3891

                     16                     17                     18
                      A                      A                      A
 Frequencies --    768.9105               802.2292               894.7038
 Red. masses --     10.0406                 1.2115                 3.1117
 Frc consts  --      3.4975                 0.4594                 1.4676
 IR Inten    --     29.1929                 4.9891                17.1511

                     19                     20                     21
                      A                      A                      A
 Frequencies --    916.7302               941.9933              1070.4227
 Red. masses --      2.1644                 1.2983                 4.0320
 Frc consts  --      1.0717                 0.6788                 2.7220
 IR Inten    --      9.3227                56.8562                28.8901

                     22                     23                     24
                      A                      A                      A
 Frequencies --   1129.2765              1203.4658              1283.4970
 Red. masses --      2.0798                 1.7715                 3.8806
 Frc consts  --      1.5627                 1.5117                 3.7665
 IR Inten    --     21.4403                 7.9933               522.2354

                     25                     26                     27
                      A                      A                      A
 Frequencies --   1344.7667              1402.2058              1430.7942
 Red. masses --      1.2391                 1.2811                 1.3692
 Frc consts  --      1.3202                 1.4840                 1.6515
 IR Inten    --     86.1745                21.6584                13.1126

                     28                     29                     30
                      A                      A                      A
 Frequencies --   1491.4475              1501.9697              1514.7164
 Red. masses --      1.0400                 1.0537                 1.0935
 Frc consts  --      1.3630                 1.4006                 1.4782
 IR Inten    --     10.8543                 1.0678                20.1694

                     31                     32                     33
                      A                      A                      A
 Frequencies --   1847.3230              1975.3190              3076.7490
 Red. masses --     11.5852                 7.0323                 1.0353
 Frc consts  --     23.2937                16.1668                 5.7744
 IR Inten    --    333.6061                51.5957                 8.8731

                     34                     35                     36
                      A                      A                      A
 Frequencies --   3109.2543              3154.1400              3155.3282
 Red. masses --      1.0608                 1.1011                 1.1052
 Frc consts  --      6.0423                 6.4541                 6.4830
 IR Inten    --     19.6416                16.2372                 0.1679

                     37                     38                     39
                      A                      A                      A
 Frequencies --   3176.8103              3459.7051              3837.5567
 Red. masses --      1.1074                 1.1334                 1.0677
 Frc consts  --      6.5850                 7.9931                 9.2643
 IR Inten    --     14.2770                78.9543                60.7476

 - Thermochemistry -
 -------------------
 Temperature   298.150 Kelvin.  Pressure   1.00000 Atm.
 Atom     1 has atomic number  8 and mass  15.99491

 Molecular mass:   115.03952 amu.
 Principal axes and moments of inertia in atomic units:
                           1         2         3
     Eigenvalues --   484.893331375.968491502.53134
           X            0.99993   0.01157  -0.00016
           Y           -0.01151   0.99601   0.08846
           Z            0.00119  -0.08846   0.99608
 This molecule is an asymmetric top.
 Rotational symmetry number  1.
 Warning -- assumption of classical behavior for rotation
           may cause significant error
 Rotational temperatures (Kelvin)      0.17862     0.06295     0.05765
 Rotational constants (GHZ):           3.72193     1.31162     1.20113
    1 imaginary frequencies ignored.
 Zero-point vibrational energy     293438.0 (Joules/Mol)
                                   70.13337 (Kcal/Mol)
 Warning -- explicit consideration of  13 degrees of freedom as
           vibrations may cause significant error
 Vibrational temperatures:    110.58   122.40   168.98   251.04   295.90
          (Kelvin)            322.66   340.53   409.97   486.67   628.40
                              712.59   823.35   884.55  1017.15  1106.29
                             1154.23  1287.28  1318.97  1355.32  1540.10
                             1624.78  1731.52  1846.67  1934.82  2017.46
                             2058.59  2145.86  2161.00  2179.34  2657.89
                             2842.04  4426.76  4473.52  4538.10  4539.81
                             4570.72  4977.74  5521.39

 Zero-point correction=                           0.111765 (Hartree/Particle)
 Thermal correction to Energy=                    0.121216
 Thermal correction to Enthalpy=                  0.122160
 Thermal correction to Gibbs Free Energy=         0.076743
 Sum of electronic and zero-point Energies=           -420.094269
 Sum of electronic and thermal Energies=              -420.084818
 Sum of electronic and thermal Enthalpies=            -420.083874
 Sum of electronic and thermal Free Energies=         -420.129290

                     E (Thermal)             CV                S
                      KCal/Mol        Cal/Mol-Kelvin    Cal/Mol-Kelvin
 Total                   76.064             32.261             95.587
 Electronic               0.000              0.000              1.377
 Translational            0.889              2.981             40.136
 Rotational               0.889              2.981             28.396
 Vibrational             74.286             26.299             25.678
 Vibration     1          0.599              1.965              3.970
 Vibration     2          0.601              1.960              3.770
 Vibration     3          0.608              1.935              3.142
 Vibration     4          0.627              1.874              2.387
 Vibration     5          0.640              1.832              2.082
 Vibration     6          0.649              1.804              1.924
 Vibration     7          0.656              1.785              1.828
 Vibration     8          0.683              1.702              1.504
 Vibration     9          0.719              1.599              1.220
 Vibration    10          0.797              1.390              0.837
 Vibration    11          0.851              1.260              0.670
 Vibration    12          0.928              1.091              0.500
 Vibration    13          0.974              1.001              0.425

 1\1\GINC-AJ\Freq\UM062X\6-311++G(d,p)\C5H7O3(2)\AAYUSH\16-Aug-2025\0\\
 # freq 6-311++g(d,p) m062x\\Title Card Required\\0,2\O,-1.356002,1.643
 571,0.090563\H,-1.975743,1.791859,0.819089\C,-2.72078,-0.476555,-0.446
 941\H,-3.74601,-0.560802,-0.726024\C,-1.560497,-0.187774,-0.132423\C,-
 0.163634,-0.536652,0.225944\O,0.164474,-0.895171,1.319983\O,0.637701,-
 0.339685,-0.810516\C,2.052997,-0.425039,-0.539592\C,2.540564,0.843464,
 0.131744\H,2.50195,-0.563413,-1.521253\H,2.240171,-1.306058,0.075153\H
 ,3.622424,0.792523,0.269231\H,2.304506,1.712207,-0.483788\H,2.072419,0

 Normal termination of Gaussian 16 at Sat Aug 16 16:30:26 2025.
