 Gaussian 16, Revision A.03,
 Gaussian 16:  ES64L-G16RevA.03 25-Dec-2016

 -------------------
 # freq 6-31+g m062x
 -------------------

 -------------------
 Title Card Required
 -------------------
 Symbolic Z-matrix:
 Charge =  0 Multiplicity = 2

                         Standard orientation:
 ---------------------------------------------------------------------
 Center     Atomic      Atomic             Coordinates (Angstroms)
 Number     Number       Type             X           Y           Z
 ---------------------------------------------------------------------
      1          8           0       -1.395101    1.775143    0.081783
      2          1           0       -2.028916    1.837384    0.815250
      3          6           0       -2.794990   -0.493677   -0.434183
      4          1           0       -3.825670   -0.523713   -0.700856
      5          6           0       -1.628057   -0.435255   -0.150144
      6          6           0       -0.224738   -0.579866    0.236651
      7          8           0        0.116250   -0.882793    1.345721
      8          8           0        0.578890   -0.377451   -0.800020
      9          6           0        1.992885   -0.459278   -0.529049
     10          6           0        2.486812    0.819454    0.116852
     11          1           0        2.440903   -0.618331   -1.508194
     12          1           0        2.178923   -1.328355    0.103134
     13          1           0        3.568939    0.768662    0.252345
     14          1           0        2.252551    1.677080   -0.515034
     15          1           0        2.021483    0.959806    1.092723
 ---------------------------------------------------------------------

 SCF Done:  E(UM062X) =  -419.959049710     A.U. after   24 cycles

 The electronic state is 2-A.
 Alpha  occ. eigenvalues --  -19.70301 -19.70053 -19.66020 -10.72857 -10.61242
 Alpha  occ. eigenvalues --  -10.59618 -10.59206 -10.54106  -1.27800  -1.18449
 Alpha  occ. eigenvalues --   -1.14452  -0.91321  -0.87835  -0.78384  -0.71055
 Alpha  occ. eigenvalues --   -0.64410  -0.62023  -0.58442  -0.57075  -0.54512
 Alpha  occ. eigenvalues --   -0.53666  -0.50511  -0.48679  -0.46368  -0.44965
 Alpha  occ. eigenvalues --   -0.42295  -0.41658  -0.39443  -0.37971  -0.36705
 Alpha  occ. eigenvalues --   -0.36022
 Alpha virt. eigenvalues --   -0.01078   0.01989   0.02496   0.03662   0.03761
 Alpha virt. eigenvalues --    0.04487   0.05469   0.05895   0.07703   0.08302
 Alpha virt. eigenvalues --    0.08848   0.08924   0.10055   0.11856   0.12298

  Beta  occ. eigenvalues --  -19.70305 -19.68428 -19.66035 -10.72841 -10.61242
  Beta  occ. eigenvalues --  -10.59616 -10.59095 -10.54106  -1.27808  -1.18475
  Beta  occ. eigenvalues --   -1.07368  -0.91043  -0.87622  -0.78289  -0.70952
  Beta  occ. eigenvalues --   -0.64368  -0.61744  -0.58326  -0.56741  -0.53652
  Beta  occ. eigenvalues --   -0.51599  -0.49210  -0.46587  -0.45013  -0.41656
  Beta  occ. eigenvalues --   -0.39387  -0.39011  -0.38405  -0.38002  -0.36371
  Beta virt. eigenvalues --   -0.09217  -0.00494   0.02037   0.02510   0.03762
  Beta virt. eigenvalues --    0.03792   0.04681   0.05537   0.05972   0.07759
  Beta virt. eigenvalues --    0.08248   0.08927   0.09012   0.10137   0.11953

 Mulliken charges and spin densities:
               1          2
     1  O   -0.417762   0.919915
     2  H    0.405672  -0.033712
     3  C   -0.176953   0.119747
     4  H    0.338013  -0.006581
     5  C   -0.216584  -0.053593
     6  C    0.250814   0.062675
     7  O   -0.336421  -0.006932
     8  O   -0.163828  -0.000408
     9  C   -0.242103  -0.000997
    10  C   -0.560961   0.000120
    11  H    0.219400  -0.000014
    12  H    0.231978  -0.000068
    13  H    0.204571  -0.000025
    14  H    0.227531  -0.000056
    15  H    0.236634  -0.000072
 Sum of Mulliken charges =  -0.00000   1.00000

 Dipole moment (field-independent basis, Debye):
    X=             -0.7883    Y=              0.1925    Z=             -0.3681  Tot=              0.8911
 Quadrupole moment (field-independent basis, Debye-Ang):
   XX=            -29.8490   YY=            -48.8008   ZZ=            -52.4703
   XY=             -0.9014   XZ=             -2.3536   YZ=              5.6886

  Exact polarizability:  87.255   4.656  60.267   3.755   0.219  56.851
 Approx polarizability:  93.040   4.115  59.511   7.481  -3.364  71.378

 ******    4 imaginary frequencies (negative Signs) ******

                      1                      2                      3
                      A                      A                      A
 Frequencies --   -459.0873              -142.3569               -71.1241
 Red. masses --      1.0899                 3.6358                 4.4095
 Frc consts  --      0.1353                 0.0434                 0.0131
 IR Inten    --    121.8587                28.2559                 9.7800

                      4                      5                      6
                      A                      A                      A
 Frequencies --    -13.5996                81.8328                92.3322
 Red. masses --      2.6426                 3.3190                 4.0593
 Frc consts  --      0.0003                 0.0131                 0.0204
 IR Inten    --      0.2606                 3.9357                 3.5235

                      7                      8                      9
                      A                      A                      A
 Frequencies --    155.5660               174.7203               204.8567
 Red. masses --      4.4202                 1.3729                 4.0948
 Frc consts  --      0.0630                 0.0247                 0.1012
 IR Inten    --      9.5964                 2.2153                 0.1546

                     10                     11                     12
                      A                      A                      A
 Frequencies --    303.9447               321.5335               424.0339
 Red. masses --      2.3438                 1.7745                 3.6691
 Frc consts  --      0.1276                 0.1081                 0.3887
 IR Inten    --     31.7014                79.0206                 1.3195

                     13                     14                     15
                      A                      A                      A
 Frequencies --    572.3002               622.8599               754.0273
 Red. masses --      4.2417                 5.4111                 5.1469
 Frc consts  --      0.8185                 1.2369                 1.7241
 IR Inten    --      2.9917                12.9967                76.3996

                     16                     17                     18
                      A                      A                      A
 Frequencies --    768.2265               801.3167               818.3100
 Red. masses --      1.4710                 1.4027                 1.2812
 Frc consts  --      0.5115                 0.5307                 0.5055
 IR Inten    --     41.1399                38.1612                 4.5341

                     19                     20                     21
                      A                      A                      A
 Frequencies --    899.4339               946.2047              1112.2298
 Red. masses --      3.4134                 2.5183                 4.1621
 Frc consts  --      1.6270                 1.3284                 3.0336
 IR Inten    --     20.8608                 5.5640                 8.6620

                     22                     23                     24
                      A                      A                      A
 Frequencies --   1159.5243              1228.8478              1329.2894
 Red. masses --      2.0903                 1.7543                 1.8247
 Frc consts  --      1.6558                 1.5608                 1.8996
 IR Inten    --     18.7273                 4.6280               284.6820

                     25                     26                     27
                      A                      A                      A
 Frequencies --   1372.8749              1443.3465              1457.5309
 Red. masses --      1.8637                 1.3909                 1.2667
 Frc consts  --      2.0697                 1.7072                 1.5854
 IR Inten    --    305.9414                41.5026                17.6416

                     28                     29                     30
                      A                      A                      A
 Frequencies --   1526.0100              1536.6825              1544.4597
 Red. masses --      1.0414                 1.0592                 1.0862
 Frc consts  --      1.4289                 1.4736                 1.5266
 IR Inten    --     14.7513                 2.1339                27.3464

                     31                     32                     33
                      A                      A                      A
 Frequencies --   1908.5694              2298.6747              3107.8057
 Red. masses --     12.2582                 5.6789                 1.0350
 Frc consts  --     26.3082                17.6794                 5.8900
 IR Inten    --    311.9469                64.1052                12.9739

                     34                     35                     36
                      A                      A                      A
 Frequencies --   3136.8032              3188.1555              3190.2723
 Red. masses --      1.0601                 1.1023                 1.1007
 Frc consts  --      6.1457                 6.6015                 6.6006
 IR Inten    --     21.7049                 5.7442                15.1393

                     37                     38                     39
                      A                      A                      A
 Frequencies --   3211.1041              3529.0541              3810.4698
 Red. masses --      1.1051                 1.1734                 1.0672
 Frc consts  --      6.7139                 8.6100                 9.1296
 IR Inten    --     17.6330                60.7476                11.8856

 - Thermochemistry -
 -------------------
 Temperature   298.150 Kelvin.  Pressure   1.00000 Atm.
 Atom     1 has atomic number  8 and mass  15.99491

 Molecular mass:   115.03952 amu.
 Principal axes and moments of inertia in atomic units:
                           1         2         3
     Eigenvalues --   521.790561381.927411540.64731
           X            0.99995   0.01032  -0.00118
           Y           -0.01022   0.99766   0.06757
           Z            0.00188  -0.06756   0.99771
 This molecule is an asymmetric top.
 Rotational symmetry number  1.
 Warning -- assumption of classical behavior for rotation
           may cause significant error
 Rotational temperatures (Kelvin)      0.16599     0.06268     0.05622
 Rotational constants (GHZ):           3.45875     1.30596     1.17142
    4 imaginary frequencies ignored.
 Zero-point vibrational energy     293283.7 (Joules/Mol)
                                   70.09648 (Kcal/Mol)
 Warning -- explicit consideration of   9 degrees of freedom as
           vibrations may cause significant error
 Vibrational temperatures:    117.74   132.85   223.82   251.38   294.74
          (Kelvin)            437.31   462.61   610.09   823.41   896.16
                             1084.88  1105.31  1152.92  1177.37  1294.08
                             1361.38  1600.25  1668.30  1768.04  1912.55
                             1975.26  2076.65  2097.06  2195.59  2210.94
                             2222.13  2746.01  3307.28  4471.44  4513.16
                             4587.04  4590.09  4620.06  5077.52  5482.42

 Zero-point correction=                           0.111706 (Hartree/Particle)
 Thermal correction to Energy=                    0.119800
 Thermal correction to Enthalpy=                  0.120744
 Thermal correction to Gibbs Free Energy=         0.077782
 Sum of electronic and zero-point Energies=           -419.847344
 Sum of electronic and thermal Energies=              -419.839250
 Sum of electronic and thermal Enthalpies=            -419.838306
 Sum of electronic and thermal Free Energies=         -419.881268

                     E (Thermal)             CV                S
                      KCal/Mol        Cal/Mol-Kelvin    Cal/Mol-Kelvin
 Total                   75.175             27.254             90.420
 Electronic               0.000              0.000              1.377
 Translational            0.889              2.981             40.136
 Rotational               0.889              2.981             28.498
 Vibrational             73.398             21.292             20.409
 Vibration     1          0.600              1.962              3.846
 Vibration     2          0.602              1.955              3.610
 Vibration     3          0.620              1.896              2.603
 Vibration     4          0.627              1.874              2.384
 Vibration     5          0.640              1.833              2.089
 Vibration     6          0.695              1.666              1.395
 Vibration     7          0.707              1.632              1.302
 Vibration     8          0.786              1.418              0.878
 Vibration     9          0.929              1.091              0.500

 Normal termination of Gaussian 16 at Fri Jun 20 13:24:45 2025.
