 Gaussian 16, Revision A.03,
 Gaussian 16:  ES64L-G16RevA.03 25-Dec-2016

 -------------------
 # freq 6-31+g m062x
 -------------------

 -------------------
 Title Card Required
 -------------------
 Symbolic Z-matrix:
 Charge =  0 Multiplicity = 2

                         Standard orientation:
 ---------------------------------------------------------------------
 Center     Atomic      Atomic             Coordinates (Angstroms)
 Number     Number       Type             X           Y           Z
 ---------------------------------------------------------------------
      1          8           0       -1.424963    1.536338    0.129163
      2          1           0       -2.035355    1.712807    0.855621
      3          6           0       -2.764063   -0.509674   -0.460906
      4          1           0       -3.794351   -0.545952   -0.740599
      5          6           0       -1.612323   -0.084627   -0.116495
      6          6           0       -0.223335   -0.563721    0.212337
      7          8           0        0.105246   -0.960818    1.293442
      8          8           0        0.582496   -0.338839   -0.816750
      9          6           0        1.997918   -0.428099   -0.546669
     10          6           0        2.480776    0.821469    0.163337
     11          1           0        2.449142   -0.535273   -1.531185
     12          1           0        2.187332   -1.326426    0.041611
     13          1           0        3.562545    0.769242    0.301050
     14          1           0        2.243458    1.707794   -0.426143
     15          1           0        2.011154    0.912273    1.143190
 ---------------------------------------------------------------------

 SCF Done:  E(UM062X) =  -419.972428842     A.U. after   19 cycles

 The electronic state is 2-A.
 Alpha  occ. eigenvalues --  -19.70513 -19.67331 -19.66430 -10.72587 -10.65004
 Alpha  occ. eigenvalues --  -10.61362 -10.61064 -10.54183  -1.28090  -1.18718
 Alpha  occ. eigenvalues --   -1.13849  -0.91812  -0.88190  -0.78554  -0.71536
 Alpha  occ. eigenvalues --   -0.64746  -0.62359  -0.59790  -0.58013  -0.54656
 Alpha  occ. eigenvalues --   -0.53517  -0.49755  -0.48097  -0.46514  -0.45180
 Alpha  occ. eigenvalues --   -0.41857  -0.40813  -0.39445  -0.38113  -0.36120
 Alpha  occ. eigenvalues --   -0.31187
 Alpha virt. eigenvalues --    0.00860   0.01782   0.02060   0.02696   0.03686
 Alpha virt. eigenvalues --    0.04311   0.05631   0.06220   0.07733   0.08260
 Alpha virt. eigenvalues --    0.08804   0.08977   0.09835   0.11423   0.12106

  Beta  occ. eigenvalues --  -19.70507 -19.66841 -19.66433 -10.72517 -10.65180
  Beta  occ. eigenvalues --  -10.61360 -10.60352 -10.54184  -1.28045  -1.18700
  Beta  occ. eigenvalues --   -1.12254  -0.90669  -0.87176  -0.77930  -0.70666
  Beta  occ. eigenvalues --   -0.64543  -0.61231  -0.59246  -0.57822  -0.53976
  Beta  occ. eigenvalues --   -0.53384  -0.48983  -0.47113  -0.45564  -0.44176
  Beta  occ. eigenvalues --   -0.41684  -0.39783  -0.38894  -0.38065  -0.34680
  Beta virt. eigenvalues --   -0.08608   0.01348   0.01596   0.02312   0.02907
  Beta virt. eigenvalues --    0.03807   0.04259   0.05579   0.06029   0.07589
  Beta virt. eigenvalues --    0.08096   0.08566   0.08859   0.10036   0.11183

 Mulliken charges and spin densities:
               1          2
     1  O   -0.520774   0.230536
     2  H    0.429990  -0.004713
     3  C    0.328200   1.063285
     4  H    0.280831  -0.036426
     5  C   -0.368505  -0.318259
     6  C    0.047738   0.059541
     7  O   -0.349334   0.000938
     8  O   -0.171737   0.002592
     9  C   -0.240811   0.001952
    10  C   -0.562397   0.000638
    11  H    0.221631  -0.000022
    12  H    0.235635  -0.000156
    13  H    0.204686  -0.000014
    14  H    0.230391   0.000042
    15  H    0.234455   0.000066
 Sum of Mulliken charges =  -0.00000   1.00000

 Dipole moment (field-independent basis, Debye):
    X=             -0.7996    Y=             -0.3277    Z=             -0.5161  Tot=              1.0065
 Quadrupole moment (field-independent basis, Debye-Ang):
   XX=            -29.9184   YY=            -50.6288   ZZ=            -52.0551
   XY=              0.0733   XZ=             -2.0351   YZ=              5.5129

  Exact polarizability:  83.606   6.041  62.737   3.022   1.291  56.812
 Approx polarizability:  83.301   8.897  70.713   5.380  -1.106  71.283

 ******    3 imaginary frequencies (negative Signs) ******

                      1                      2                      3
                      A                      A                      A
 Frequencies --   -472.7197              -343.1657               -63.9324
 Red. masses --      1.0726                 2.1781                 5.2785
 Frc consts  --      0.1412                 0.1511                 0.0127
 IR Inten    --    115.6805               131.3495                 2.9297

                      4                      5                      6
                      A                      A                      A
 Frequencies --     49.8250                63.7109               149.0748
 Red. masses --      2.9484                 3.3619                 1.6033
 Frc consts  --      0.0043                 0.0080                 0.0210
 IR Inten    --      2.6017                 7.3186                 4.4902

                      7                      8                      9
                      A                      A                      A
 Frequencies --    205.4208               216.0363               283.7647
 Red. masses --      2.1429                 2.4127                 4.2832
 Frc consts  --      0.0533                 0.0663                 0.2032
 IR Inten    --      3.0251                 1.1550                 1.2110

                     10                     11                     12
                      A                      A                      A
 Frequencies --    314.2192               379.2113               445.0584
 Red. masses --      3.1466                 7.1037                 3.7468
 Frc consts  --      0.1830                 0.6019                 0.4373
 IR Inten    --     16.4895                 3.8303                 8.7673

                     13                     14                     15
                      A                      A                      A
 Frequencies --    588.9873               644.9062               711.7495
 Red. masses --      3.8140                 5.0808                 1.3746
 Frc consts  --      0.7795                 1.2450                 0.4103
 IR Inten    --     16.4919                19.1202                54.8112

                     16                     17                     18
                      A                      A                      A
 Frequencies --    741.1013               816.3041               892.9418
 Red. masses --     10.1248                 1.3325                 3.1385
 Frc consts  --      3.2764                 0.5232                 1.4744
 IR Inten    --     13.1454                 6.9008                18.4046

                     19                     20                     21
                      A                      A                      A
 Frequencies --    931.8743              1051.0364              1107.8290
 Red. masses --      2.3683                 1.3287                 3.5486
 Frc consts  --      1.2117                 0.8648                 2.5660
 IR Inten    --      3.5675                31.4416                21.1510

                     22                     23                     24
                      A                      A                      A
 Frequencies --   1158.0311              1227.6108              1319.8348
 Red. masses --      2.0562                 1.7443                 2.2252
 Frc consts  --      1.6247                 1.5488                 2.2839
 IR Inten    --     19.1593                 5.9948               320.6508

                     25                     26                     27
                      A                      A                      A
 Frequencies --   1365.7441              1439.7247              1458.9354
 Red. masses --      1.6316                 1.3663                 1.2458
 Frc consts  --      1.7931                 1.6686                 1.5623
 IR Inten    --    218.3955                21.0531                19.7907

                     28                     29                     30
                      A                      A                      A
 Frequencies --   1526.9683              1536.8947              1545.2733
 Red. masses --      1.0411                 1.0528                 1.0902
 Frc consts  --      1.4303                 1.4651                 1.5338
 IR Inten    --     14.7836                 2.1525                24.3345

                     31                     32                     33
                      A                      A                      A
 Frequencies --   1843.3754              1923.2332              3108.8409
 Red. masses --      7.2904                11.8066                 1.0351
 Frc consts  --     14.5958                25.7300                 5.8940
 IR Inten    --     37.4515               276.4511                11.8977

                     34                     35                     36
                      A                      A                      A
 Frequencies --   3140.2286              3190.6824              3191.1907
 Red. masses --      1.0602                 1.1036                 1.0992
 Frc consts  --      6.1595                 6.6195                 6.5952
 IR Inten    --     21.1420                 0.2477                19.3038

                     37                     38                     39
                      A                      A                      A
 Frequencies --   3213.0478              3468.8493              3878.3851
 Red. masses --      1.1054                 1.1241                 1.0669
 Frc consts  --      6.7239                 7.9698                 9.4554
 IR Inten    --     16.8211                59.3548                39.9389

 - Thermochemistry -
 -------------------
 Temperature   298.150 Kelvin.  Pressure   1.00000 Atm.
 Atom     1 has atomic number  8 and mass  15.99491

 Molecular mass:   115.03952 amu.
 Principal axes and moments of inertia in atomic units:
                           1         2         3
     Eigenvalues --   469.124971372.163811485.70052
           X            0.99993   0.01148   0.00033
           Y           -0.01146   0.99499   0.09931
           Z            0.00082  -0.09930   0.99506
 This molecule is an asymmetric top.
 Rotational symmetry number  1.
 Warning -- assumption of classical behavior for rotation
           may cause significant error
 Rotational temperatures (Kelvin)      0.18463     0.06312     0.05830
 Rotational constants (GHZ):           3.84704     1.31525     1.21474
    3 imaginary frequencies ignored.
 Zero-point vibrational energy     293862.1 (Joules/Mol)
                                   70.23472 (Kcal/Mol)
 Warning -- explicit consideration of  10 degrees of freedom as
           vibrations may cause significant error
 Vibrational temperatures:     71.69    91.67   214.49   295.55   310.83
          (Kelvin)            408.27   452.09   545.60   640.34   847.42
                              927.88  1024.05  1066.28  1174.48  1284.74
                             1340.76  1512.21  1593.92  1666.15  1766.26
                             1898.95  1965.00  2071.44  2099.08  2196.97
                             2211.25  2223.30  2652.21  2767.10  4472.93
                             4518.09  4590.68  4591.41  4622.86  4990.90
                             5580.13

 Zero-point correction=                           0.111926 (Hartree/Particle)
 Thermal correction to Energy=                    0.120396
 Thermal correction to Enthalpy=                  0.121340
 Thermal correction to Gibbs Free Energy=         0.077303
 Sum of electronic and zero-point Energies=           -419.860503
 Sum of electronic and thermal Energies=              -419.852033
 Sum of electronic and thermal Enthalpies=            -419.851089
 Sum of electronic and thermal Free Energies=         -419.895126

                     E (Thermal)             CV                S
                      KCal/Mol        Cal/Mol-Kelvin    Cal/Mol-Kelvin
 Total                   75.549             28.536             92.684
 Electronic               0.000              0.000              1.377
 Translational            0.889              2.981             40.136
 Rotational               0.889              2.981             28.349
 Vibrational             73.772             22.575             22.822
 Vibration     1          0.595              1.978              4.824
 Vibration     2          0.597              1.972              4.339
 Vibration     3          0.618              1.904              2.684
 Vibration     4          0.640              1.832              2.084
 Vibration     5          0.645              1.817              1.992
 Vibration     6          0.682              1.704              1.511
 Vibration     7          0.702              1.647              1.340
 Vibration     8          0.749              1.514              1.042
 Vibration     9          0.804              1.372              0.811
 Vibration    10          0.946              1.055              0.469

 Normal termination of Gaussian 16 at Fri Jun 20 13:21:33 2025.
