 Gaussian 16, Revision A.03,
 Gaussian 16:  ES64L-G16RevA.03 25-Dec-2016

 -------------------
 # freq 6-31+g m062x
 -------------------

 -------------------
 Title Card Required
 -------------------
 Symbolic Z-matrix:
 Charge =  0 Multiplicity = 2

                         Standard orientation:
 ---------------------------------------------------------------------
 Center     Atomic      Atomic             Coordinates (Angstroms)
 Number     Number       Type             X           Y           Z
 ---------------------------------------------------------------------
      1          8           0       -1.399437    1.744684    0.087529
      2          1           0       -2.032937    1.825776    0.819010
      3          6           0       -2.790960   -0.491932   -0.436857
      4          1           0       -3.820140   -0.540073   -0.706745
      5          6           0       -1.625836   -0.397145   -0.147902
      6          6           0       -0.223646   -0.572646    0.234689
      7          8           0        0.114003   -0.892943    1.339534
      8          8           0        0.579967   -0.372236   -0.801978
      9          6           0        1.993860   -0.456061   -0.530917
     10          6           0        2.485892    0.819745    0.122456
     11          1           0        2.442414   -0.609176   -1.510728
     12          1           0        2.180011   -1.328648    0.096305
     13          1           0        3.567910    0.769450    0.258883
     14          1           0        2.251146    1.680540   -0.504904
     15          1           0        2.019479    0.954329    1.098680
 ---------------------------------------------------------------------

 SCF Done:  E(UM062X) =  -419.957314099     A.U. after   24 cycles

 The electronic state is 2-A.
 Alpha  occ. eigenvalues --  -19.70317 -19.69694 -19.66043 -10.72876 -10.61257
 Alpha  occ. eigenvalues --  -10.59884 -10.59383 -10.54123  -1.27838  -1.18489
 Alpha  occ. eigenvalues --   -1.14186  -0.91428  -0.87905  -0.78429  -0.71094
 Alpha  occ. eigenvalues --   -0.64444  -0.62137  -0.58529  -0.57131  -0.54262
 Alpha  occ. eigenvalues --   -0.53666  -0.50505  -0.48624  -0.46349  -0.44990
 Alpha  occ. eigenvalues --   -0.42025  -0.41659  -0.39495  -0.37980  -0.36743
 Alpha  occ. eigenvalues --   -0.35605
 Alpha virt. eigenvalues --   -0.00973   0.01976   0.02495   0.03663   0.03735
 Alpha virt. eigenvalues --    0.04449   0.05480   0.05875   0.07701   0.08205
 Alpha virt. eigenvalues --    0.08839   0.08934   0.10040   0.11852   0.12297

  Beta  occ. eigenvalues --  -19.70322 -19.68098 -19.66060 -10.72856 -10.61257
  Beta  occ. eigenvalues --  -10.59897 -10.59239 -10.54124  -1.27845  -1.18518
  Beta  occ. eigenvalues --   -1.07397  -0.91088  -0.87653  -0.78311  -0.70964
  Beta  occ. eigenvalues --   -0.64389  -0.61794  -0.58393  -0.56798  -0.53651
  Beta  occ. eigenvalues --   -0.51472  -0.49201  -0.46609  -0.45049  -0.41663
  Beta  occ. eigenvalues --   -0.39397  -0.39083  -0.38356  -0.38009  -0.36315
  Beta virt. eigenvalues --   -0.09321  -0.00244   0.02025   0.02512   0.03724
  Beta virt. eigenvalues --    0.03778   0.04654   0.05546   0.05938   0.07750
  Beta virt. eigenvalues --    0.08155   0.08931   0.08994   0.10132   0.11920

 Mulliken charges and spin densities:
               1          2
     1  O   -0.424167   0.891279
     2  H    0.406557  -0.032498
     3  C   -0.049296   0.166940
     4  H    0.332244  -0.008272
     5  C   -0.265077  -0.074061
     6  C    0.188822   0.066024
     7  O   -0.338663  -0.008034
     8  O   -0.163467  -0.000461
     9  C   -0.250784  -0.000916
    10  C   -0.557297   0.000230
    11  H    0.219777  -0.000013
    12  H    0.232725  -0.000083
    13  H    0.204627  -0.000027
    14  H    0.227774  -0.000052
    15  H    0.236226  -0.000056
 Sum of Mulliken charges =  -0.00000   1.00000

 Dipole moment (field-independent basis, Debye):
    X=             -0.7912    Y=              0.1184    Z=             -0.3978  Tot=              0.8935
 Quadrupole moment (field-independent basis, Debye-Ang):
   XX=            -29.7331   YY=            -48.9241   ZZ=            -52.4142
   XY=             -0.6511   XZ=             -2.2689   YZ=              5.6926

  Exact polarizability:  87.180   5.480  62.763   3.888   0.813  56.942
 Approx polarizability:  92.824   5.551  61.805   7.578  -2.870  71.413

 ******    4 imaginary frequencies (negative Signs) ******

                      1                      2                      3
                      A                      A                      A
 Frequencies --   -456.5114              -153.3399               -78.4093
 Red. masses --      1.0901                 5.0347                 4.3477
 Frc consts  --      0.1339                 0.0697                 0.0157
 IR Inten    --    119.2623                 5.3024                16.1735

                      4                      5                      6
                      A                      A                      A
 Frequencies --    -19.6122                41.6122                84.0689
 Red. masses --      2.4219                 7.3816                 3.2493
 Frc consts  --      0.0005                 0.0075                 0.0135
 IR Inten    --      0.2887                 0.3493                 6.6092

                      7                      8                      9
                      A                      A                      A
 Frequencies --    137.5434               173.5440               191.2294
 Red. masses --      6.3448                 1.2721                 5.2065
 Frc consts  --      0.0707                 0.0226                 0.1122
 IR Inten    --      0.1452                 1.4354                 2.9214

                     10                     11                     12
                      A                      A                      A
 Frequencies --    305.7088               369.7565               426.6614
 Red. masses --      2.7520                 1.3200                 3.0436
 Frc consts  --      0.1515                 0.1063                 0.3264
 IR Inten    --     14.5757               110.1055                 8.1173

                     13                     14                     15
                      A                      A                      A
 Frequencies --    573.0931               621.0478               737.9091
 Red. masses --      4.2151                 5.4796                 4.2596
 Frc consts  --      0.8157                 1.2452                 1.3665
 IR Inten    --      3.4781                12.8575                21.7092

                     16                     17                     18
                      A                      A                      A
 Frequencies --    747.9669               784.9141               818.1168
 Red. masses --      1.5966                 1.3542                 1.2738
 Frc consts  --      0.5263                 0.4915                 0.5023
 IR Inten    --     84.8554                48.2733                 5.8482

                     19                     20                     21
                      A                      A                      A
 Frequencies --    899.2422               946.2903              1111.3572
 Red. masses --      3.4001                 2.5153                 4.1683
 Frc consts  --      1.6199                 1.3271                 3.0333
 IR Inten    --     20.8638                 5.6928                 9.3173

                     22                     23                     24
                      A                      A                      A
 Frequencies --   1159.4228              1228.9067              1328.6150
 Red. masses --      2.0895                 1.7543                 1.8345
 Frc consts  --      1.6549                 1.5610                 1.9079
 IR Inten    --     18.6087                 4.7987               285.0243

                     25                     26                     27
                      A                      A                      A
 Frequencies --   1371.9946              1442.9018              1457.6287
 Red. masses --      1.8583                 1.3928                 1.2634
 Frc consts  --      2.0610                 1.7084                 1.5816
 IR Inten    --    301.9659                40.4350                18.2483

                     28                     29                     30
                      A                      A                      A
 Frequencies --   1526.1654              1536.7860              1544.5967
 Red. masses --      1.0414                 1.0579                 1.0873
 Frc consts  --      1.4292                 1.4721                 1.5284
 IR Inten    --     14.8636                 2.2439                27.6530

                     31                     32                     33
                      A                      A                      A
 Frequencies --   1909.7297              2284.3435              3107.8802
 Red. masses --     12.2561                 5.7358                 1.0350
 Frc consts  --     26.3358                17.6346                 5.8902
 IR Inten    --    315.0550                69.5065                12.6510

                     34                     35                     36
                      A                      A                      A
 Frequencies --   3137.4278              3188.4875              3190.3387
 Red. masses --      1.0601                 1.1025                 1.1005
 Frc consts  --      6.1482                 6.6040                 6.5995
 IR Inten    --     21.6267                 4.7221                15.9769

                     37                     38                     39
                      A                      A                      A
 Frequencies --   3211.2422              3527.8433              3815.1883
 Red. masses --      1.1052                 1.1710                 1.0672
 Frc consts  --      6.7151                 8.5870                 9.1525
 IR Inten    --     17.5323                60.9652                13.6203

 - Thermochemistry -
 -------------------
 Temperature   298.150 Kelvin.  Pressure   1.00000 Atm.
 Atom     1 has atomic number  8 and mass  15.99491

 Molecular mass:   115.03952 amu.
 Principal axes and moments of inertia in atomic units:
                           1         2         3
     Eigenvalues --   514.012431380.722981532.64639
           X            0.99994   0.01060  -0.00098
           Y           -0.01050   0.99740   0.07131
           Z            0.00174  -0.07129   0.99745
 This molecule is an asymmetric top.
 Rotational symmetry number  1.
 Warning -- assumption of classical behavior for rotation
           may cause significant error
 Rotational temperatures (Kelvin)      0.16851     0.06273     0.05651
 Rotational constants (GHZ):           3.51108     1.30710     1.17753
    4 imaginary frequencies ignored.
 Zero-point vibrational energy     292723.6 (Joules/Mol)
                                   69.96261 (Kcal/Mol)
 Warning -- explicit consideration of   9 degrees of freedom as
           vibrations may cause significant error
 Vibrational temperatures:     59.87   120.96   197.89   249.69   275.14
          (Kelvin)            439.85   532.00   613.87   824.55   893.55
                             1061.69  1076.16  1129.32  1177.09  1293.81
                             1361.50  1599.00  1668.15  1768.12  1911.58
                             1973.99  2076.01  2097.20  2195.81  2211.09
                             2222.33  2747.68  3286.66  4471.55  4514.06
                             4587.52  4590.19  4620.26  5075.78  5489.21

 Zero-point correction=                           0.111493 (Hartree/Particle)
 Thermal correction to Energy=                    0.119699
 Thermal correction to Enthalpy=                  0.120643
 Thermal correction to Gibbs Free Energy=         0.076882
 Sum of electronic and zero-point Energies=           -419.845822
 Sum of electronic and thermal Energies=              -419.837615
 Sum of electronic and thermal Enthalpies=            -419.836671
 Sum of electronic and thermal Free Energies=         -419.880432

                     E (Thermal)             CV                S
                      KCal/Mol        Cal/Mol-Kelvin    Cal/Mol-Kelvin
 Total                   75.112             27.307             92.103
 Electronic               0.000              0.000              1.377
 Translational            0.889              2.981             40.136
 Rotational               0.889              2.981             28.477
 Vibrational             73.335             21.346             22.113
 Vibration     1          0.594              1.981              5.181
 Vibration     2          0.601              1.960              3.794
 Vibration     3          0.614              1.916              2.838
 Vibration     4          0.627              1.875              2.397
 Vibration     5          0.634              1.852              2.216
 Vibration     6          0.696              1.663              1.385
 Vibration     7          0.742              1.534              1.081
 Vibration     8          0.788              1.412              0.870
 Vibration     9          0.929              1.089              0.498

 Normal termination of Gaussian 16 at Fri Jun 20 13:30:31 2025.
