 Gaussian 16, Revision A.03,
 Gaussian 16:  ES64L-G16RevA.03 25-Dec-2016

 --------------------------
 # ccsd(t)/6-311++g(d,p) sp
 --------------------------

 -------------------
 Title Card Required
 -------------------
 Symbolic Z-matrix:
 Charge =  0 Multiplicity = 2

                         Standard orientation:
 ---------------------------------------------------------------------
 Center     Atomic      Atomic             Coordinates (Angstroms)
 Number     Number       Type             X           Y           Z
 ---------------------------------------------------------------------
      1          8           0       -1.414142    1.618470    0.111896
      2          1           0       -2.034284    1.758157    0.841779
      3          6           0       -2.777339   -0.496337   -0.450019
      4          1           0       -3.802398   -0.578087   -0.730471
      5          6           0       -1.617373   -0.210378   -0.131774
      6          6           0       -0.220439   -0.562382    0.223241
      7          8           0        0.107438   -0.932983    1.313317
      8          8           0        0.581206   -0.353255   -0.810593
      9          6           0        1.996442   -0.440755   -0.540042
     10          6           0        2.482917    0.820421    0.145737
     11          1           0        2.445897   -0.567788   -1.523005
     12          1           0        2.183920   -1.328518    0.064829
     13          1           0        3.564751    0.768622    0.283104
     14          1           0        2.246563    1.695887   -0.460080
     15          1           0        2.014283    0.930455    1.124029
 ---------------------------------------------------------------------

 SCF Done:  E(UHF) =  -417.976768021     A.U. after   30 cycles
 E2 =    -0.1257977139D+01 EUMP2 =    -0.41923474515999D+03
 CCSD(T)= -0.41935699147D+03

 The electronic state is 2-A.
 Alpha  occ. eigenvalues --  -20.61280 -20.60994 -20.55566 -11.41234 -11.29441
 Alpha  occ. eigenvalues --  -11.28082 -11.27670 -11.22171  -1.48080  -1.37759
 Alpha  occ. eigenvalues --   -1.37022  -1.08285  -1.04312  -0.92605  -0.83729
 Alpha  occ. eigenvalues --   -0.76474  -0.73216  -0.69261  -0.68861  -0.65132
 Alpha  occ. eigenvalues --   -0.63252  -0.62571  -0.57596  -0.55283  -0.53799
 Alpha  occ. eigenvalues --   -0.52523  -0.50163  -0.47860  -0.45770  -0.43555
 Alpha  occ. eigenvalues --   -0.42198
 Alpha virt. eigenvalues --    0.03698   0.04626   0.05692   0.06832   0.07017
 Alpha virt. eigenvalues --    0.08737   0.09707   0.10645   0.11241   0.11927
 Alpha virt. eigenvalues --    0.13326   0.13924   0.14658   0.15743   0.16782

  Beta  occ. eigenvalues --  -20.60997 -20.58020 -20.55938 -11.40858 -11.30222
  Beta  occ. eigenvalues --  -11.29443 -11.25064 -11.22173  -1.48215  -1.38335
  Beta  occ. eigenvalues --   -1.26178  -1.07587  -1.03294  -0.91321  -0.82735
  Beta  occ. eigenvalues --   -0.76174  -0.71883  -0.69544  -0.67813  -0.63254
  Beta  occ. eigenvalues --   -0.62743  -0.57920  -0.55715  -0.53919  -0.50222
  Beta  occ. eigenvalues --   -0.49850  -0.48604  -0.46995  -0.45666  -0.42309
  Beta virt. eigenvalues --    0.03789   0.04320   0.04654   0.06552   0.07014
  Beta virt. eigenvalues --    0.07703   0.08862   0.09730   0.10650   0.11936
  Beta virt. eigenvalues --    0.12409   0.13562   0.14475   0.15733   0.16031

 Mulliken charges and spin densities:
               1          2
     1  O   -0.197244   0.752202
     2  H    0.250834  -0.027656
     3  C   -0.316098   1.395545
     4  H    0.225864  -0.099179
     5  C    0.536986  -1.132258
     6  C   -0.427645   0.181863
     7  O   -0.284282  -0.075462
     8  O   -0.037509   0.003414
     9  C   -0.168329   0.001135
    10  C   -0.386228   0.001199
    11  H    0.165007   0.000080
    12  H    0.172570   0.000327
    13  H    0.137153  -0.000341
    14  H    0.151529  -0.000640
    15  H    0.177391  -0.000230
 Sum of Mulliken charges =  -0.00000   1.00000

 Dipole moment (field-independent basis, Debye):
    X=             -0.8522    Y=              0.1465    Z=             -0.8026  Tot=              1.1798
 Quadrupole moment (field-independent basis, Debye-Ang):
   XX=            -30.2809   YY=            -48.8372   ZZ=            -51.4799
   XY=             -0.2854   XZ=             -1.8842   YZ=              5.4579

 P3-0=-419.284073\MP4SDQ=-419.2934473\CCSD=-419.3018718\CCSD(T)=-419.35
 Normal termination of Gaussian 16 at Sat Aug 23 21:57:09 2025.
