 Gaussian 16, Revision A.03,
 Gaussian 16:  ES64L-G16RevA.03 25-Dec-2016

 -------------------
 # freq 6-31+g m062x
 -------------------

 -------------------
 Title Card Required
 -------------------
 Symbolic Z-matrix:
 Charge =  0 Multiplicity = 2

                         Standard orientation:
 ---------------------------------------------------------------------
 Center     Atomic      Atomic             Coordinates (Angstroms)
 Number     Number       Type             X           Y           Z
 ---------------------------------------------------------------------
      1          8           0       -1.417248    1.591542    0.117497
      2          1           0       -2.033950    1.742075    0.846749
      3          6           0       -2.774371   -0.500074   -0.453472
      4          1           0       -3.800223   -0.574014   -0.734647
      5          6           0       -1.615387   -0.167759   -0.126897
      6          6           0       -0.220810   -0.562871    0.219895
      7          8           0        0.106680   -0.941789    1.307214
      8          8           0        0.581491   -0.348781   -0.812574
      9          6           0        1.996885   -0.436934   -0.542266
     10          6           0        2.482348    0.820559    0.151128
     11          1           0        2.446712   -0.557798   -1.525825
     12          1           0        2.184799   -1.328126    0.057359
     13          1           0        3.564163    0.768412    0.288521
     14          1           0        2.245692    1.699488   -0.449517
     15          1           0        2.013421    0.924670    1.129935
 ---------------------------------------------------------------------

 SCF Done:  E(UM062X) =  -419.959661142     A.U. after   20 cycles

 The electronic state is 2-A.
 Alpha  occ. eigenvalues --  -19.70610 -19.67051 -19.66489 -10.72978 -10.64218
 Alpha  occ. eigenvalues --  -10.61417 -10.61277 -10.54169  -1.28235  -1.18882
 Alpha  occ. eigenvalues --   -1.12335  -0.92299  -0.88386  -0.78731  -0.71599
 Alpha  occ. eigenvalues --   -0.64853  -0.62931  -0.59216  -0.57720  -0.53764
 Alpha  occ. eigenvalues --   -0.53575  -0.49703  -0.48074  -0.46362  -0.45149
 Alpha  occ. eigenvalues --   -0.41819  -0.40486  -0.39663  -0.38186  -0.36706
 Alpha  occ. eigenvalues --   -0.31677
 Alpha virt. eigenvalues --   -0.00001   0.01733   0.02193   0.02761   0.03730
 Alpha virt. eigenvalues --    0.04282   0.05600   0.06077   0.07695   0.07887
 Alpha virt. eigenvalues --    0.08866   0.08928   0.09875   0.11524   0.12072

  Beta  occ. eigenvalues --  -19.70607 -19.66505 -19.66209 -10.72915 -10.64394
  Beta  occ. eigenvalues --  -10.61416 -10.60715 -10.54170  -1.28210  -1.18889
  Beta  occ. eigenvalues --   -1.09517  -0.91178  -0.87639  -0.78242  -0.70959
  Beta  occ. eigenvalues --   -0.64633  -0.62015  -0.58939  -0.57452  -0.53632
  Beta  occ. eigenvalues --   -0.52201  -0.49073  -0.46857  -0.45324  -0.42163
  Beta  occ. eigenvalues --   -0.41728  -0.39382  -0.38604  -0.38215  -0.35291
  Beta virt. eigenvalues --   -0.09680   0.01138   0.01585   0.02250   0.02862
  Beta virt. eigenvalues --    0.03824   0.04290   0.05567   0.05914   0.07636
  Beta virt. eigenvalues --    0.07779   0.08703   0.08908   0.10068   0.11402

 Mulliken charges and spin densities:
               1          2
     1  O   -0.505950   0.421566
     2  H    0.415185  -0.011623
     3  C    0.414570   0.899651
     4  H    0.297616  -0.032725
     5  C   -0.416708  -0.341705
     6  C   -0.007153   0.068065
     7  O   -0.346330  -0.006090
     8  O   -0.168311   0.001050
     9  C   -0.252963   0.001054
    10  C   -0.557292   0.000928
    11  H    0.221643  -0.000018
    12  H    0.235031  -0.000166
    13  H    0.204541  -0.000064
    14  H    0.230849   0.000014
    15  H    0.235272   0.000063
 Sum of Mulliken charges =  -0.00000   1.00000

 Dipole moment (field-independent basis, Debye):
    X=             -0.8510    Y=             -0.6437    Z=             -0.5865  Tot=              1.2176
 Quadrupole moment (field-independent basis, Debye-Ang):
   XX=            -29.2411   YY=            -50.5735   ZZ=            -52.1002
   XY=              0.7621   XZ=             -1.8344   YZ=              5.5391

  Exact polarizability:  84.765   6.860  66.726   3.457   1.944  56.960
 Approx polarizability:  86.452  10.334  74.454   6.364  -0.502  71.526

 ******    3 imaginary frequencies (negative Signs) ******

                      1                      2                      3
                      A                      A                      A
 Frequencies --   -628.6167              -464.5362               -69.2941
 Red. masses --     10.4294                 1.0734                 6.3383
 Frc consts  --      2.4282                 0.1365                 0.0179
 IR Inten    --     12.6099               113.4681                 4.9725

                      4                      5                      6
                      A                      A                      A
 Frequencies --     29.4194                51.4042               137.4645
 Red. masses --      2.6548                 3.6675                 1.9652
 Frc consts  --      0.0014                 0.0057                 0.0219
 IR Inten    --      1.6206                 6.8054                 5.4081

                      7                      8                      9
                      A                      A                      A
 Frequencies --    191.2518               224.2399               271.1335
 Red. masses --      1.7472                 6.6442                 1.7798
 Frc consts  --      0.0377                 0.1968                 0.0771
 IR Inten    --      2.4571                 2.0067                19.3109

                     10                     11                     12
                      A                      A                      A
 Frequencies --    310.0685               367.4320               432.8088
 Red. masses --      3.0391                 2.2871                 3.6672
 Frc consts  --      0.1721                 0.1819                 0.4047
 IR Inten    --     15.3050                21.0416                11.2901

                     13                     14                     15
                      A                      A                      A
 Frequencies --    570.7025               622.4323               718.5515
 Red. masses --      3.6241                 5.9928                 1.5622
 Frc consts  --      0.6955                 1.3679                 0.4752
 IR Inten    --     12.8360                16.5864                63.2598

                     16                     17                     18
                      A                      A                      A
 Frequencies --    721.2867               816.1036               893.1171
 Red. masses --      4.5561                 1.3193                 2.9873
 Frc consts  --      1.3965                 0.5177                 1.4039
 IR Inten    --     21.9567                 8.0929                20.6937

                     19                     20                     21
                      A                      A                      A
 Frequencies --    903.3958               946.1850              1104.6326
 Red. masses --      1.3749                 2.1326                 4.1890
 Frc consts  --      0.6611                 1.1249                 3.0116
 IR Inten    --     41.8848                15.3599                14.1139

                     22                     23                     24
                      A                      A                      A
 Frequencies --   1157.9676              1227.9901              1321.4262
 Red. masses --      2.0530                 1.7435                 2.1365
 Frc consts  --      1.6219                 1.5490                 2.1981
 IR Inten    --     18.1239                 6.4086               317.4934

                     25                     26                     27
                      A                      A                      A
 Frequencies --   1367.0869              1440.6088              1459.1070
 Red. masses --      1.6720                 1.3731                 1.2478
 Frc consts  --      1.8411                 1.6790                 1.5652
 IR Inten    --    233.0841                24.8205                19.9993

                     28                     29                     30
                      A                      A                      A
 Frequencies --   1526.5934              1536.8113              1545.3215
 Red. masses --      1.0411                 1.0528                 1.0907
 Frc consts  --      1.4295                 1.4650                 1.5346
 IR Inten    --     15.0705                 2.4291                25.7304

                     31                     32                     33
                      A                      A                      A
 Frequencies --   1906.1159              1973.1337              3108.9447
 Red. masses --     10.5576                 7.5644                 1.0351
 Frc consts  --     22.6003                17.3515                 5.8946
 IR Inten    --    268.4937                69.9259                11.6568

                     34                     35                     36
                      A                      A                      A
 Frequencies --   3139.8581              3190.7893              3191.3830
 Red. masses --      1.0602                 1.1036                 1.0992
 Frc consts  --      6.1582                 6.6201                 6.5962
 IR Inten    --     21.0878                 0.4078                18.9638

                     37                     38                     39
                      A                      A                      A
 Frequencies --   3213.1517              3495.5643              3863.3324
 Red. masses --      1.1054                 1.1324                 1.0673
 Frc consts  --      6.7240                 8.1524                 9.3852
 IR Inten    --     16.4727                68.4266                32.7107

 - Thermochemistry -
 -------------------
 Temperature   298.150 Kelvin.  Pressure   1.00000 Atm.
 Atom     1 has atomic number  8 and mass  15.99491

 Molecular mass:   115.03952 amu.
 Principal axes and moments of inertia in atomic units:
                           1         2         3
     Eigenvalues --   479.453531374.975001496.91593
           X            0.99993   0.01164   0.00001
           Y           -0.01159   0.99568   0.09216
           Z            0.00107  -0.09216   0.99574
 This molecule is an asymmetric top.
 Rotational symmetry number  1.
 Warning -- assumption of classical behavior for rotation
           may cause significant error
 Rotational temperatures (Kelvin)      0.18065     0.06299     0.05786
 Rotational constants (GHZ):           3.76416     1.31256     1.20564
    3 imaginary frequencies ignored.
 Zero-point vibrational energy     292946.4 (Joules/Mol)
                                   70.01587 (Kcal/Mol)
 Warning -- explicit consideration of  10 degrees of freedom as
           vibrations may cause significant error
 Vibrational temperatures:     42.33    73.96   197.78   275.17   322.63
          (Kelvin)            390.10   446.12   528.65   622.72   821.11
                              895.54  1033.84  1037.77  1174.19  1285.00
                             1299.79  1361.35  1589.32  1666.06  1766.80
                             1901.24  1966.93  2072.71  2099.33  2196.43
                             2211.13  2223.37  2742.48  2838.90  4473.08
                             4517.56  4590.83  4591.69  4623.01  5029.34
                             5558.47

 Zero-point correction=                           0.111577 (Hartree/Particle)
 Thermal correction to Energy=                    0.120238
 Thermal correction to Enthalpy=                  0.121182
 Thermal correction to Gibbs Free Energy=         0.076175
 Sum of electronic and zero-point Energies=           -419.848084
 Sum of electronic and thermal Energies=              -419.839423
 Sum of electronic and thermal Enthalpies=            -419.838479
 Sum of electronic and thermal Free Energies=         -419.883486

                     E (Thermal)             CV                S
                      KCal/Mol        Cal/Mol-Kelvin    Cal/Mol-Kelvin
 Total                   75.450             28.906             94.724
 Electronic               0.000              0.000              1.377
 Translational            0.889              2.981             40.136
 Rotational               0.889              2.981             28.380
 Vibrational             73.673             22.944             24.831
 Vibration     1          0.593              1.984              5.868
 Vibration     2          0.596              1.977              4.763
 Vibration     3          0.614              1.916              2.839
 Vibration     4          0.634              1.852              2.216
 Vibration     5          0.649              1.804              1.925
 Vibration     6          0.675              1.726              1.589
 Vibration     7          0.699              1.655              1.362
 Vibration     8          0.740              1.539              1.090
 Vibration     9          0.794              1.399              0.850
 Vibration    10          0.927              1.095              0.503

 Normal termination of Gaussian 16 at Fri Jun 20 13:31:18 2025.
