 Gaussian 16, Revision A.03,
 Gaussian 16:  ES64L-G16RevA.03 25-Dec-2016

 --------------------------
 # freq 6-311++g(d,p) m062x
 --------------------------

 -------------------
 Title Card Required
 -------------------
 Symbolic Z-matrix:
 Charge =  0 Multiplicity = 2

                         Standard orientation:
 ---------------------------------------------------------------------
 Center     Atomic      Atomic             Coordinates (Angstroms)
 Number     Number       Type             X           Y           Z
 ---------------------------------------------------------------------
      1          8           0        2.637761    1.747665   -0.248159
      2          1           0        1.832142    2.232849   -0.016904
      3          6           0       -3.192775    1.029138    0.403399
      4          1           0       -4.073132    1.575474    0.650390
      5          6           0       -2.203338    0.413810    0.125454
      6          6           0       -1.035760   -0.375526   -0.228990
      7          8           0       -1.079312   -1.477324   -0.694523
      8          8           0        0.097579    0.296047    0.037053
      9          6           0        1.312969   -0.372421   -0.280527
     10          6           0        1.773584   -1.293040    0.814185
     11          1           0        2.141078    0.640152   -0.360446
     12          1           0        1.264536   -0.811258   -1.277120
     13          1           0        2.754252   -1.702261    0.569979
     14          1           0        1.839804   -0.756568    1.761378
     15          1           0        1.065004   -2.121256    0.916634
 ---------------------------------------------------------------------

 SCF Done:  E(UM062X) =  -420.202171416     A.U. after   18 cycles

 The electronic state is 2-A.
 Alpha  occ. eigenvalues --  -19.70596 -19.65016 -19.63837 -10.72489 -10.64100
 Alpha  occ. eigenvalues --  -10.58302 -10.57830 -10.55660  -1.27832  -1.18539
 Alpha  occ. eigenvalues --   -1.11643  -0.92136  -0.88482  -0.80006  -0.71970
 Alpha  occ. eigenvalues --   -0.66887  -0.62484  -0.60878  -0.58790  -0.58003
 Alpha  occ. eigenvalues --   -0.52758  -0.51451  -0.49715  -0.48346  -0.46232
 Alpha  occ. eigenvalues --   -0.41393  -0.41119  -0.39906  -0.38449  -0.37625
 Alpha  occ. eigenvalues --   -0.33240
 Alpha virt. eigenvalues --   -0.03023  -0.00522   0.00469   0.01502   0.01791
 Alpha virt. eigenvalues --    0.03032   0.03200   0.04580   0.05867   0.05949
 Alpha virt. eigenvalues --    0.06510   0.07312   0.07831   0.09270   0.10117

  Beta  occ. eigenvalues --  -19.70573 -19.65010 -19.62889 -10.72459 -10.63497
  Beta  occ. eigenvalues --  -10.58302 -10.57831 -10.55668  -1.27658  -1.18389
  Beta  occ. eigenvalues --   -1.08101  -0.91450  -0.87868  -0.79640  -0.70847
  Beta  occ. eigenvalues --   -0.66173  -0.62193  -0.60070  -0.58133  -0.55386
  Beta  occ. eigenvalues --   -0.51553  -0.50725  -0.48292  -0.46968  -0.43600
  Beta  occ. eigenvalues --   -0.41043  -0.40511  -0.38435  -0.37916  -0.37568
  Beta virt. eigenvalues --   -0.10516  -0.02944  -0.00437   0.00530   0.01673
  Beta virt. eigenvalues --    0.01965   0.03104   0.03255   0.04798   0.05931
  Beta virt. eigenvalues --    0.06016   0.06678   0.07422   0.07880   0.09409

 Mulliken charges and spin densities:
               1          2
     1  O   -0.422429   0.469939
     2  H    0.255539  -0.006921
     3  C   -0.555944   0.001013
     4  H    0.189784   0.000031
     5  C    1.116331   0.002950
     6  C   -0.723737   0.009256
     7  O   -0.198828   0.001418
     8  O    0.011321  -0.019581
     9  C   -0.478897   0.577198
    10  C   -0.335843  -0.020503
    11  H    0.332154  -0.047399
    12  H    0.236387  -0.009095
    13  H    0.185886   0.001450
    14  H    0.192546   0.006236
    15  H    0.195729   0.034009
 Sum of Mulliken charges =  -0.00000   1.00000

 Dipole moment (field-independent basis, Debye):
    X=             -1.9542    Y=              0.1641    Z=              1.2940  Tot=              2.3495
 Quadrupole moment (field-independent basis, Debye-Ang):
   XX=            -47.2507   YY=            -49.0875   ZZ=            -47.9803
   XY=            -13.9734   XZ=             -1.6521   YZ=             -0.2639

  Exact polarizability:  94.493  -1.640  82.697  -4.445   3.378  51.554
 Approx polarizability:  97.087  -5.917  96.924  -6.954   9.743  61.003

 ******    1 imaginary frequencies (negative Signs) ******

                      1                      2                      3
                      A                      A                      A
 Frequencies --  -1742.3003                60.5925                83.2473
 Red. masses --      1.0737                 6.6242                 4.4355
 Frc consts  --      1.9204                 0.0143                 0.0181
 IR Inten    --    771.8888                 4.4229                 0.9339

                      4                      5                      6
                      A                      A                      A
 Frequencies --    115.6483               160.2219               187.6721
 Red. masses --      4.8764                 3.4677                 1.7440
 Frc consts  --      0.0384                 0.0524                 0.0362
 IR Inten    --      1.5622                 4.6608                 4.5363

                      7                      8                      9
                      A                      A                      A
 Frequencies --    209.5725               217.1666               272.2319
 Red. masses --      1.3289                 1.3396                 4.7931
 Frc consts  --      0.0344                 0.0372                 0.2093
 IR Inten    --     30.7304                70.0536                 2.4408

                     10                     11                     12
                      A                      A                      A
 Frequencies --    286.2455               426.4573               532.4828
 Red. masses --      5.0259                 3.5972                 5.2250
 Frc consts  --      0.2426                 0.3854                 0.8729
 IR Inten    --      7.8357                 5.8244                 4.8353

                     13                     14                     15
                      A                      A                      A
 Frequencies --    591.4364               627.5500               745.0984
 Red. masses --      3.9724                 4.4985                 1.3139
 Frc consts  --      0.8187                 1.0438                 0.4298
 IR Inten    --     16.8145                 0.6869                39.2194

                     16                     17                     18
                      A                      A                      A
 Frequencies --    773.4503               780.2242               805.4533
 Red. masses --      2.7477                 1.8924                 1.2768
 Frc consts  --      0.9685                 0.6787                 0.4880
 IR Inten    --      1.2152                63.7493               104.5262

                     19                     20                     21
                      A                      A                      A
 Frequencies --    837.0810               898.9072               956.2503
 Red. masses --      1.1324                 2.6367                 3.9091
 Frc consts  --      0.4675                 1.2553                 2.1060
 IR Inten    --     43.9744                19.4467                 2.7584

                     22                     23                     24
                      A                      A                      A
 Frequencies --   1088.6267              1116.4017              1137.5494
 Red. masses --      2.0174                 2.1681                 1.8879
 Frc consts  --      1.4086                 1.5921                 1.4394
 IR Inten    --     43.2267               134.3088                 3.4587

                     25                     26                     27
                      A                      A                      A
 Frequencies --   1209.9202              1268.2874              1368.2031
 Red. masses --      1.3298                 8.0528                 1.2343
 Frc consts  --      1.1470                 7.6319                 1.3614
 IR Inten    --     92.2685               741.4562                 5.3463

                     28                     29                     30
                      A                      A                      A
 Frequencies --   1409.4774              1480.8663              1482.1584
 Red. masses --      1.3279                 1.0448                 1.0449
 Frc consts  --      1.5543                 1.3499                 1.3525
 IR Inten    --     17.6750                 8.9956                 3.3810

                     31                     32                     33
                      A                      A                      A
 Frequencies --   1567.8084              1846.6452              2269.6090
 Red. masses --      1.0474                12.7407                 5.7426
 Frc consts  --      1.5169                25.5983                17.4285
 IR Inten    --     34.4091               339.1632                84.5380

                     34                     35                     36
                      A                      A                      A
 Frequencies --   3057.4381              3134.9018              3141.3352
 Red. masses --      1.0387                 1.0927                 1.0907
 Frc consts  --      5.7208                 6.3268                 6.3414
 IR Inten    --      0.8568                 4.1430                 5.9034

                     37                     38                     39
                      A                      A                      A
 Frequencies --   3166.4540              3488.5567              3830.8289
 Red. masses --      1.1023                 1.1714                 1.0664
 Frc consts  --      6.5116                 8.3997                 9.2208
 IR Inten    --      6.4253                63.1841                50.6575

 - Thermochemistry -
 -------------------
 Temperature   298.150 Kelvin.  Pressure   1.00000 Atm.
 Atom     1 has atomic number  8 and mass  15.99491

 Molecular mass:   115.03952 amu.
 Principal axes and moments of inertia in atomic units:
                           1         2         3
     Eigenvalues --   594.405481597.235852000.26299
           X            0.99933  -0.03650   0.00272
           Y            0.03655   0.99909  -0.02189
           Z           -0.00192   0.02198   0.99976
 This molecule is an asymmetric top.
 Rotational symmetry number  1.
 Warning -- assumption of classical behavior for rotation
           may cause significant error
 Rotational temperatures (Kelvin)      0.14572     0.05423     0.04330
 Rotational constants (GHZ):           3.03621     1.12992     0.90225
    1 imaginary frequencies ignored.
 Zero-point vibrational energy     278921.6 (Joules/Mol)
                                   66.66387 (Kcal/Mol)
 Warning -- explicit consideration of  12 degrees of freedom as
           vibrations may cause significant error
 Vibrational temperatures:     87.18   119.77   166.39   230.52   270.02
          (Kelvin)            301.53   312.45   391.68   411.84   613.58
                              766.12   850.95   902.90  1072.03  1112.82
                             1122.57  1158.87  1204.37  1293.33  1375.83
                             1566.29  1606.25  1636.68  1740.81  1824.78
                             1968.54  2027.92  2130.64  2132.50  2255.73
                             2656.91  3265.46  4398.97  4510.42  4519.68
                             4555.82  5019.25  5511.71

 Zero-point correction=                           0.106236 (Hartree/Particle)
 Thermal correction to Energy=                    0.115970
 Thermal correction to Enthalpy=                  0.116914
 Thermal correction to Gibbs Free Energy=         0.070417
 Sum of electronic and zero-point Energies=           -420.095936
 Sum of electronic and thermal Energies=              -420.086202
 Sum of electronic and thermal Enthalpies=            -420.085258
 Sum of electronic and thermal Free Energies=         -420.131755

                     E (Thermal)             CV                S
                      KCal/Mol        Cal/Mol-Kelvin    Cal/Mol-Kelvin
 Total                   72.772             33.180             97.861
 Electronic               0.000              0.000              1.377
 Translational            0.889              2.981             40.136
 Rotational               0.889              2.981             29.031
 Vibrational             70.995             27.218             27.318
 Vibration     1          0.597              1.973              4.438
 Vibration     2          0.600              1.961              3.813
 Vibration     3          0.608              1.936              3.172
 Vibration     4          0.622              1.891              2.547
 Vibration     5          0.632              1.857              2.251
 Vibration     6          0.642              1.826              2.047
 Vibration     7          0.646              1.815              1.983
 Vibration     8          0.675              1.724              1.582
 Vibration     9          0.684              1.699              1.496
 Vibration    10          0.788              1.413              0.870
 Vibration    11          0.887              1.178              0.582
 Vibration    12          0.949              1.050              0.465

 1\1\GINC-AJ\Freq\UM062X\6-311++G(d,p)\C5H7O3(2)\AAYUSH\23-Jun-2025\0\\
 # freq 6-311++g(d,p) m062x\\Title Card Required\\0,2\O,2.637761,1.7476
 65,-0.248159\H,1.832142,2.232849,-0.016904\C,-3.192775,1.029138,0.4033
 99\H,-4.073132,1.575474,0.65039\C,-2.203338,0.41381,0.125454\C,-1.0357
 6,-0.375526,-0.22899\O,-1.079312,-1.477324,-0.694523\O,0.097579,0.2960
 47,0.037053\C,1.312969,-0.372421,-0.280527\C,1.773584,-1.29304,0.81418
 5\H,2.141078,0.640152,-0.360446\H,1.264536,-0.811258,-1.27712\H,2.7542
 52,-1.702261,0.569979\H,1.839804,-0.756568,1.761378\H,1.065004,-2.1212

 Normal termination of Gaussian 16 at Mon Jun 23 01:33:03 2025.
