 Gaussian 16, Revision A.03,
 Gaussian 16:  ES64L-G16RevA.03 25-Dec-2016

 -------------------
 # freq 6-31+g m062x
 -------------------

 -------------------
 Title Card Required
 -------------------
 Symbolic Z-matrix:
 Charge =  0 Multiplicity = 2

                         Standard orientation:
 ---------------------------------------------------------------------
 Center     Atomic      Atomic             Coordinates (Angstroms)
 Number     Number       Type             X           Y           Z
 ---------------------------------------------------------------------
      1          8           0        2.637235    1.745486   -0.248111
      2          1           0        1.833754    2.232992   -0.016831
      3          6           0       -3.192710    1.029449    0.403457
      4          1           0       -4.072968    1.575947    0.650497
      5          6           0       -2.203378    0.413972    0.125460
      6          6           0       -1.036131   -0.375558   -0.229120
      7          8           0       -1.079691   -1.477285   -0.694663
      8          8           0        0.097825    0.295727    0.037076
      9          6           0        1.311750   -0.373663   -0.280219
     10          6           0        1.773444   -1.293310    0.813990
     11          1           0        2.154493    0.664781   -0.358275
     12          1           0        1.266577   -0.808592   -1.278533
     13          1           0        2.753837   -1.703084    0.569814
     14          1           0        1.839386   -0.757412    1.761550
     15          1           0        1.064126   -2.121399    0.915958
 ---------------------------------------------------------------------

 SCF Done:  E(UM062X) =  -419.951520956     A.U. after   19 cycles

 The electronic state is 2-A.
 Alpha  occ. eigenvalues --  -19.73197 -19.68380 -19.66149 -10.75007 -10.65289
 Alpha  occ. eigenvalues --  -10.59983 -10.59633 -10.56547  -1.30374  -1.21093
 Alpha  occ. eigenvalues --   -1.13148  -0.92951  -0.89304  -0.80723  -0.72647
 Alpha  occ. eigenvalues --   -0.67356  -0.62854  -0.61174  -0.59625  -0.58367
 Alpha  occ. eigenvalues --   -0.52738  -0.51978  -0.49476  -0.48503  -0.46250
 Alpha  occ. eigenvalues --   -0.41544  -0.41186  -0.39690  -0.38827  -0.38116
 Alpha  occ. eigenvalues --   -0.32977
 Alpha virt. eigenvalues --   -0.03332   0.01615   0.02133   0.03053   0.03202
 Alpha virt. eigenvalues --    0.04081   0.04760   0.06042   0.07503   0.07806
 Alpha virt. eigenvalues --    0.08034   0.08524   0.09721   0.10714   0.12100

  Beta  occ. eigenvalues --  -19.73173 -19.68373 -19.65212 -10.74972 -10.64627
  Beta  occ. eigenvalues --  -10.59983 -10.59633 -10.56562  -1.30214  -1.20911
  Beta  occ. eigenvalues --   -1.09945  -0.92270  -0.88632  -0.80344  -0.71596
  Beta  occ. eigenvalues --   -0.66522  -0.62605  -0.60265  -0.58644  -0.56307
  Beta  occ. eigenvalues --   -0.51626  -0.51119  -0.48481  -0.47050  -0.43484
  Beta  occ. eigenvalues --   -0.41138  -0.40494  -0.38810  -0.38096  -0.37750
  Beta virt. eigenvalues --   -0.10716  -0.03241   0.01635   0.02178   0.03149
  Beta virt. eigenvalues --    0.03281   0.04134   0.04831   0.06071   0.07532
  Beta virt. eigenvalues --    0.07838   0.08112   0.08571   0.09923   0.10750

 Mulliken charges and spin densities:
               1          2
     1  O   -0.586515   0.460692
     2  H    0.411532  -0.012337
     3  C    0.235699   0.010219
     4  H    0.351604  -0.000023
     5  C    0.136537   0.003154
     6  C   -0.465381  -0.001719
     7  O   -0.325274   0.004696
     8  O   -0.262796  -0.025037
     9  C   -0.264607   0.650479
    10  C   -0.515862  -0.042539
    11  H    0.319454  -0.078257
    12  H    0.252049  -0.016329
    13  H    0.231033   0.001664
    14  H    0.239071   0.007869
    15  H    0.243455   0.037468
 Sum of Mulliken charges =  -0.00000   1.00000

 Dipole moment (field-independent basis, Debye):
    X=             -2.3746    Y=              0.0755    Z=              1.3215  Tot=              2.7185
 Quadrupole moment (field-independent basis, Debye-Ang):
   XX=            -49.0117   YY=            -49.9139   ZZ=            -48.3978
   XY=            -14.8554   XZ=             -1.4974   YZ=             -0.4688

  Exact polarizability:  90.639  -1.097  79.323  -4.619   4.346  47.583
 Approx polarizability:  91.029  -6.009  91.045  -7.203  11.651  51.882

 ******    3 imaginary frequencies (negative Signs) ******

                      1                      2                      3
                      A                      A                      A
 Frequencies --  -1450.3592              -462.3756              -112.1162
 Red. masses --      1.0984                 1.0496                 7.9784
 Frc consts  --      1.3613                 0.1322                 0.0591
 IR Inten    --    893.0864               127.4403                 2.7246

                      4                      5                      6
                      A                      A                      A
 Frequencies --      7.7639                43.7560               107.4877
 Red. masses --      4.8919                 3.8381                 3.0868
 Frc consts  --      0.0002                 0.0043                 0.0210
 IR Inten    --      5.0677                 7.7546                16.3158

                      7                      8                      9
                      A                      A                      A
 Frequencies --    143.4901               167.6938               257.4030
 Red. masses --      1.6067                 1.9413                 4.3829
 Frc consts  --      0.0195                 0.0322                 0.1711
 IR Inten    --      4.2465                 3.3315                 1.1362

                     10                     11                     12
                      A                      A                      A
 Frequencies --    266.1170               426.2603               528.9425
 Red. masses --      4.9706                 3.5284                 5.2882
 Frc consts  --      0.2074                 0.3777                 0.8717
 IR Inten    --     10.7418                 9.5009                 7.5103

                     13                     14                     15
                      A                      A                      A
 Frequencies --    599.0692               633.2924               707.0008
 Red. masses --      2.6436                 4.2539                 1.3683
 Frc consts  --      0.5590                 1.0052                 0.4030
 IR Inten    --      9.3355                 3.0658               208.9580

                     16                     17                     18
                      A                      A                      A
 Frequencies --    777.3455               817.8168               835.6186
 Red. masses --      3.2356                 1.4332                 1.1702
 Frc consts  --      1.1519                 0.5648                 0.4814
 IR Inten    --     70.7559                46.4471                 4.6111

                     19                     20                     21
                      A                      A                      A
 Frequencies --    875.6411               898.0216               968.9553
 Red. masses --      1.8661                 3.4901                 3.1865
 Frc consts  --      0.8430                 1.6583                 1.7627
 IR Inten    --     22.3131                18.3691                 6.7509

                     22                     23                     24
                      A                      A                      A
 Frequencies --   1104.9326              1150.8918              1160.9864
 Red. masses --      1.4449                 2.4682                 2.1821
 Frc consts  --      1.0393                 1.9262                 1.7329
 IR Inten    --     70.8468                10.8355                48.0267

                     25                     26                     27
                      A                      A                      A
 Frequencies --   1225.0843              1315.5855              1396.1512
 Red. masses --      1.4210                 9.4607                 1.2956
 Frc consts  --      1.2566                 9.6474                 1.4879
 IR Inten    --     70.6973               756.1588                 4.5885

                     28                     29                     30
                      A                      A                      A
 Frequencies --   1446.3269              1513.3548              1515.8509
 Red. masses --      1.2389                 1.0420                 1.0504
 Frc consts  --      1.5270                 1.4060                 1.4221
 IR Inten    --     21.9633                14.4971                 6.1959

                     31                     32                     33
                      A                      A                      A
 Frequencies --   1645.2653              1912.1744              2333.0541
 Red. masses --      1.0480                12.8308                 5.5473
 Frc consts  --      1.6714                27.6413                17.7904
 IR Inten    --     99.0645               309.3753                85.6773

                     34                     35                     36
                      A                      A                      A
 Frequencies --   3086.3871              3170.7164              3178.3456
 Red. masses --      1.0388                 1.0920                 1.0880
 Frc consts  --      5.8301                 6.4683                 6.4757
 IR Inten    --      1.2427                 4.5876                 7.3699

                     37                     38                     39
                      A                      A                      A
 Frequencies --   3205.2871              3531.3772              3855.6343
 Red. masses --      1.1004                 1.1796                 1.0650
 Frc consts  --      6.6610                 8.6673                 9.3277
 IR Inten    --      7.7160                55.8704                32.8226

 - Thermochemistry -
 -------------------
 Temperature   298.150 Kelvin.  Pressure   1.00000 Atm.
 Atom     1 has atomic number  8 and mass  15.99491

 Molecular mass:   115.03952 amu.
 Principal axes and moments of inertia in atomic units:
                           1         2         3
     Eigenvalues --   594.198911597.186302000.01279
           X            0.99934  -0.03626   0.00270
           Y            0.03631   0.99910  -0.02198
           Z           -0.00190   0.02207   0.99975
 This molecule is an asymmetric top.
 Rotational symmetry number  1.
 Warning -- assumption of classical behavior for rotation
           may cause significant error
 Rotational temperatures (Kelvin)      0.14577     0.05423     0.04331
 Rotational constants (GHZ):           3.03727     1.12995     0.90236
    3 imaginary frequencies ignored.
 Zero-point vibrational energy     279980.5 (Joules/Mol)
                                   66.91694 (Kcal/Mol)
 Warning -- explicit consideration of  10 degrees of freedom as
           vibrations may cause significant error
 Vibrational temperatures:     11.17    62.96   154.65   206.45   241.27
          (Kelvin)            370.35   382.88   613.29   761.03   861.93
                              911.17  1017.22  1118.43  1176.66  1202.27
                             1259.85  1292.05  1394.11  1589.75  1655.88
                             1670.40  1762.62  1892.83  2008.75  2080.94
                             2177.38  2180.97  2367.17  2751.19  3356.74
                             4440.62  4561.95  4572.93  4611.69  5080.86
                             5547.40

 Zero-point correction=                           0.106639 (Hartree/Particle)
 Thermal correction to Energy=                    0.115575
 Thermal correction to Enthalpy=                  0.116519
 Thermal correction to Gibbs Free Energy=         0.069071
 Sum of electronic and zero-point Energies=           -419.844882
 Sum of electronic and thermal Energies=              -419.835946
 Sum of electronic and thermal Enthalpies=            -419.835002
 Sum of electronic and thermal Free Energies=         -419.882450

                     E (Thermal)             CV                S
                      KCal/Mol        Cal/Mol-Kelvin    Cal/Mol-Kelvin
 Total                   72.524             29.395             99.864
 Electronic               0.000              0.000              1.377
 Translational            0.889              2.981             40.136
 Rotational               0.889              2.981             29.030
 Vibrational             70.747             23.433             29.321
 Vibration     1          0.593              1.987              8.514
 Vibration     2          0.595              1.980              5.081
 Vibration     3          0.606              1.943              3.314
 Vibration     4          0.616              1.910              2.757
 Vibration     5          0.624              1.882              2.461
 Vibration     6          0.667              1.750              1.679
 Vibration     7          0.672              1.735              1.621
 Vibration     8          0.788              1.413              0.871
 Vibration     9          0.884              1.186              0.590
 Vibration    10          0.957              1.034              0.451

 Normal termination of Gaussian 16 at Fri Jun 20 12:33:57 2025.
