 Gaussian 16, Revision A.03,
 Gaussian 16:  ES64L-G16RevA.03 25-Dec-2016

 -------------------
 # freq 6-31+g m062x
 -------------------

 -------------------
 Title Card Required
 -------------------
 Symbolic Z-matrix:
 Charge =  0 Multiplicity = 2

                         Standard orientation:
 ---------------------------------------------------------------------
 Center     Atomic      Atomic             Coordinates (Angstroms)
 Number     Number       Type             X           Y           Z
 ---------------------------------------------------------------------
      1          8           0        2.636084    1.739317   -0.247893
      2          1           0        1.839264    2.234001   -0.016531
      3          6           0       -3.192417    1.030759    0.403631
      4          1           0       -4.072312    1.577835    0.650812
      5          6           0       -2.203480    0.414720    0.125477
      6          6           0       -1.037291   -0.375513   -0.229491
      7          8           0       -1.081029   -1.477031   -0.695071
      8          8           0        0.098602    0.294764    0.037131
      9          6           0        1.307564   -0.378348   -0.279349
     10          6           0        1.772796   -1.294380    0.813436
     11          1           0        2.196712    0.737607   -0.352971
     12          1           0        1.272183   -0.801171   -1.282645
     13          1           0        2.752363   -1.705879    0.569352
     14          1           0        1.838064   -0.760111    1.762078
     15          1           0        1.061437   -2.122103    0.914331
 ---------------------------------------------------------------------

 SCF Done:  E(UM062X) =  -419.955028980     A.U. after   18 cycles

 The electronic state is 2-A.
 Alpha  occ. eigenvalues --  -19.73452 -19.68575 -19.64873 -10.75210 -10.65529
 Alpha  occ. eigenvalues --  -10.60104 -10.59747 -10.56790  -1.30613  -1.21330
 Alpha  occ. eigenvalues --   -1.13300  -0.93093  -0.89435  -0.80937  -0.72645
 Alpha  occ. eigenvalues --   -0.67621  -0.62944  -0.61410  -0.59958  -0.58653
 Alpha  occ. eigenvalues --   -0.52922  -0.52234  -0.49392  -0.48292  -0.46257
 Alpha  occ. eigenvalues --   -0.41692  -0.41404  -0.39017  -0.38940  -0.38247
 Alpha  occ. eigenvalues --   -0.32040
 Alpha virt. eigenvalues --   -0.03496   0.01572   0.02086   0.02992   0.03116
 Alpha virt. eigenvalues --    0.04042   0.04748   0.05983   0.07445   0.07763
 Alpha virt. eigenvalues --    0.08001   0.08498   0.09742   0.10630   0.12058

  Beta  occ. eigenvalues --  -19.73419 -19.68567 -19.64182 -10.75165 -10.64762
  Beta  occ. eigenvalues --  -10.60103 -10.59747 -10.56810  -1.30412  -1.21108
  Beta  occ. eigenvalues --   -1.10949  -0.92319  -0.88639  -0.80486  -0.71483
  Beta  occ. eigenvalues --   -0.66598  -0.62694  -0.60423  -0.58835  -0.57110
  Beta  occ. eigenvalues --   -0.51836  -0.51284  -0.48621  -0.47174  -0.43789
  Beta  occ. eigenvalues --   -0.41329  -0.40862  -0.38926  -0.38225  -0.37703
  Beta virt. eigenvalues --   -0.09803  -0.03376   0.01580   0.02107   0.03077
  Beta virt. eigenvalues --    0.03209   0.04057   0.04795   0.05998   0.07459
  Beta virt. eigenvalues --    0.07767   0.08051   0.08531   0.09902   0.10660

 Mulliken charges and spin densities:
               1          2
     1  O   -0.648365   0.313451
     2  H    0.414629  -0.006917
     3  C    0.232919   0.010551
     4  H    0.352190  -0.000026
     5  C    0.140580   0.004691
     6  C   -0.467101   0.000100
     7  O   -0.323426   0.005225
     8  O   -0.267559  -0.030036
     9  C   -0.243586   0.776913
    10  C   -0.517524  -0.051538
    11  H    0.358146  -0.057675
    12  H    0.249637  -0.022269
    13  H    0.232808   0.002113
    14  H    0.241313   0.009956
    15  H    0.245339   0.045460
 Sum of Mulliken charges =  -0.00000   1.00000

 Dipole moment (field-independent basis, Debye):
    X=             -2.5833    Y=             -0.1888    Z=              1.3363  Tot=              2.9146
 Quadrupole moment (field-independent basis, Debye-Ang):
   XX=            -49.5901   YY=            -50.3802   ZZ=            -48.3084
   XY=            -15.7037   XZ=             -1.4571   YZ=             -0.4429

  Exact polarizability:  88.911  -3.811  75.790  -4.385   4.591  47.615
 Approx polarizability:  89.604  -8.369  87.688  -7.133  11.721  51.911

 ******    4 imaginary frequencies (negative Signs) ******

                      1                      2                      3
                      A                      A                      A
 Frequencies --   -701.3303              -465.3555              -118.6871
 Red. masses --      1.5183                 1.0445                 7.9832
 Frc consts  --      0.4400                 0.1333                 0.0663
 IR Inten    --    260.1039               110.8875                 2.9479

                      4                      5                      6
                      A                      A                      A
 Frequencies --    -34.5806                42.5064               102.9784
 Red. masses --      4.8945                 3.7737                 2.9761
 Frc consts  --      0.0034                 0.0040                 0.0186
 IR Inten    --      6.4267                 7.3427                14.2247

                      7                      8                      9
                      A                      A                      A
 Frequencies --    130.9374               161.7117               256.4291
 Red. masses --      1.6212                 1.9341                 4.4556
 Frc consts  --      0.0164                 0.0298                 0.1726
 IR Inten    --      4.6444                 3.5882                 1.1144

                     10                     11                     12
                      A                      A                      A
 Frequencies --    279.8717               426.8257               549.4788
 Red. masses --      4.8613                 3.5199                 3.5289
 Frc consts  --      0.2243                 0.3778                 0.6278
 IR Inten    --     21.5122                 9.6711                 4.7916

                     13                     14                     15
                      A                      A                      A
 Frequencies --    586.8449               643.8284               697.9875
 Red. masses --      1.5731                 3.0205                 1.4968
 Frc consts  --      0.3192                 0.7377                 0.4297
 IR Inten    --     77.0221                56.1317                10.3814

                     16                     17                     18
                      A                      A                      A
 Frequencies --    777.2191               818.9504               846.6654
 Red. masses --      3.2937                 1.4371                 1.4107
 Frc consts  --      1.1722                 0.5679                 0.5958
 IR Inten    --     62.5793                51.0695                35.3685

                     19                     20                     21
                      A                      A                      A
 Frequencies --    876.5424               897.1238               963.3436
 Red. masses --      1.8515                 4.3279                 1.9983
 Frc consts  --      0.8381                 2.0523                 1.0926
 IR Inten    --     25.2188                16.9676                29.2628

                     22                     23                     24
                      A                      A                      A
 Frequencies --   1002.0730              1139.2824              1162.1898
 Red. masses --      1.2833                 3.8061                 2.0033
 Frc consts  --      0.7592                 2.9107                 1.5942
 IR Inten    --     73.9419                14.1275                35.9273

                     25                     26                     27
                      A                      A                      A
 Frequencies --   1250.6501              1306.5133              1394.9759
 Red. masses --      1.6905                 9.4105                 1.2976
 Frc consts  --      1.5579                 9.4643                 1.4877
 IR Inten    --     44.8927               798.4224                 5.8718

                     28                     29                     30
                      A                      A                      A
 Frequencies --   1444.8130              1509.6593              1514.0733
 Red. masses --      1.2377                 1.0415                 1.0527
 Frc consts  --      1.5222                 1.3986                 1.4219
 IR Inten    --     23.4949                13.7281                 8.7260

                     31                     32                     33
                      A                      A                      A
 Frequencies --   1801.7387              1911.6885              2333.0381
 Red. masses --      1.0587                12.7131                 5.5469
 Frc consts  --      2.0250                27.3739                17.7887
 IR Inten    --    130.0171               297.8461                87.2429

                     34                     35                     36
                      A                      A                      A
 Frequencies --   3078.2919              3167.3545              3182.7377
 Red. masses --      1.0410                 1.0910                 1.0867
 Frc consts  --      5.8119                 6.4484                 6.4857
 IR Inten    --      0.7064                 4.0642                 7.9897

                     37                     38                     39
                      A                      A                      A
 Frequencies --   3206.3642              3531.1658              3877.8707
 Red. masses --      1.0999                 1.1797                 1.0640
 Frc consts  --      6.6626                 8.6667                 9.4273
 IR Inten    --      7.5759                56.0976                30.8564

 - Thermochemistry -
 -------------------
 Temperature   298.150 Kelvin.  Pressure   1.00000 Atm.
 Atom     1 has atomic number  8 and mass  15.99491

 Molecular mass:   115.03952 amu.
 Principal axes and moments of inertia in atomic units:
                           1         2         3
     Eigenvalues --   593.784441597.109891999.52966
           X            0.99936  -0.03554   0.00264
           Y            0.03559   0.99912  -0.02224
           Z           -0.00185   0.02232   0.99975
 This molecule is an asymmetric top.
 Rotational symmetry number  1.
 Warning -- assumption of classical behavior for rotation
           may cause significant error
 Rotational temperatures (Kelvin)      0.14587     0.05423     0.04332
 Rotational constants (GHZ):           3.03939     1.13000     0.90258
    4 imaginary frequencies ignored.
 Zero-point vibrational energy     280367.1 (Joules/Mol)
                                   67.00935 (Kcal/Mol)
 Warning -- explicit consideration of   9 degrees of freedom as
           vibrations may cause significant error
 Vibrational temperatures:     61.16   148.16   188.39   232.67   368.94
          (Kelvin)            402.67   614.11   790.58   844.34   926.33
                             1004.25  1118.24  1178.29  1218.16  1261.15
                             1290.76  1386.04  1441.76  1639.17  1672.13
                             1799.41  1879.78  2007.06  2078.76  2172.06
                             2178.41  2592.30  2750.49  3356.72  4428.98
                             4557.12  4579.25  4613.24  5080.56  5579.39

 Zero-point correction=                           0.106786 (Hartree/Particle)
 Thermal correction to Energy=                    0.114822
 Thermal correction to Enthalpy=                  0.115766
 Thermal correction to Gibbs Free Energy=         0.072222
 Sum of electronic and zero-point Energies=           -419.848243
 Sum of electronic and thermal Energies=              -419.840207
 Sum of electronic and thermal Enthalpies=            -419.839263
 Sum of electronic and thermal Free Energies=         -419.882807

                     E (Thermal)             CV                S
                      KCal/Mol        Cal/Mol-Kelvin    Cal/Mol-Kelvin
 Total                   72.052             27.452             91.646
 Electronic               0.000              0.000              1.377
 Translational            0.889              2.981             40.136
 Rotational               0.889              2.981             29.029
 Vibrational             70.275             21.490             21.104
 Vibration     1          0.595              1.980              5.139
 Vibration     2          0.605              1.947              3.397
 Vibration     3          0.612              1.922              2.932
 Vibration     4          0.622              1.889              2.530
 Vibration     5          0.666              1.752              1.686
 Vibration     6          0.680              1.711              1.534
 Vibration     7          0.788              1.412              0.869
 Vibration     8          0.905              1.141              0.545
 Vibration     9          0.944              1.060              0.473

 Normal termination of Gaussian 16 at Fri Jun 20 12:37:08 2025.
