 Gaussian 16, Revision A.03,
 Gaussian 16:  ES64L-G16RevA.03 25-Dec-2016

 -------------------
 # freq 6-31+g m062x
 -------------------

 -------------------
 Title Card Required
 -------------------
 Symbolic Z-matrix:
 Charge =  0 Multiplicity = 2

                         Standard orientation:
 ---------------------------------------------------------------------
 Center     Atomic      Atomic             Coordinates (Angstroms)
 Number     Number       Type             X           Y           Z
 ---------------------------------------------------------------------
      1          8           0        2.639895    1.754715   -0.248431
      2          1           0        1.827764    2.232681   -0.017301
      3          6           0       -3.192859    1.028698    0.403122
      4          1           0       -4.073435    1.574678    0.649904
      5          6           0       -2.203194    0.413640    0.125404
      6          6           0       -1.034642   -0.375281   -0.228502
      7          8           0       -1.078418   -1.477363   -0.693909
      8          8           0        0.096804    0.297058    0.036930
      9          6           0        1.316256   -0.369762   -0.281605
     10          6           0        1.773668   -1.292569    0.814987
     11          1           0        2.103355    0.565782   -0.368768
     12          1           0        1.256803   -0.821400   -1.272267
     13          1           0        2.755225   -1.700135    0.570724
     14          1           0        1.841050   -0.754001    1.760921
     15          1           0        1.067613   -2.121241    0.919602
 ---------------------------------------------------------------------

 SCF Done:  E(UM062X) =  -419.950206239     A.U. after   20 cycles

 The electronic state is 2-A.
 Alpha  occ. eigenvalues --  -19.72679 -19.68102 -19.67984 -10.74595 -10.64396
 Alpha  occ. eigenvalues --  -10.59739 -10.59400 -10.56005  -1.29887  -1.20615
 Alpha  occ. eigenvalues --   -1.13877  -0.92626  -0.89015  -0.80258  -0.72575
 Alpha  occ. eigenvalues --   -0.66807  -0.62684  -0.60861  -0.59223  -0.57916
 Alpha  occ. eigenvalues --   -0.53110  -0.51433  -0.49958  -0.48152  -0.45940
 Alpha  occ. eigenvalues --   -0.41322  -0.41033  -0.40722  -0.38588  -0.37847
 Alpha  occ. eigenvalues --   -0.34993
 Alpha virt. eigenvalues --   -0.03009   0.01695   0.02220   0.03186   0.03377
 Alpha virt. eigenvalues --    0.04154   0.04802   0.06165   0.07618   0.07881
 Alpha virt. eigenvalues --    0.08142   0.08603   0.09733   0.10903   0.12195

  Beta  occ. eigenvalues --  -19.72671 -19.67979 -19.66846 -10.74573 -10.63907
  Beta  occ. eigenvalues --  -10.59738 -10.59401 -10.56014  -1.29785  -1.20490
  Beta  occ. eigenvalues --   -1.09397  -0.92096  -0.88497  -0.79995  -0.71655
  Beta  occ. eigenvalues --   -0.66257  -0.62419  -0.59947  -0.58329  -0.55862
  Beta  occ. eigenvalues --   -0.51386  -0.50920  -0.48215  -0.46739  -0.43138
  Beta  occ. eigenvalues --   -0.40777  -0.39994  -0.38578  -0.38300  -0.37778
  Beta virt. eigenvalues --   -0.11338  -0.02954   0.01735   0.02302   0.03285
  Beta virt. eigenvalues --    0.03440   0.04261   0.04889   0.06206   0.07669
  Beta virt. eigenvalues --    0.07960   0.08227   0.08663   0.09986   0.10938

 Mulliken charges and spin densities:
               1          2
     1  O   -0.502521   0.659751
     2  H    0.409248  -0.021235
     3  C    0.238961   0.008523
     4  H    0.350446  -0.000019
     5  C    0.132980   0.001275
     6  C   -0.464627  -0.003080
     7  O   -0.328015   0.003485
     8  O   -0.263207  -0.016991
     9  C   -0.285149   0.454004
    10  C   -0.514264  -0.028401
    11  H    0.274371  -0.079812
    12  H    0.251280  -0.008584
    13  H    0.226989   0.001066
    14  H    0.234057   0.004899
    15  H    0.239451   0.025120
 Sum of Mulliken charges =  -0.00000   1.00000

 Dipole moment (field-independent basis, Debye):
    X=             -1.9574    Y=              0.6202    Z=              1.2772  Tot=              2.4181
 Quadrupole moment (field-independent basis, Debye-Ang):
   XX=            -47.9041   YY=            -49.0599   ZZ=            -48.5344
   XY=            -13.2314   XZ=             -1.6167   YZ=             -0.5189

  Exact polarizability:  91.422   0.777  81.578  -4.775   4.295  47.482
 Approx polarizability:  90.994  -5.442  91.161  -7.176  11.761  51.727

 ******    4 imaginary frequencies (negative Signs) ******

                      1                      2                      3
                      A                      A                      A
 Frequencies --  -1400.8875              -462.6159              -114.4172
 Red. masses --      1.1238                 1.0543                 8.3114
 Frc consts  --      1.2994                 0.1329                 0.0641
 IR Inten    --   1830.4578               137.3663                 5.8976

                      4                      5                      6
                      A                      A                      A
 Frequencies --    -83.8428                30.1312                94.6273
 Red. masses --      4.6281                 3.8606                 3.8747
 Frc consts  --      0.0192                 0.0021                 0.0204
 IR Inten    --     14.4505                 7.4719                13.4367

                      7                      8                      9
                      A                      A                      A
 Frequencies --    122.3496               172.5712               252.9476
 Red. masses --      2.1823                 1.3192                 4.0847
 Frc consts  --      0.0192                 0.0231                 0.1540
 IR Inten    --      4.3080                 1.8255                 4.4644

                     10                     11                     12
                      A                      A                      A
 Frequencies --    267.4381               421.4417               551.0065
 Red. masses --      4.5173                 3.5460                 5.1817
 Frc consts  --      0.1904                 0.3711                 0.9269
 IR Inten    --      6.8778                 7.6277                10.1549

                     13                     14                     15
                      A                      A                      A
 Frequencies --    600.6320               657.7964               772.6864
 Red. masses --      2.7278                 2.9801                 2.0788
 Frc consts  --      0.5798                 0.7597                 0.7313
 IR Inten    --     10.2507                15.9377               342.8155

                     16                     17                     18
                      A                      A                      A
 Frequencies --    781.0938               815.9775               849.8748
 Red. masses --      2.4781                 1.4276                 1.1574
 Frc consts  --      0.8908                 0.5600                 0.4925
 IR Inten    --    234.2508                51.3988               112.3988

                     19                     20                     21
                      A                      A                      A
 Frequencies --    874.2788               900.5983               968.4895
 Red. masses --      1.8871                 3.2864                 3.1134
 Frc consts  --      0.8499                 1.5705                 1.7206
 IR Inten    --     19.8622                23.3668                 8.0370

                     22                     23                     24
                      A                      A                      A
 Frequencies --   1130.1985              1161.8362              1196.8657
 Red. masses --      2.8296                 2.2525                 1.7007
 Frc consts  --      2.1296                 1.7914                 1.4354
 IR Inten    --     28.9026                47.0322                12.0126

                     25                     26                     27
                      A                      A                      A
 Frequencies --   1298.8297              1329.3074              1395.9548
 Red. masses --      1.1259                 9.0116                 1.2671
 Frc consts  --      1.1190                 9.3822                 1.4548
 IR Inten    --     27.3177               673.9704                 2.6522

                     28                     29                     30
                      A                      A                      A
 Frequencies --   1449.2910              1517.6606              1520.6861
 Red. masses --      1.2382                 1.0485                 1.0419
 Frc consts  --      1.5324                 1.4228                 1.4196
 IR Inten    --     22.4310                 5.5268                10.6313

                     31                     32                     33
                      A                      A                      A
 Frequencies --   1561.3961              1913.2971              2333.1964
 Red. masses --      1.0871                12.6985                 5.5487
 Frc consts  --      1.5616                27.3885                17.7968
 IR Inten    --     43.2687               309.5631                82.1483

                     34                     35                     36
                      A                      A                      A
 Frequencies --   3096.0975              3167.5077              3180.3026
 Red. masses --      1.0361                 1.0857                 1.0973
 Frc consts  --      5.8515                 6.4182                 6.5392
 IR Inten    --      3.2909                 6.6145                 4.2679

                     37                     38                     39
                      A                      A                      A
 Frequencies --   3202.6619              3531.8420              3826.5564
 Red. masses --      1.1006                 1.1795                 1.0658
 Frc consts  --      6.6515                 8.6689                 9.1947
 IR Inten    --      9.2862                55.4135                26.7824

 - Thermochemistry -
 -------------------
 Temperature   298.150 Kelvin.  Pressure   1.00000 Atm.
 Atom     1 has atomic number  8 and mass  15.99491

 Molecular mass:   115.03952 amu.
 Principal axes and moments of inertia in atomic units:
                           1         2         3
     Eigenvalues --   595.307421597.491442001.38217
           X            0.99930  -0.03722   0.00278
           Y            0.03727   0.99907  -0.02149
           Z           -0.00198   0.02158   0.99977
 This molecule is an asymmetric top.
 Rotational symmetry number  1.
 Warning -- assumption of classical behavior for rotation
           may cause significant error
 Rotational temperatures (Kelvin)      0.14549     0.05422     0.04328
 Rotational constants (GHZ):           3.03161     1.12973     0.90175
    4 imaginary frequencies ignored.
 Zero-point vibrational energy     280808.0 (Joules/Mol)
                                   67.11472 (Kcal/Mol)
 Warning -- explicit consideration of   9 degrees of freedom as
           vibrations may cause significant error
 Vibrational temperatures:     43.35   136.15   176.03   248.29   363.94
          (Kelvin)            384.78   606.36   792.78   864.18   946.42
                             1111.72  1123.82  1174.01  1222.78  1257.89
                             1295.76  1393.44  1626.10  1671.62  1722.02
                             1868.73  1912.58  2008.47  2085.21  2183.58
                             2187.93  2246.50  2752.81  3356.95  4454.59
                             4557.34  4575.75  4607.92  5081.53  5505.56

 Zero-point correction=                           0.106954 (Hartree/Particle)
 Thermal correction to Energy=                    0.114992
 Thermal correction to Enthalpy=                  0.115936
 Thermal correction to Gibbs Free Energy=         0.072014
 Sum of electronic and zero-point Energies=           -419.843252
 Sum of electronic and thermal Energies=              -419.835214
 Sum of electronic and thermal Enthalpies=            -419.834270
 Sum of electronic and thermal Free Energies=         -419.878192

                     E (Thermal)             CV                S
                      KCal/Mol        Cal/Mol-Kelvin    Cal/Mol-Kelvin
 Total                   72.159             27.117             92.442
 Electronic               0.000              0.000              1.377
 Translational            0.889              2.981             40.136
 Rotational               0.889              2.981             29.033
 Vibrational             70.381             21.156             21.896
 Vibration     1          0.594              1.984              5.821
 Vibration     2          0.603              1.953              3.562
 Vibration     3          0.610              1.930              3.063
 Vibration     4          0.626              1.876              2.407
 Vibration     5          0.664              1.758              1.710
 Vibration     6          0.673              1.733              1.613
 Vibration     7          0.784              1.424              0.887
 Vibration     8          0.906              1.137              0.542
 Vibration     9          0.959              1.030              0.449

 Normal termination of Gaussian 16 at Fri Jun 20 12:39:29 2025.
