 Gaussian 16, Revision A.03,
 Gaussian 16:  ES64L-G16RevA.03 25-Dec-2016

 --------------------------
 # ccsd(t)/6-311++g(d,p) sp
 --------------------------

 -------------------
 Title Card Required
 -------------------
 Symbolic Z-matrix:
 Charge =  0 Multiplicity = 2

                         Standard orientation:
 ---------------------------------------------------------------------
 Center     Atomic      Atomic             Coordinates (Angstroms)
 Number     Number       Type             X           Y           Z
 ---------------------------------------------------------------------
      1          8           0        2.666537    1.796938   -0.242223
      2          1           0        1.822443    2.222907   -0.011173
      3          6           0       -3.189035    1.041868    0.403447
      4          1           0       -4.068150    1.590109    0.649812
      5          6           0       -2.201280    0.423473    0.126252
      6          6           0       -1.033056   -0.368366   -0.226273
      7          8           0       -1.084465   -1.470727   -0.692646
      8          8           0        0.098511    0.299570    0.034907
      9          6           0        1.310852   -0.401196   -0.294038
     10          6           0        1.763220   -1.308134    0.821151
     11          1           0        2.064526    0.381836   -0.462574
     12          1           0        1.178011   -0.922545   -1.241887
     13          1           0        2.745612   -1.715484    0.576268
     14          1           0        1.843469   -0.751920    1.756197
     15          1           0        1.065219   -2.137022    0.949837
 ---------------------------------------------------------------------

 SCF Done:  E(UHF) =  -417.983947845     A.U. after   27 cycles
 E2 =    -0.1267234153D+01 EUMP2 =    -0.41925118199827D+03
 CCSD(T)= -0.41935226576D+03

 The electronic state is 2-A.
 Alpha  occ. eigenvalues --  -20.64355 -20.62232 -20.56879 -11.42322 -11.29410
 Alpha  occ. eigenvalues --  -11.27275 -11.26538 -11.22507  -1.49000  -1.40435
 Alpha  occ. eigenvalues --   -1.38824  -1.08478  -1.04529  -0.92960  -0.84776
 Alpha  occ. eigenvalues --   -0.77347  -0.73911  -0.71937  -0.69613  -0.68662
 Alpha  occ. eigenvalues --   -0.66985  -0.61232  -0.58800  -0.56980  -0.55399
 Alpha  occ. eigenvalues --   -0.53874  -0.49569  -0.48821  -0.46643  -0.43223
 Alpha  occ. eigenvalues --   -0.43147
 Alpha virt. eigenvalues --    0.03488   0.04826   0.05869   0.06313   0.07935
 Alpha virt. eigenvalues --    0.08144   0.08909   0.10057   0.10910   0.11839
 Alpha virt. eigenvalues --    0.12193   0.13863   0.14677   0.15628   0.16580

  Beta  occ. eigenvalues --  -20.62262 -20.60302 -20.56875 -11.42315 -11.28933
  Beta  occ. eigenvalues --  -11.27274 -11.26539 -11.22533  -1.48978  -1.38897
  Beta  occ. eigenvalues --   -1.25125  -1.08286  -1.03992  -0.92862  -0.83743
  Beta  occ. eigenvalues --   -0.77191  -0.73471  -0.70282  -0.67094  -0.65701
  Beta  occ. eigenvalues --   -0.62519  -0.58725  -0.55500  -0.54273  -0.52001
  Beta  occ. eigenvalues --   -0.50229  -0.48997  -0.47159  -0.43220  -0.43150
  Beta virt. eigenvalues --    0.03464   0.04633   0.05358   0.06295   0.07679
  Beta virt. eigenvalues --    0.07974   0.08195   0.09364   0.10196   0.11034
  Beta virt. eigenvalues --    0.12167   0.12240   0.13984   0.14690   0.15743

 Mulliken charges and spin densities:
               1          2
     1  O   -0.228640   0.958106
     2  H    0.267969  -0.034733
     3  C   -0.641170   0.000246
     4  H    0.210252  -0.000051
     5  C    1.298595   0.001488
     6  C   -0.748478  -0.000684
     7  O   -0.277842   0.000812
     8  O   -0.075517  -0.005596
     9  C   -0.399883   0.141990
    10  C   -0.300144  -0.004912
    11  H    0.236199  -0.059608
    12  H    0.194493  -0.003953
    13  H    0.143788  -0.000077
    14  H    0.149194   0.001987
    15  H    0.171183   0.004984
 Sum of Mulliken charges =  -0.00000   1.00000

 Dipole moment (field-independent basis, Debye):
    X=             -0.7933    Y=              2.2231    Z=              1.1870  Tot=              2.6420
 Quadrupole moment (field-independent basis, Debye-Ang):
   XX=            -44.0490   YY=            -46.9642   ZZ=            -48.6262
   XY=             -9.5321   XZ=             -2.4455   YZ=             -0.4581

 -0=-419.2784041\MP4SDQ=-419.3010075\CCSD=-419.2996216\CCSD(T)=-419.352
 Normal termination of Gaussian 16 at Sat Jul  5 16:01:31 2025.
