 Gaussian 16, Revision A.03,
 Gaussian 16:  ES64L-G16RevA.03 25-Dec-2016

 --------------------------
 # freq 6-311++g(d,p) m062x
 --------------------------

 -------------------
 Title Card Required
 -------------------
 Symbolic Z-matrix:
 Charge =  0 Multiplicity = 2

                         Standard orientation:
 ---------------------------------------------------------------------
 Center     Atomic      Atomic             Coordinates (Angstroms)
 Number     Number       Type             X           Y           Z
 ---------------------------------------------------------------------
      1          8           0        2.637235    1.745486   -0.248111
      2          1           0        1.833754    2.232992   -0.016831
      3          6           0       -3.192710    1.029449    0.403457
      4          1           0       -4.072968    1.575947    0.650497
      5          6           0       -2.203378    0.413972    0.125460
      6          6           0       -1.036131   -0.375558   -0.229120
      7          8           0       -1.079691   -1.477285   -0.694663
      8          8           0        0.097825    0.295727    0.037076
      9          6           0        1.311750   -0.373663   -0.280219
     10          6           0        1.773444   -1.293310    0.813990
     11          1           0        2.154493    0.664781   -0.358275
     12          1           0        1.266577   -0.808592   -1.278533
     13          1           0        2.753837   -1.703084    0.569814
     14          1           0        1.839386   -0.757412    1.761550
     15          1           0        1.064126   -2.121399    0.915958
 ---------------------------------------------------------------------

 SCF Done:  E(UM062X) =  -420.203829441     A.U. after   18 cycles

 The electronic state is 2-A.
 Alpha  occ. eigenvalues --  -19.70689 -19.65084 -19.63413 -10.72561 -10.64203
 Alpha  occ. eigenvalues --  -10.58346 -10.57871 -10.55756  -1.27917  -1.18619
 Alpha  occ. eigenvalues --   -1.11530  -0.92185  -0.88528  -0.80083  -0.71964
 Alpha  occ. eigenvalues --   -0.66982  -0.62509  -0.60934  -0.58868  -0.58090
 Alpha  occ. eigenvalues --   -0.52714  -0.51544  -0.49592  -0.48414  -0.46293
 Alpha  occ. eigenvalues --   -0.41451  -0.41188  -0.39628  -0.38491  -0.37673
 Alpha  occ. eigenvalues --   -0.32787
 Alpha virt. eigenvalues --   -0.03079  -0.00526   0.00451   0.01503   0.01794
 Alpha virt. eigenvalues --    0.03004   0.03177   0.04571   0.05850   0.05938
 Alpha virt. eigenvalues --    0.06505   0.07308   0.07806   0.09250   0.10106

  Beta  occ. eigenvalues --  -19.70663 -19.65078 -19.62550 -10.72528 -10.63555
  Beta  occ. eigenvalues --  -10.58345 -10.57871 -10.55766  -1.27726  -1.18456
  Beta  occ. eigenvalues --   -1.08294  -0.91465  -0.87874  -0.79689  -0.70804
  Beta  occ. eigenvalues --   -0.66201  -0.62223  -0.60117  -0.58187  -0.55525
  Beta  occ. eigenvalues --   -0.51603  -0.50752  -0.48333  -0.47032  -0.43764
  Beta  occ. eigenvalues --   -0.41107  -0.40639  -0.38476  -0.37874  -0.37606
  Beta virt. eigenvalues --   -0.10240  -0.02991  -0.00445   0.00515   0.01664
  Beta virt. eigenvalues --    0.01972   0.03081   0.03234   0.04793   0.05914
  Beta virt. eigenvalues --    0.06001   0.06678   0.07413   0.07853   0.09382

 Mulliken charges and spin densities:
               1          2
     1  O   -0.436402   0.419216
     2  H    0.255799  -0.005359
     3  C   -0.555243   0.001144
     4  H    0.190029   0.000041
     5  C    1.117521   0.002565
     6  C   -0.725007   0.009791
     7  O   -0.198420   0.001490
     8  O    0.012756  -0.022234
     9  C   -0.477687   0.627970
    10  C   -0.334586  -0.023588
    11  H    0.337284  -0.046080
    12  H    0.237321  -0.010631
    13  H    0.186519   0.001767
    14  H    0.193762   0.006806
    15  H    0.196354   0.037102
 Sum of Mulliken charges =  -0.00000   1.00000

 Dipole moment (field-independent basis, Debye):
    X=             -2.0254    Y=              0.0711    Z=              1.3012  Tot=              2.4084
 Quadrupole moment (field-independent basis, Debye-Ang):
   XX=            -47.4299   YY=            -49.2348   ZZ=            -47.9498
   XY=            -14.2538   XZ=             -1.6335   YZ=             -0.2567

  Exact polarizability:  94.101  -2.324  81.826  -4.383   3.431  51.579
 Approx polarizability:  96.804  -6.464  96.173  -6.941   9.743  61.038

 ******    1 imaginary frequencies (negative Signs) ******

                      1                      2                      3
                      A                      A                      A
 Frequencies --  -1661.2405                56.4132                83.2689
 Red. masses --      1.0781                 6.6829                 4.4022
 Frc consts  --      1.7530                 0.0125                 0.0180
 IR Inten    --    569.5079                 4.3699                 1.1047

                      4                      5                      6
                      A                      A                      A
 Frequencies --    115.8205               161.4259               187.8015
 Red. masses --      4.8380                 3.5040                 1.5819
 Frc consts  --      0.0382                 0.0538                 0.0329
 IR Inten    --      1.7442                 4.1954                 3.4572

                      7                      8                      9
                      A                      A                      A
 Frequencies --    209.1512               219.8543               272.3041
 Red. masses --      1.5893                 1.2324                 4.8489
 Frc consts  --      0.0410                 0.0351                 0.2118
 IR Inten    --     17.6526                82.9801                 2.1073

                     10                     11                     12
                      A                      A                      A
 Frequencies --    286.6801               427.2450               530.9721
 Red. masses --      5.1516                 3.6030                 5.1316
 Frc consts  --      0.2495                 0.3875                 0.8524
 IR Inten    --      8.1860                 5.8227                 3.4158

                     13                     14                     15
                      A                      A                      A
 Frequencies --    592.0191               625.0971               745.2942
 Red. masses --      3.7557                 4.4692                 1.3137
 Frc consts  --      0.7756                 1.0289                 0.4299
 IR Inten    --     14.4651                 0.6458                39.4062

                     16                     17                     18
                      A                      A                      A
 Frequencies --    773.0291               779.9268               796.1769
 Red. masses --      3.1180                 1.6991                 1.2894
 Frc consts  --      1.0978                 0.6090                 0.4816
 IR Inten    --      1.8016                63.9308                95.6267

                     19                     20                     21
                      A                      A                      A
 Frequencies --    834.1248               897.9615               955.2162
 Red. masses --      1.1316                 2.7370                 3.9152
 Frc consts  --      0.4639                 1.3003                 2.1048
 IR Inten    --     29.5116                16.2339                 1.7596

                     22                     23                     24
                      A                      A                      A
 Frequencies --   1077.8450              1109.8395              1130.3862
 Red. masses --      1.4657                 2.6161                 2.1150
 Frc consts  --      1.0032                 1.8985                 1.5923
 IR Inten    --     53.1654                95.4172                32.9230

                     25                     26                     27
                      A                      A                      A
 Frequencies --   1197.4987              1265.3139              1367.5933
 Red. masses --      1.4327                 8.1407                 1.2353
 Frc consts  --      1.2104                 7.6791                 1.3612
 IR Inten    --     92.6429               755.7001                 6.0870

                     28                     29                     30
                      A                      A                      A
 Frequencies --   1409.0280              1479.7270              1481.2430
 Red. masses --      1.3292                 1.0424                 1.0484
 Frc consts  --      1.5548                 1.3447                 1.3553
 IR Inten    --     17.4837                10.6133                 2.3877

                     31                     32                     33
                      A                      A                      A
 Frequencies --   1592.5874              1846.4297              2269.5868
 Red. masses --      1.0439                12.7649                 5.7424
 Frc consts  --      1.5600                25.6410                17.4275
 IR Inten    --     40.5719               338.2096                85.1370

                     34                     35                     36
                      A                      A                      A
 Frequencies --   3054.8942              3134.2176              3141.7452
 Red. masses --      1.0395                 1.0936                 1.0888
 Frc consts  --      5.7156                 6.3293                 6.3322
 IR Inten    --      0.6728                 3.4710                 6.7655

                     37                     38                     39
                      A                      A                      A
 Frequencies --   3166.8116              3488.4564              3837.7641
 Red. masses --      1.1022                 1.1715                 1.0663
 Frc consts  --      6.5127                 8.3993                 9.2527
 IR Inten    --      6.2417                63.2735                49.7967

 - Thermochemistry -
 -------------------
 Temperature   298.150 Kelvin.  Pressure   1.00000 Atm.
 Atom     1 has atomic number  8 and mass  15.99491

 Molecular mass:   115.03952 amu.
 Principal axes and moments of inertia in atomic units:
                           1         2         3
     Eigenvalues --   594.198911597.186302000.01279
           X            0.99934  -0.03626   0.00270
           Y            0.03631   0.99910  -0.02198
           Z           -0.00190   0.02207   0.99975
 This molecule is an asymmetric top.
 Rotational symmetry number  1.
 Warning -- assumption of classical behavior for rotation
           may cause significant error
 Rotational temperatures (Kelvin)      0.14577     0.05423     0.04331
 Rotational constants (GHZ):           3.03727     1.12995     0.90236
    1 imaginary frequencies ignored.
 Zero-point vibrational energy     278734.4 (Joules/Mol)
                                   66.61912 (Kcal/Mol)
 Warning -- explicit consideration of  12 degrees of freedom as
           vibrations may cause significant error
 Vibrational temperatures:     81.17   119.81   166.64   232.26   270.20
          (Kelvin)            300.92   316.32   391.78   412.47   614.71
                              763.95   851.78   899.38  1072.31  1112.22
                             1122.14  1145.52  1200.12  1291.97  1374.34
                             1550.78  1596.81  1626.37  1722.93  1820.50
                             1967.66  2027.28  2129.00  2131.18  2291.38
                             2656.60  3265.43  4395.31  4509.44  4520.27
                             4556.34  5019.11  5521.69

 Zero-point correction=                           0.106164 (Hartree/Particle)
 Thermal correction to Energy=                    0.115909
 Thermal correction to Enthalpy=                  0.116853
 Thermal correction to Gibbs Free Energy=         0.070297
 Sum of electronic and zero-point Energies=           -420.097665
 Sum of electronic and thermal Energies=              -420.087921
 Sum of electronic and thermal Enthalpies=            -420.086977
 Sum of electronic and thermal Free Energies=         -420.133532

                     E (Thermal)             CV                S
                      KCal/Mol        Cal/Mol-Kelvin    Cal/Mol-Kelvin
 Total                   72.734             33.231             97.984
 Electronic               0.000              0.000              1.377
 Translational            0.889              2.981             40.136
 Rotational               0.889              2.981             29.030
 Vibrational             70.956             27.269             27.441
 Vibration     1          0.596              1.975              4.579
 Vibration     2          0.600              1.961              3.812
 Vibration     3          0.608              1.936              3.169
 Vibration     4          0.622              1.890              2.533
 Vibration     5          0.632              1.857              2.249
 Vibration     6          0.642              1.827              2.051
 Vibration     7          0.647              1.811              1.960
 Vibration     8          0.675              1.724              1.582
 Vibration     9          0.684              1.698              1.493
 Vibration    10          0.789              1.411              0.868
 Vibration    11          0.886              1.181              0.585
 Vibration    12          0.949              1.049              0.464

 1\1\GINC-AJ\Freq\UM062X\6-311++G(d,p)\C5H7O3(2)\AAYUSH\16-Aug-2025\0\\
 # freq 6-311++g(d,p) m062x\\Title Card Required\\0,2\O,2.695263,1.7390
 81,-0.229778\H,1.891507,2.226229,0.0013\C,-3.134229,1.019938,0.422416\
 H,-4.014797,1.56604,0.669228\C,-2.144549,0.404906,0.144676\C,-0.976854
 ,-0.384112,-0.20957\O,-1.019788,-1.486094,-0.674568\O,0.156719,0.28797
 ,0.056242\C,1.371023,-0.380862,-0.26078\C,1.833309,-1.299698,0.833861\
 H,2.213152,0.658039,-0.339387\H,1.326059,-0.816309,-1.258877\H,2.81393
 1,-1.709016,0.589841\H,1.89898,-0.763295,1.781153\H,1.124482,-2.128154

 Normal termination of Gaussian 16 at Sat Aug 16 14:50:32 2025.
