 Gaussian 16, Revision A.03,
 Gaussian 16:  ES64L-G16RevA.03 25-Dec-2016

 --------------------------
 # freq 6-311++g(d,p) m062x
 --------------------------

 -------------------
 Title Card Required
 -------------------
 Symbolic Z-matrix:
 Charge =  0 Multiplicity = 2

                         Standard orientation:
 ---------------------------------------------------------------------
 Center     Atomic      Atomic             Coordinates (Angstroms)
 Number     Number       Type             X           Y           Z
 ---------------------------------------------------------------------
      1          8           0        2.636779    1.743371   -0.248051
      2          1           0        1.835470    2.233218   -0.016744
      3          6           0       -3.192628    1.029824    0.403516
      4          1           0       -4.072776    1.576498    0.650603
      5          6           0       -2.203415    0.414178    0.125466
      6          6           0       -1.036508   -0.375566   -0.229246
      7          8           0       -1.080103   -1.477222   -0.694801
      8          8           0        0.098074    0.295407    0.037097
      9          6           0        1.310452   -0.375060   -0.279926
     10          6           0        1.773263   -1.293628    0.813802
     11          1           0        2.168252    0.689268   -0.356312
     12          1           0        1.268491   -0.806071   -1.279909
     13          1           0        2.753382   -1.703963    0.569657
     14          1           0        1.838959   -0.758285    1.761723
     15          1           0        1.063238   -2.121595    0.915354
 ---------------------------------------------------------------------

 SCF Done:  E(UM062X) =  -420.205819965     A.U. after   17 cycles

 The electronic state is 2-A.
 Alpha  occ. eigenvalues --  -19.70769 -19.65141 -19.63008 -10.72623 -10.64266
 Alpha  occ. eigenvalues --  -10.58383 -10.57905 -10.55836  -1.27989  -1.18687
 Alpha  occ. eigenvalues --   -1.11483  -0.92224  -0.88566  -0.80147  -0.71953
 Alpha  occ. eigenvalues --   -0.67063  -0.62530  -0.60988  -0.58949  -0.58175
 Alpha  occ. eigenvalues --   -0.52710  -0.51622  -0.49475  -0.48453  -0.46339
 Alpha  occ. eigenvalues --   -0.41503  -0.41246  -0.39386  -0.38526  -0.37713
 Alpha  occ. eigenvalues --   -0.32399
 Alpha virt. eigenvalues --   -0.03127  -0.00529   0.00436   0.01501   0.01800
 Alpha virt. eigenvalues --    0.02979   0.03157   0.04563   0.05835   0.05928
 Alpha virt. eigenvalues --    0.06501   0.07306   0.07785   0.09233   0.10097

  Beta  occ. eigenvalues --  -19.70740 -19.65135 -19.62231 -10.72587 -10.63578
  Beta  occ. eigenvalues --  -10.58382 -10.57905 -10.55847  -1.27782  -1.18512
  Beta  occ. eigenvalues --   -1.08548  -0.91471  -0.87871  -0.79728  -0.70753
  Beta  occ. eigenvalues --   -0.66217  -0.62248  -0.60157  -0.58233  -0.55716
  Beta  occ. eigenvalues --   -0.51658  -0.50777  -0.48366  -0.47086  -0.43945
  Beta  occ. eigenvalues --   -0.41162  -0.40761  -0.38510  -0.37860  -0.37637
  Beta virt. eigenvalues --   -0.09914  -0.03030  -0.00452   0.00501   0.01654
  Beta virt. eigenvalues --    0.01978   0.03063   0.03216   0.04788   0.05901
  Beta virt. eigenvalues --    0.05989   0.06678   0.07407   0.07830   0.09359

 Mulliken charges and spin densities:
               1          2
     1  O   -0.448811   0.369556
     2  H    0.256104  -0.003980
     3  C   -0.554665   0.001274
     4  H    0.190244   0.000051
     5  C    1.118709   0.002151
     6  C   -0.726340   0.010278
     7  O   -0.198016   0.001543
     8  O    0.013960  -0.024794
     9  C   -0.475756   0.676220
    10  C   -0.333471  -0.026490
    11  H    0.341371  -0.043125
    12  H    0.237941  -0.012139
    13  H    0.187047   0.002078
    14  H    0.194793   0.007344
    15  H    0.196889   0.040033
 Sum of Mulliken charges =  -0.00000   1.00000

 Dipole moment (field-independent basis, Debye):
    X=             -2.0862    Y=             -0.0072    Z=              1.3065  Tot=              2.4615
 Quadrupole moment (field-independent basis, Debye-Ang):
   XX=            -47.5833   YY=            -49.3635   ZZ=            -47.9211
   XY=            -14.4952   XZ=             -1.6197   YZ=             -0.2506

  Exact polarizability:  93.617  -3.112  80.796  -4.312   3.500  51.599
 Approx polarizability:  96.397  -7.173  95.134  -6.921   9.756  61.061

 ******    1 imaginary frequencies (negative Signs) ******

                      1                      2                      3
                      A                      A                      A
 Frequencies --  -1486.7289                50.7216                82.7303
 Red. masses --      1.0937                 6.7851                 4.4202
 Frc consts  --      1.4243                 0.0103                 0.0178
 IR Inten    --    400.3752                 4.3782                 1.2673

                      4                      5                      6
                      A                      A                      A
 Frequencies --    114.7613               159.7446               186.3601
 Red. masses --      4.7964                 3.5010                 1.4898
 Frc consts  --      0.0372                 0.0526                 0.0305
 IR Inten    --      1.8553                 3.8082                 2.9428

                      7                      8                      9
                      A                      A                      A
 Frequencies --    208.2433               222.0311               272.2216
 Red. masses --      1.8028                 1.1783                 4.8892
 Frc consts  --      0.0461                 0.0342                 0.2135
 IR Inten    --     12.9860                86.9181                 1.8032

                     10                     11                     12
                      A                      A                      A
 Frequencies --    288.8242               427.6444               533.2437
 Red. masses --      5.2450                 3.6065                 5.1066
 Frc consts  --      0.2578                 0.3886                 0.8555
 IR Inten    --      8.7800                 5.7046                 1.5513

                     13                     14                     15
                      A                      A                      A
 Frequencies --    596.7478               625.6324               745.4495
 Red. masses --      3.7561                 3.8362                 1.3133
 Frc consts  --      0.7881                 0.8847                 0.4300
 IR Inten    --     12.6549                 0.4700                39.9953

                     16                     17                     18
                      A                      A                      A
 Frequencies --    772.2498               779.1403               784.8537
 Red. masses --      3.2961                 1.3907                 1.4768
 Frc consts  --      1.1581                 0.4974                 0.5360
 IR Inten    --      7.3755                64.3263                85.0496

                     19                     20                     21
                      A                      A                      A
 Frequencies --    830.1084               897.1694               953.9771
 Red. masses --      1.1501                 2.8776                 3.8292
 Frc consts  --      0.4669                 1.3647                 2.0532
 IR Inten    --     17.6394                13.3848                 1.2922

                     22                     23                     24
                      A                      A                      A
 Frequencies --   1055.1624              1103.9842              1128.3331
 Red. masses --      1.1935                 3.5080                 2.1943
 Frc consts  --      0.7829                 2.5190                 1.6459
 IR Inten    --     58.2464                65.2361                57.1571

                     25                     26                     27
                      A                      A                      A
 Frequencies --   1191.8282              1262.4249              1366.9472
 Red. masses --      1.5415                 8.2113                 1.2349
 Frc consts  --      1.2901                 7.7103                 1.3595
 IR Inten    --     90.8827               766.4404                 6.5633

                     28                     29                     30
                      A                      A                      A
 Frequencies --   1408.5977              1478.5337              1480.5428
 Red. masses --      1.3299                 1.0414                 1.0503
 Frc consts  --      1.5546                 1.3413                 1.3564
 IR Inten    --     17.5742                10.6229                 2.8629

                     31                     32                     33
                      A                      A                      A
 Frequencies --   1620.7340              1846.2645              2269.5718
 Red. masses --      1.0434                12.7765                 5.7423
 Frc consts  --      1.6148                25.6596                17.4270
 IR Inten    --     46.1457               336.6495                85.6243

                     34                     35                     36
                      A                      A                      A
 Frequencies --   3052.3048              3133.2219              3142.5540
 Red. masses --      1.0403                 1.0935                 1.0880
 Frc consts  --      5.7103                 6.3249                 6.3303
 IR Inten    --      0.5389                 3.1522                 7.1376

                     37                     38                     39
                      A                      A                      A
 Frequencies --   3167.1056              3488.3789              3844.8185
 Red. masses --      1.1021                 1.1715                 1.0660
 Frc consts  --      6.5134                 8.3991                 9.2849
 IR Inten    --      6.1309                63.3517                48.3858

 - Thermochemistry -
 -------------------
 Temperature   298.150 Kelvin.  Pressure   1.00000 Atm.
 Atom     1 has atomic number  8 and mass  15.99491

 Molecular mass:   115.03952 amu.
 Principal axes and moments of inertia in atomic units:
                           1         2         3
     Eigenvalues --   594.028071597.148421999.80801
           X            0.99935  -0.03602   0.00268
           Y            0.03607   0.99911  -0.02207
           Z           -0.00188   0.02215   0.99975
 This molecule is an asymmetric top.
 Rotational symmetry number  1.
 Warning -- assumption of classical behavior for rotation
           may cause significant error
 Rotational temperatures (Kelvin)      0.14581     0.05423     0.04331
 Rotational constants (GHZ):           3.03814     1.12998     0.90246
    1 imaginary frequencies ignored.
 Zero-point vibrational energy     278569.4 (Joules/Mol)
                                   66.57968 (Kcal/Mol)
 Warning -- explicit consideration of  12 degrees of freedom as
           vibrations may cause significant error
 Vibrational temperatures:     72.98   119.03   165.12   229.84   268.13
          (Kelvin)            299.62   319.45   391.67   415.55   615.28
                              767.22   858.59   900.15  1072.54  1111.10
                             1121.01  1129.23  1194.34  1290.83  1372.56
                             1518.14  1588.39  1623.42  1714.78  1816.35
                             1966.73  2026.66  2127.28  2130.17  2331.87
                             2656.36  3265.41  4391.59  4508.01  4521.43
                             4556.76  5019.00  5531.84

 Zero-point correction=                           0.106101 (Hartree/Particle)
 Thermal correction to Energy=                    0.115865
 Thermal correction to Enthalpy=                  0.116809
 Thermal correction to Gibbs Free Energy=         0.070130
 Sum of electronic and zero-point Energies=           -420.099718
 Sum of electronic and thermal Energies=              -420.089955
 Sum of electronic and thermal Enthalpies=            -420.089011
 Sum of electronic and thermal Free Energies=         -420.135690

                     E (Thermal)             CV                S
                      KCal/Mol        Cal/Mol-Kelvin    Cal/Mol-Kelvin
 Total                   72.706             33.274             98.245
 Electronic               0.000              0.000              1.377
 Translational            0.889              2.981             40.136
 Rotational               0.889              2.981             29.030
 Vibrational             70.929             27.313             27.702
 Vibration     1          0.595              1.977              4.789
 Vibration     2          0.600              1.961              3.825
 Vibration     3          0.608              1.937              3.187
 Vibration     4          0.622              1.892              2.553
 Vibration     5          0.632              1.859              2.264
 Vibration     6          0.642              1.828              2.059
 Vibration     7          0.648              1.808              1.942
 Vibration     8          0.675              1.724              1.582
 Vibration     9          0.685              1.694              1.481
 Vibration    10          0.789              1.410              0.866
 Vibration    11          0.888              1.176              0.580
 Vibration    12          0.955              1.039              0.455

 1\1\GINC-AJ\Freq\UM062X\6-311++G(d,p)\C5H7O3(2)\AAYUSH\23-Jun-2025\0\\
 # freq 6-311++g(d,p) m062x\\Title Card Required\\0,2\O,2.636779,1.7433
 71,-0.248051\H,1.83547,2.233218,-0.016744\C,-3.192628,1.029824,0.40351
 6\H,-4.072776,1.576498,0.650603\C,-2.203415,0.414178,0.125466\C,-1.036
 508,-0.375566,-0.229246\O,-1.080103,-1.477222,-0.694801\O,0.098074,0.2
 95407,0.037097\C,1.310452,-0.37506,-0.279926\C,1.773263,-1.293628,0.81
 3802\H,2.168252,0.689268,-0.356312\H,1.268491,-0.806071,-1.279909\H,2.
 753382,-1.703963,0.569657\H,1.838959,-0.758285,1.761723\H,1.063238,-2.

 Normal termination of Gaussian 16 at Mon Jun 23 01:47:15 2025.
