 Gaussian 16, Revision A.03,
 Gaussian 16:  ES64L-G16RevA.03 25-Dec-2016

 -------------------
 # freq 6-31+g m062x
 -------------------

 -------------------
 Title Card Required
 -------------------
 Symbolic Z-matrix:
 Charge =  0 Multiplicity = 2

                         Standard orientation:
 ---------------------------------------------------------------------
 Center     Atomic      Atomic             Coordinates (Angstroms)
 Number     Number       Type             X           Y           Z
 ---------------------------------------------------------------------
      1          8           0        2.658748    1.785958   -0.244246
      2          1           0        1.822782    2.226956   -0.013229
      3          6           0       -3.190366    1.037307    0.403352
      4          1           0       -4.070023    1.584631    0.649883
      5          6           0       -2.201967    0.420050    0.125919
      6          6           0       -1.032950   -0.370572   -0.226818
      7          8           0       -1.081899   -1.472855   -0.693217
      8          8           0        0.096981    0.299670    0.035912
      9          6           0        1.313849   -0.389762   -0.290058
     10          6           0        1.766434   -1.303141    0.819087
     11          1           0        2.067023    0.412011   -0.436143
     12          1           0        1.199101   -0.894907   -1.249290
     13          1           0        2.749434   -1.708622    0.574040
     14          1           0        1.843054   -0.752458    1.757664
     15          1           0        1.067992   -2.133085    0.940607
 ---------------------------------------------------------------------

 SCF Done:  E(UM062X) =  -419.954295688     A.U. after   21 cycles

 The electronic state is 2-A.
 Alpha  occ. eigenvalues --  -19.71926 -19.70813 -19.67342 -10.73940 -10.62379
 Alpha  occ. eigenvalues --  -10.59346 -10.59025 -10.55074  -1.29098  -1.19789
 Alpha  occ. eigenvalues --   -1.15608  -0.91987  -0.88480  -0.79384  -0.72157
 Alpha  occ. eigenvalues --   -0.65977  -0.62294  -0.60137  -0.58441  -0.57244
 Alpha  occ. eigenvalues --   -0.54916  -0.50445  -0.50050  -0.47418  -0.45384
 Alpha  occ. eigenvalues --   -0.43369  -0.40922  -0.40180  -0.38215  -0.38046
 Alpha  occ. eigenvalues --   -0.37364
 Alpha virt. eigenvalues --   -0.02497   0.01804   0.02315   0.03405   0.03637
 Alpha virt. eigenvalues --    0.04242   0.04908   0.06347   0.07778   0.07985
 Alpha virt. eigenvalues --    0.08347   0.08763   0.09817   0.11191   0.12345

  Beta  occ. eigenvalues --  -19.71933 -19.69260 -19.67339 -10.73933 -10.62131
  Beta  occ. eigenvalues --  -10.59346 -10.59025 -10.55079  -1.29064  -1.19729
  Beta  occ. eigenvalues --   -1.09029  -0.91714  -0.88190  -0.79276  -0.71562
  Beta  occ. eigenvalues --   -0.65751  -0.62111  -0.59418  -0.57786  -0.55465
  Beta  occ. eigenvalues --   -0.52152  -0.50247  -0.47730  -0.46129  -0.42567
  Beta  occ. eigenvalues --   -0.40312  -0.39926  -0.39293  -0.38192  -0.37366
  Beta virt. eigenvalues --   -0.10952  -0.02479   0.01872   0.02429   0.03491
  Beta virt. eigenvalues --    0.03695   0.04390   0.04979   0.06387   0.07854
  Beta virt. eigenvalues --    0.08095   0.08417   0.08826   0.10085   0.11228

 Mulliken charges and spin densities:
               1          2
     1  O   -0.407935   0.879197
     2  H    0.412444  -0.029976
     3  C    0.238021   0.005176
     4  H    0.348693  -0.000014
     5  C    0.137455   0.001150
     6  C   -0.470576  -0.005355
     7  O   -0.330634   0.002123
     8  O   -0.268946  -0.004841
     9  C   -0.318681   0.207683
    10  C   -0.506388  -0.011387
    11  H    0.243470  -0.054075
    12  H    0.245016  -0.001604
    13  H    0.219500   0.000559
    14  H    0.225900   0.001502
    15  H    0.232662   0.009863
 Sum of Mulliken charges =  -0.00000   1.00000

 Dipole moment (field-independent basis, Debye):
    X=             -1.3017    Y=              1.4733    Z=              1.1815  Tot=              2.2936
 Quadrupole moment (field-independent basis, Debye-Ang):
   XX=            -46.3793   YY=            -47.7973   ZZ=            -48.7582
   XY=            -10.8388   XZ=             -1.8840   YZ=             -0.5622

  Exact polarizability:  87.508  -3.929  74.588  -4.306   5.122  47.270
 Approx polarizability:  87.782  -9.611  83.386  -6.819  12.406  51.414

 ******    5 imaginary frequencies (negative Signs) ******

                      1                      2                      3
                      A                      A                      A
 Frequencies --   -449.0351              -265.4120              -140.3562
 Red. masses --      1.0592                 2.0334                 4.8421
 Frc consts  --      0.1258                 0.0844                 0.0562
 IR Inten    --    144.9242                 9.6117                10.0364

                      4                      5                      6
                      A                      A                      A
 Frequencies --    -89.8258                -7.8061                81.8647
 Red. masses --      3.4886                 4.0211                 3.7613
 Frc consts  --      0.0166                 0.0001                 0.0149
 IR Inten    --      1.3022                 4.9937                 2.2584

                      7                      8                      9
                      A                      A                      A
 Frequencies --    125.1713               179.8497               248.5032
 Red. masses --      8.2608                 1.1965                 3.6808
 Frc consts  --      0.0763                 0.0228                 0.1339
 IR Inten    --     33.6846                 1.0876                 4.5910

                     10                     11                     12
                      A                      A                      A
 Frequencies --    290.3550               416.8696               490.0748
 Red. masses --      3.3658                 3.3880                 1.4447
 Frc consts  --      0.1672                 0.3469                 0.2044
 IR Inten    --     15.0641                13.5453               184.9189

                     13                     14                     15
                      A                      A                      A
 Frequencies --    571.0896               628.5895               777.0692
 Red. masses --      4.0850                 4.9679                 1.5552
 Frc consts  --      0.7850                 1.1565                 0.5533
 IR Inten    --      0.1970                46.9400                42.6248

                     16                     17                     18
                      A                      A                      A
 Frequencies --    782.7667               814.4316               872.5851
 Red. masses --      2.2382                 1.4322                 1.9350
 Frc consts  --      0.8080                 0.5597                 0.8681
 IR Inten    --     35.6751                54.5815                19.0322

                     19                     20                     21
                      A                      A                      A
 Frequencies --    897.3513               957.4185              1133.0187
 Red. masses --      3.6156                 2.6256                 3.7800
 Frc consts  --      1.7154                 1.4180                 2.8590
 IR Inten    --     17.6768                10.6152                10.5015

                     22                     23                     24
                      A                      A                      A
 Frequencies --   1158.7957              1201.1538              1319.9236
 Red. masses --      2.0936                 1.8219                 2.2953
 Frc consts  --      1.6564                 1.5488                 2.3561
 IR Inten    --     34.3439                53.2522               370.7939

                     25                     26                     27
                      A                      A                      A
 Frequencies --   1348.1160              1414.1985              1453.8910
 Red. masses --      1.7287                 1.2876                 1.2491
 Frc consts  --      1.8510                 1.5173                 1.5557
 IR Inten    --    402.3482                 3.1655                18.6080

                     28                     29                     30
                      A                      A                      A
 Frequencies --   1515.3917              1525.9227              1536.5755
 Red. masses --      1.0850                 1.0465                 1.0709
 Frc consts  --      1.4681                 1.4356                 1.4898
 IR Inten    --     21.0313                27.8023                30.4301

                     31                     32                     33
                      A                      A                      A
 Frequencies --   1912.2879              2332.9552              2525.4847
 Red. masses --     12.4518                 5.5453                 1.0932
 Frc consts  --     26.8281                17.7823                 4.1080
 IR Inten    --    322.7902                76.1780               919.4908

                     34                     35                     36
                      A                      A                      A
 Frequencies --   3103.9178              3164.1494              3190.0557
 Red. masses --      1.0344                 1.0847                 1.1009
 Frc consts  --      5.8714                 6.3987                 6.6006
 IR Inten    --      8.6511                 5.0166                 9.5440

                     37                     38                     39
                      A                      A                      A
 Frequencies --   3196.0799              3532.8167              3791.7739
 Red. masses --      1.1006                 1.1793                 1.0665
 Frc consts  --      6.6240                 8.6718                 9.0344
 IR Inten    --     13.3474                54.7722                14.2235

 - Thermochemistry -
 -------------------
 Temperature   298.150 Kelvin.  Pressure   1.00000 Atm.
 Atom     1 has atomic number  8 and mass  15.99491

 Molecular mass:   115.03952 amu.
 Principal axes and moments of inertia in atomic units:
                           1         2         3
     Eigenvalues --   604.079951600.477132012.32284
           X            0.99923  -0.03912   0.00279
           Y            0.03917   0.99902  -0.02076
           Z           -0.00197   0.02085   0.99978
 This molecule is an asymmetric top.
 Rotational symmetry number  1.
 Warning -- assumption of classical behavior for rotation
           may cause significant error
 Rotational temperatures (Kelvin)      0.14338     0.05412     0.04304
 Rotational constants (GHZ):           2.98759     1.12763     0.89684
    5 imaginary frequencies ignored.
 Zero-point vibrational energy     290037.6 (Joules/Mol)
                                   69.32065 (Kcal/Mol)
 Warning -- explicit consideration of   8 degrees of freedom as
           vibrations may cause significant error
 Vibrational temperatures:    117.78   180.09   258.76   357.54   417.76
          (Kelvin)            599.78   705.11   821.67   904.40  1118.03
                             1126.23  1171.79  1255.46  1291.09  1377.51
                             1630.16  1667.25  1728.19  1899.08  1939.64
                             2034.72  2091.82  2180.31  2195.46  2210.79
                             2751.36  3356.60  3633.61  4465.85  4552.51
                             4589.78  4598.45  5082.94  5455.52

 Zero-point correction=                           0.110469 (Hartree/Particle)
 Thermal correction to Energy=                    0.117626
 Thermal correction to Enthalpy=                  0.118570
 Thermal correction to Gibbs Free Energy=         0.077340
 Sum of electronic and zero-point Energies=           -419.843826
 Sum of electronic and thermal Energies=              -419.836670
 Sum of electronic and thermal Enthalpies=            -419.835726
 Sum of electronic and thermal Free Energies=         -419.876956

                     E (Thermal)             CV                S
                      KCal/Mol        Cal/Mol-Kelvin    Cal/Mol-Kelvin
 Total                   73.811             24.782             86.776
 Electronic               0.000              0.000              1.377
 Translational            0.889              2.981             40.136
 Rotational               0.889              2.981             29.055
 Vibrational             72.034             18.820             16.209
 Vibration     1          0.600              1.962              3.846
 Vibration     2          0.610              1.928              3.019
 Vibration     3          0.629              1.867              2.330
 Vibration     4          0.662              1.765              1.741
 Vibration     5          0.686              1.692              1.472
 Vibration     6          0.780              1.434              0.903
 Vibration     7          0.846              1.272              0.683
 Vibration     8          0.927              1.094              0.502

 Normal termination of Gaussian 16 at Fri Jun 20 12:31:35 2025.
