 Gaussian 16, Revision A.03,
 Gaussian 16:  ES64L-G16RevA.03 25-Dec-2016

 -------------------
 # freq 6-31+g m062x
 -------------------

 -------------------
 Title Card Required
 -------------------
 Symbolic Z-matrix:
 Charge =  0 Multiplicity = 2

                         Standard orientation:
 ---------------------------------------------------------------------
 Center     Atomic      Atomic             Coordinates (Angstroms)
 Number     Number       Type             X           Y           Z
 ---------------------------------------------------------------------
      1          8           0        2.644266    1.763970   -0.247487
      2          1           0        1.824669    2.232085   -0.016410
      3          6           0       -3.192521    1.029817    0.403171
      4          1           0       -4.073063    1.575746    0.649913
      5          6           0       -2.202955    0.414577    0.125487
      6          6           0       -1.033586   -0.374332   -0.228017
      7          8           0       -1.078457   -1.476501   -0.693863
      8          8           0        0.095993    0.298216    0.036863
      9          6           0        1.317861   -0.371382   -0.283561
     10          6           0        1.772369   -1.294297    0.815742
     11          1           0        2.078087    0.496799   -0.384657
     12          1           0        1.242290   -0.839676   -1.265412
     13          1           0        2.754931   -1.700056    0.571213
     14          1           0        1.842090   -0.752890    1.760035
     15          1           0        1.069576   -2.123781    0.924309
 ---------------------------------------------------------------------

 SCF Done:  E(UM062X) =  -419.951511993     A.U. after   21 cycles

 The electronic state is 2-A.
 Alpha  occ. eigenvalues --  -19.72260 -19.69526 -19.67644 -10.74249 -10.63400
 Alpha  occ. eigenvalues --  -10.59528 -10.59200 -10.55526  -1.29474  -1.20201
 Alpha  occ. eigenvalues --   -1.14776  -0.92326  -0.88756  -0.79834  -0.72439
 Alpha  occ. eigenvalues --   -0.66354  -0.62508  -0.60583  -0.58888  -0.57564
 Alpha  occ. eigenvalues --   -0.53964  -0.50947  -0.50045  -0.47750  -0.45632
 Alpha  occ. eigenvalues --   -0.42291  -0.41021  -0.40380  -0.38383  -0.37630
 Alpha  occ. eigenvalues --   -0.36581
 Alpha virt. eigenvalues --   -0.02734   0.01753   0.02274   0.03302   0.03523
 Alpha virt. eigenvalues --    0.04207   0.04852   0.06268   0.07706   0.07936
 Alpha virt. eigenvalues --    0.08252   0.08686   0.09774   0.11065   0.12278

  Beta  occ. eigenvalues --  -19.72261 -19.68097 -19.67641 -10.74235 -10.63032
  Beta  occ. eigenvalues --  -10.59528 -10.59200 -10.55532  -1.29410  -1.20110
  Beta  occ. eigenvalues --   -1.09287  -0.91912  -0.88345  -0.79651  -0.71643
  Beta  occ. eigenvalues --   -0.65980  -0.62256  -0.59673  -0.58067  -0.55749
  Beta  occ. eigenvalues --   -0.51604  -0.50642  -0.47963  -0.46437  -0.42880
  Beta  occ. eigenvalues --   -0.40498  -0.39703  -0.38995  -0.38371  -0.37558
  Beta virt. eigenvalues --   -0.11322  -0.02700   0.01808   0.02378   0.03395
  Beta virt. eigenvalues --    0.03581   0.04341   0.04932   0.06310   0.07771
  Beta virt. eigenvalues --    0.08037   0.08328   0.08748   0.10041   0.11099

 Mulliken charges and spin densities:
               1          2
     1  O   -0.449662   0.779739
     2  H    0.410021  -0.026569
     3  C    0.240622   0.007024
     4  H    0.349459  -0.000016
     5  C    0.133129   0.000845
     6  C   -0.466705  -0.004229
     7  O   -0.329861   0.002691
     8  O   -0.266491  -0.010714
     9  C   -0.298635   0.322922
    10  C   -0.512484  -0.019010
    11  H    0.253469  -0.068956
    12  H    0.248032  -0.004563
    13  H    0.223291   0.000752
    14  H    0.229666   0.003059
    15  H    0.236151   0.017026
 Sum of Mulliken charges =  -0.00000   1.00000

 Dipole moment (field-independent basis, Debye):
    X=             -1.6054    Y=              1.0800    Z=              1.2333  Tot=              2.2945
 Quadrupole moment (field-independent basis, Debye-Ang):
   XX=            -47.0390   YY=            -48.3904   ZZ=            -48.6480
   XY=            -11.9216   XZ=             -1.7420   YZ=             -0.5595

  Exact polarizability:  90.420  -0.027  80.300  -4.679   4.536  47.392
 Approx polarizability:  89.619  -7.041  88.023  -7.036  12.031  51.578

 ******    4 imaginary frequencies (negative Signs) ******

                      1                      2                      3
                      A                      A                      A
 Frequencies --   -672.0796              -456.6941              -127.2700
 Red. masses --      1.7117                 1.0618                 5.7666
 Frc consts  --      0.4555                 0.1305                 0.0550
 IR Inten    --    597.0217               147.8741                25.9961

                      4                      5                      6
                      A                      A                      A
 Frequencies --   -113.1491                18.3593                36.5027
 Red. masses --      6.4250                 3.7206                 2.8369
 Frc consts  --      0.0485                 0.0007                 0.0022
 IR Inten    --     15.6916                 4.7032                 5.7269

                      7                      8                      9
                      A                      A                      A
 Frequencies --     96.4129               176.8207               248.3247
 Red. masses --      3.2491                 1.2281                 3.7968
 Frc consts  --      0.0178                 0.0226                 0.1379
 IR Inten    --     12.6613                 1.3774                 5.3776

                     10                     11                     12
                      A                      A                      A
 Frequencies --    272.9032               418.4593               565.1292
 Red. masses --      4.1623                 3.5863                 4.0673
 Frc consts  --      0.1826                 0.3700                 0.7653
 IR Inten    --      6.8705                 5.8399                 8.7198

                     13                     14                     15
                      A                      A                      A
 Frequencies --    581.7449               644.0989               779.5455
 Red. masses --      1.7986                 2.9283                 3.1180
 Frc consts  --      0.3586                 0.7158                 1.1164
 IR Inten    --     68.3267               106.8583                70.2035

                     16                     17                     18
                      A                      A                      A
 Frequencies --    799.1560               815.3320               872.6177
 Red. masses --      1.3398                 1.4329                 1.9004
 Frc consts  --      0.5041                 0.5612                 0.8526
 IR Inten    --     28.3495                62.3163                21.5186

                     19                     20                     21
                      A                      A                      A
 Frequencies --    899.3459               961.5718              1130.8712
 Red. masses --      3.4305                 2.6699                 3.2674
 Frc consts  --      1.6348                 1.4545                 2.4620
 IR Inten    --     22.8415                34.1484                49.6586

                     22                     23                     24
                      A                      A                      A
 Frequencies --   1159.5061              1177.8622              1289.0942
 Red. masses --      2.2412                 2.0767                 1.5488
 Frc consts  --      1.7753                 1.6976                 1.5165
 IR Inten    --    148.0645               387.8990               809.6050

                     25                     26                     27
                      A                      A                      A
 Frequencies --   1325.7965              1399.7699              1426.3485
 Red. masses --      2.6799                 1.2790                 1.1275
 Frc consts  --      2.7754                 1.4765                 1.3515
 IR Inten    --    420.1962                 5.3429               322.9115

                     28                     29                     30
                      A                      A                      A
 Frequencies --   1454.4992              1520.3803              1526.7068
 Red. masses --      1.2370                 1.0428                 1.0461
 Frc consts  --      1.5419                 1.4202                 1.4366
 IR Inten    --     84.8911                22.5323                 7.9787

                     31                     32                     33
                      A                      A                      A
 Frequencies --   1632.7292              1913.8105              2333.1812
 Red. masses --      1.1847                12.3844                 5.5499
 Frc consts  --      1.8607                26.7253                17.8004
 IR Inten    --    468.6768               284.9036                78.8908

                     34                     35                     36
                      A                      A                      A
 Frequencies --   3101.0430              3164.3634              3185.2531
 Red. masses --      1.0348                 1.0846                 1.1000
 Frc consts  --      5.8628                 6.3989                 6.5757
 IR Inten    --      5.8217                 6.0580                 5.0630

                     37                     38                     39
                      A                      A                      A
 Frequencies --   3199.4015              3532.3145              3807.8780
 Red. masses --      1.1005                 1.1794                 1.0662
 Frc consts  --      6.6371                 8.6704                 9.1083
 IR Inten    --     11.4708                55.0458                19.0053

 - Thermochemistry -
 -------------------
 Temperature   298.150 Kelvin.  Pressure   1.00000 Atm.
 Atom     1 has atomic number  8 and mass  15.99491

 Molecular mass:   115.03952 amu.
 Principal axes and moments of inertia in atomic units:
                           1         2         3
     Eigenvalues --   597.293041598.155692003.89888
           X            0.99928  -0.03794   0.00281
           Y            0.03799   0.99905  -0.02137
           Z           -0.00200   0.02146   0.99977
 This molecule is an asymmetric top.
 Rotational symmetry number  1.
 Warning -- assumption of classical behavior for rotation
           may cause significant error
 Rotational temperatures (Kelvin)      0.14501     0.05420     0.04322
 Rotational constants (GHZ):           3.02153     1.12926     0.90061
    4 imaginary frequencies ignored.
 Zero-point vibrational energy     283916.5 (Joules/Mol)
                                   67.85768 (Kcal/Mol)
 Warning -- explicit consideration of   9 degrees of freedom as
           vibrations may cause significant error
 Vibrational temperatures:     26.41    52.52   138.72   254.41   357.28
          (Kelvin)            392.65   602.07   813.09   837.00   926.71
                             1121.59  1149.81  1173.08  1255.50  1293.96
                             1383.49  1627.07  1668.27  1694.68  1854.72
                             1907.53  2013.96  2052.20  2092.70  2187.49
                             2196.59  2349.13  2753.55  3356.93  4461.71
                             4552.81  4582.87  4603.23  5082.21  5478.69

 Zero-point correction=                           0.108138 (Hartree/Particle)
 Thermal correction to Energy=                    0.116309
 Thermal correction to Enthalpy=                  0.117253
 Thermal correction to Gibbs Free Energy=         0.071835
 Sum of electronic and zero-point Energies=           -419.843374
 Sum of electronic and thermal Energies=              -419.835203
 Sum of electronic and thermal Enthalpies=            -419.834259
 Sum of electronic and thermal Free Energies=         -419.879677

                     E (Thermal)             CV                S
                      KCal/Mol        Cal/Mol-Kelvin    Cal/Mol-Kelvin
 Total                   72.985             26.704             95.589
 Electronic               0.000              0.000              1.377
 Translational            0.889              2.981             40.136
 Rotational               0.889              2.981             29.038
 Vibrational             71.207             20.743             25.038
 Vibration     1          0.593              1.986              6.804
 Vibration     2          0.594              1.982              5.440
 Vibration     3          0.603              1.952              3.526
 Vibration     4          0.628              1.871              2.362
 Vibration     5          0.662              1.766              1.742
 Vibration     6          0.676              1.723              1.578
 Vibration     7          0.781              1.430              0.897
 Vibration     8          0.921              1.107              0.514
 Vibration     9          0.939              1.071              0.482

 Normal termination of Gaussian 16 at Fri Jun 20 12:38:41 2025.
