 Gaussian 16, Revision A.03,
 Gaussian 16:  ES64L-G16RevA.03 25-Dec-2016

 --------------------------
 # freq 6-311++g(d,p) m062x
 --------------------------

 -------------------
 Title Card Required
 -------------------
 Symbolic Z-matrix:
 Charge =  0 Multiplicity = 2

                         Standard orientation:
 ---------------------------------------------------------------------
 Center     Atomic      Atomic             Coordinates (Angstroms)
 Number     Number       Type             X           Y           Z
 ---------------------------------------------------------------------
      1          8           0        2.635860    1.737400   -0.247790
      2          1           0        1.841429    2.234649   -0.016403
      3          6           0       -3.192285    1.031336    0.403686
      4          1           0       -4.072032    1.578641    0.650914
      5          6           0       -2.203507    0.415066    0.125481
      6          6           0       -1.037712   -0.375447   -0.229613
      7          8           0       -1.081550   -1.476898   -0.695200
      8          8           0        0.098900    0.294432    0.037144
      9          6           0        1.305888   -0.380319   -0.279040
     10          6           0        1.772513   -1.294799    0.813255
     11          1           0        2.211512    0.761186   -0.351657
     12          1           0        1.274124   -0.798576   -1.284086
     13          1           0        2.751792   -1.706926    0.569203
     14          1           0        1.837582   -0.761067    1.762268
     15          1           0        1.060526   -2.122400    0.913915
 ---------------------------------------------------------------------

 SCF Done:  E(UM062X) =  -420.212829250     A.U. after   16 cycles

 The electronic state is 2-A.
 Alpha  occ. eigenvalues --  -19.70903 -19.65240 -19.61982 -10.72726 -10.64222
 Alpha  occ. eigenvalues --  -10.58448 -10.57963 -10.55950  -1.28112  -1.18808
 Alpha  occ. eigenvalues --   -1.11836  -0.92263  -0.88610  -0.80245  -0.71864
 Alpha  occ. eigenvalues --   -0.67192  -0.62564  -0.61126  -0.59260  -0.58396
 Alpha  occ. eigenvalues --   -0.52839  -0.51756  -0.49279  -0.48382  -0.46393
 Alpha  occ. eigenvalues --   -0.41601  -0.41338  -0.38972  -0.38587  -0.37782
 Alpha  occ. eigenvalues --   -0.31596
 Alpha virt. eigenvalues --   -0.03215  -0.00534   0.00411   0.01492   0.01823
 Alpha virt. eigenvalues --    0.02936   0.03127   0.04548   0.05809   0.05916
 Alpha virt. eigenvalues --    0.06492   0.07319   0.07753   0.09208   0.10087

  Beta  occ. eigenvalues --  -19.70866 -19.65232 -19.61433 -10.72682 -10.63432
  Beta  occ. eigenvalues --  -10.58447 -10.57963 -10.55964  -1.27863  -1.18601
  Beta  occ. eigenvalues --   -1.09735  -0.91432  -0.87782  -0.79766  -0.70533
  Beta  occ. eigenvalues --   -0.66191  -0.62281  -0.60222  -0.58319  -0.56671
  Beta  occ. eigenvalues --   -0.51796  -0.50813  -0.48410  -0.47186  -0.44568
  Beta  occ. eigenvalues --   -0.41257  -0.41040  -0.38570  -0.37978  -0.37721
  Beta virt. eigenvalues --   -0.08598  -0.03088  -0.00465   0.00482   0.01635
  Beta virt. eigenvalues --    0.01985   0.03033   0.03189   0.04777   0.05877
  Beta virt. eigenvalues --    0.05969   0.06673   0.07409   0.07789   0.09315

 Mulliken charges and spin densities:
               1          2
     1  O   -0.474884   0.237929
     2  H    0.257691  -0.001179
     3  C   -0.553889   0.001696
     4  H    0.190666   0.000079
     5  C    1.122544   0.000602
     6  C   -0.730330   0.011764
     7  O   -0.196837   0.001507
     8  O    0.016497  -0.032511
     9  C   -0.466440   0.802178
    10  C   -0.331289  -0.034598
    11  H    0.346556  -0.029551
    12  H    0.237696  -0.016781
    13  H    0.187803   0.002985
    14  H    0.196626   0.008684
    15  H    0.197590   0.047198
 Sum of Mulliken charges =  -0.00000   1.00000

 Dipole moment (field-independent basis, Debye):
    X=             -2.1900    Y=             -0.1305    Z=              1.3095  Tot=              2.5550
 Quadrupole moment (field-independent basis, Debye-Ang):
   XX=            -47.8486   YY=            -49.6065   ZZ=            -47.8508
   XY=            -14.9231   XZ=             -1.6131   YZ=             -0.2397

  Exact polarizability:  91.434  -6.304  76.437  -4.038   3.847  51.612
 Approx polarizability:  94.725  -9.773  91.054  -6.844   9.859  61.057

 ******    1 imaginary frequencies (negative Signs) ******

                      1                      2                      3
                      A                      A                      A
 Frequencies --    -42.3511                18.9340                86.9200
 Red. masses --      4.4535                 7.4547                 4.1256
 Frc consts  --      0.0047                 0.0016                 0.0184
 IR Inten    --     10.3751                 4.7385                 4.1182

                      4                      5                      6
                      A                      A                      A
 Frequencies --    108.8611               140.2486               177.3233
 Red. masses --      4.4387                 3.1277                 1.5299
 Frc consts  --      0.0310                 0.0362                 0.0283
 IR Inten    --      3.1978                 5.3206                 5.1662

                      7                      8                      9
                      A                      A                      A
 Frequencies --    203.4979               218.0151               271.4496
 Red. masses --      1.8271                 1.1367                 4.9252
 Frc consts  --      0.0446                 0.0318                 0.2138
 IR Inten    --     11.8785                82.8759                 1.2971

                     10                     11                     12
                      A                      A                      A
 Frequencies --    354.9400               426.9698               555.8201
 Red. masses --      4.0429                 3.6708                 4.6163
 Frc consts  --      0.3001                 0.3943                 0.8403
 IR Inten    --     30.1287                 4.6324                 2.3085

                     13                     14                     15
                      A                      A                      A
 Frequencies --    611.8902               695.6445               743.7844
 Red. masses --      6.1956                 1.1186                 1.1856
 Frc consts  --      1.3667                 0.3189                 0.3864
 IR Inten    --      7.5625                92.4012                18.9274

                     16                     17                     18
                      A                      A                      A
 Frequencies --    746.0849               774.0440               780.6360
 Red. masses --      1.3090                 2.7344                 1.8379
 Frc consts  --      0.4293                 0.9653                 0.6599
 IR Inten    --     32.9996                 1.8104                51.2147

                     19                     20                     21
                      A                      A                      A
 Frequencies --    882.8330               893.5211               942.6854
 Red. masses --      1.9097                 1.3080                 5.7351
 Frc consts  --      0.8770                 0.6153                 3.0028
 IR Inten    --     31.6122                48.8978                 6.5905

                     22                     23                     24
                      A                      A                      A
 Frequencies --   1041.5445              1101.6801              1138.0529
 Red. masses --      1.5453                 3.7798                 1.8683
 Frc consts  --      0.9877                 2.7029                 1.4257
 IR Inten    --     54.6333                72.5629                22.3509

                     25                     26                     27
                      A                      A                      A
 Frequencies --   1254.9246              1365.8649              1405.5856
 Red. masses --      8.4866                 1.2324                 1.3253
 Frc consts  --      7.8744                 1.3546                 1.5427
 IR Inten    --    786.9542                 5.9881                22.8640

                     28                     29                     30
                      A                      A                      A
 Frequencies --   1463.2858              1476.6805              1484.5147
 Red. masses --      1.1661                 1.0413                 1.1153
 Frc consts  --      1.4711                 1.3378                 1.4481
 IR Inten    --     67.6022                 9.5400                 8.7960

                     31                     32                     33
                      A                      A                      A
 Frequencies --   1845.1719              1865.7760              2269.6446
 Red. masses --      8.6265                 1.1289                 5.7422
 Frc consts  --     17.3046                 2.3153                17.4279
 IR Inten    --    329.9921                15.3016                86.3187

                     34                     35                     36
                      A                      A                      A
 Frequencies --   3044.5726              3129.6862              3146.5974
 Red. masses --      1.0426                 1.0913                 1.0876
 Frc consts  --      5.6943                 6.2981                 6.3444
 IR Inten    --      0.3794                 3.0417                 6.5115

                     37                     38                     39
                      A                      A                      A
 Frequencies --   3167.7716              3488.1668              3867.5361
 Red. masses --      1.1016                 1.1715                 1.0653
 Frc consts  --      6.5128                 8.3983                 9.3886
 IR Inten    --      6.3450                63.4879                43.9292

 - Thermochemistry -
 -------------------
 Temperature   298.150 Kelvin.  Pressure   1.00000 Atm.
 Atom     1 has atomic number  8 and mass  15.99491

 Molecular mass:   115.03952 amu.
 Principal axes and moments of inertia in atomic units:
                           1         2         3
     Eigenvalues --   593.716081597.109701999.46124
           X            0.99937  -0.03530   0.00262
           Y            0.03535   0.99913  -0.02233
           Z           -0.00183   0.02240   0.99975
 This molecule is an asymmetric top.
 Rotational symmetry number  1.
 Warning -- assumption of classical behavior for rotation
           may cause significant error
 Rotational temperatures (Kelvin)      0.14588     0.05423     0.04332
 Rotational constants (GHZ):           3.03974     1.13000     0.90261
    1 imaginary frequencies ignored.
 Zero-point vibrational energy     282265.8 (Joules/Mol)
                                   67.46315 (Kcal/Mol)
 Warning -- explicit consideration of  12 degrees of freedom as
           vibrations may cause significant error
 Vibrational temperatures:     27.24   125.06   156.63   201.79   255.13
          (Kelvin)            292.79   313.68   390.56   510.68   614.31
                              799.70   880.37  1000.88  1070.14  1073.45
                             1113.68  1123.16  1270.20  1285.58  1356.31
                             1498.55  1585.07  1637.40  1805.56  1965.17
                             2022.32  2105.34  2124.61  2135.89  2654.79
                             2684.44  3265.51  4380.46  4502.92  4527.25
                             4557.72  5018.69  5564.52

 Zero-point correction=                           0.107509 (Hartree/Particle)
 Thermal correction to Energy=                    0.117265
 Thermal correction to Enthalpy=                  0.118209
 Thermal correction to Gibbs Free Energy=         0.070649
 Sum of electronic and zero-point Energies=           -420.105320
 Sum of electronic and thermal Energies=              -420.095565
 Sum of electronic and thermal Enthalpies=            -420.094620
 Sum of electronic and thermal Free Energies=         -420.142180

                     E (Thermal)             CV                S
                      KCal/Mol        Cal/Mol-Kelvin    Cal/Mol-Kelvin
 Total                   73.585             32.847            100.097
 Electronic               0.000              0.000              1.377
 Translational            0.889              2.981             40.136
 Rotational               0.889              2.981             29.029
 Vibrational             71.807             26.885             29.555
 Vibration     1          0.593              1.986              6.743
 Vibration     2          0.601              1.958              3.728
 Vibration     3          0.606              1.942              3.289
 Vibration     4          0.615              1.913              2.800
 Vibration     5          0.628              1.870              2.356
 Vibration     6          0.639              1.835              2.101
 Vibration     7          0.646              1.814              1.976
 Vibration     8          0.675              1.726              1.587
 Vibration     9          0.731              1.565              1.144
 Vibration    10          0.789              1.412              0.869
 Vibration    11          0.911              1.127              0.532
 Vibration    12          0.971              1.007              0.430

 1\1\GINC-AJ\Freq\UM062X\6-311++G(d,p)\C5H7O3(2)\AAYUSH\23-Jun-2025\0\\
 # freq 6-311++g(d,p) m062x\\Title Card Required\\0,2\O,2.63586,1.7374,
 -0.24779\H,1.841429,2.234649,-0.016403\C,-3.192285,1.031336,0.403686\H
 ,-4.072032,1.578641,0.650914\C,-2.203507,0.415066,0.125481\C,-1.037712
 ,-0.375447,-0.229613\O,-1.08155,-1.476898,-0.6952\O,0.0989,0.294432,0.
 037144\C,1.305888,-0.380319,-0.27904\C,1.772513,-1.294799,0.813255\H,2
 .211512,0.761186,-0.351657\H,1.274124,-0.798576,-1.284086\H,2.751792,-
 1.706926,0.569203\H,1.837582,-0.761067,1.762268\H,1.060526,-2.1224,0.9

 Normal termination of Gaussian 16 at Mon Jun 23 01:21:11 2025.
