 Gaussian 16, Revision A.03,
 Gaussian 16:  ES64L-G16RevA.03 25-Dec-2016

 --------------------------
 # freq 6-311++g(d,p) m062x
 --------------------------

 -------------------
 Title Card Required
 -------------------
 Symbolic Z-matrix:
 Charge =  0 Multiplicity = 2

                         Standard orientation:
 ---------------------------------------------------------------------
 Center     Atomic      Atomic             Coordinates (Angstroms)
 Number     Number       Type             X           Y           Z
 ---------------------------------------------------------------------
      1          8           0        2.644266    1.763970   -0.247487
      2          1           0        1.824669    2.232085   -0.016410
      3          6           0       -3.192521    1.029816    0.403171
      4          1           0       -4.073063    1.575745    0.649913
      5          6           0       -2.202955    0.414577    0.125487
      6          6           0       -1.033586   -0.374332   -0.228017
      7          8           0       -1.078457   -1.476501   -0.693863
      8          8           0        0.095993    0.298216    0.036863
      9          6           0        1.317861   -0.371382   -0.283561
     10          6           0        1.772369   -1.294297    0.815742
     11          1           0        2.078087    0.496799   -0.384657
     12          1           0        1.242290   -0.839676   -1.265412
     13          1           0        2.754931   -1.700056    0.571213
     14          1           0        1.842090   -0.752890    1.760035
     15          1           0        1.069576   -2.123781    0.924309
 ---------------------------------------------------------------------

 SCF Done:  E(UM062X) =  -420.199123745     A.U. after   20 cycles

 The electronic state is 2-A.
 Alpha  occ. eigenvalues --  -19.69808 -19.66807 -19.64417 -10.71861 -10.62486
 Alpha  occ. eigenvalues --  -10.57913 -10.57471 -10.54771  -1.27084  -1.17839
 Alpha  occ. eigenvalues --   -1.13439  -0.91623  -0.88025  -0.79278  -0.71843
 Alpha  occ. eigenvalues --   -0.66058  -0.62232  -0.60455  -0.58317  -0.57404
 Alpha  occ. eigenvalues --   -0.54174  -0.50632  -0.50041  -0.47608  -0.45639
 Alpha  occ. eigenvalues --   -0.42292  -0.40912  -0.40479  -0.38074  -0.37216
 Alpha  occ. eigenvalues --   -0.36532
 Alpha virt. eigenvalues --   -0.02538  -0.00534   0.00602   0.01405   0.01883
 Alpha virt. eigenvalues --    0.03254   0.03425   0.04655   0.06014   0.06031
 Alpha virt. eigenvalues --    0.06583   0.07395   0.08059   0.09454   0.10244

  Beta  occ. eigenvalues --  -19.69806 -19.65445 -19.64413 -10.71849 -10.62140
  Beta  occ. eigenvalues --  -10.57913 -10.57471 -10.54774  -1.27005  -1.17749
  Beta  occ. eigenvalues --   -1.07882  -0.91171  -0.87624  -0.79080  -0.70944
  Beta  occ. eigenvalues --   -0.65718  -0.61906  -0.59617  -0.57618  -0.55280
  Beta  occ. eigenvalues --   -0.51838  -0.50362  -0.47819  -0.46382  -0.42876
  Beta  occ. eigenvalues --   -0.40493  -0.39830  -0.39084  -0.38065  -0.37172
  Beta virt. eigenvalues --   -0.11217  -0.02505  -0.00401   0.00656   0.01649
  Beta virt. eigenvalues --    0.01984   0.03295   0.03459   0.04839   0.06079
  Beta virt. eigenvalues --    0.06106   0.06688   0.07515   0.08105   0.09624

 Mulliken charges and spin densities:
               1          2
     1  O   -0.320478   0.746062
     2  H    0.257709  -0.016226
     3  C   -0.563785   0.000225
     4  H    0.187666  -0.000022
     5  C    1.111658   0.003888
     6  C   -0.719994   0.004416
     7  O   -0.201544   0.001020
     8  O   -0.002013  -0.007540
     9  C   -0.479571   0.290767
    10  C   -0.342203  -0.003919
    11  H    0.294172  -0.035979
    12  H    0.225710  -0.001662
    13  H    0.180026   0.000076
    14  H    0.181836   0.002589
    15  H    0.190812   0.016304
 Sum of Mulliken charges =  -0.00000   1.00000

 Dipole moment (field-independent basis, Debye):
    X=             -1.3229    Y=              0.9940    Z=              1.2154  Tot=              2.0531
 Quadrupole moment (field-independent basis, Debye-Ang):
   XX=            -45.7480   YY=            -47.9033   ZZ=            -48.2174
   XY=            -11.6016   XZ=             -1.8664   YZ=             -0.3336

  Exact polarizability:  94.696  -0.359  84.056  -4.540   3.458  51.362
 Approx polarizability:  95.888  -6.836  94.333  -6.806  10.104  60.647

 ******    1 imaginary frequencies (negative Signs) ******

                      1                      2                      3
                      A                      A                      A
 Frequencies --   -752.4849                39.7643                51.6868
 Red. masses --      1.6206                 6.9098                 5.6605
 Frc consts  --      0.5407                 0.0064                 0.0089
 IR Inten    --    968.1452                 3.5957                 3.7470

                      4                      5                      6
                      A                      A                      A
 Frequencies --     84.8722                97.3664               158.1933
 Red. masses --      3.4635                 3.1333                 3.1045
 Frc consts  --      0.0147                 0.0175                 0.0458
 IR Inten    --      1.9761                 3.0731                10.6583

                      7                      8                      9
                      A                      A                      A
 Frequencies --    205.9383               220.8248               269.6767
 Red. masses --      1.1111                 1.2644                 4.1835
 Frc consts  --      0.0278                 0.0363                 0.1793
 IR Inten    --    102.4591                 1.8267                 3.9666

                     10                     11                     12
                      A                      A                      A
 Frequencies --    297.7163               419.2677               557.5205
 Red. masses --      3.8093                 3.6539                 4.3469
 Frc consts  --      0.1989                 0.3784                 0.7961
 IR Inten    --      9.6063                 3.7450                 2.7226

                     13                     14                     15
                      A                      A                      A
 Frequencies --    603.7137               715.7327               743.2034
 Red. masses --      6.3471                 1.4889                 1.3188
 Frc consts  --      1.3630                 0.4494                 0.4292
 IR Inten    --     10.0387                47.5111                34.2753

                     16                     17                     18
                      A                      A                      A
 Frequencies --    773.6593               782.8790               794.5175
 Red. masses --      1.5774                 3.8702                 1.1907
 Frc consts  --      0.5563                 1.3976                 0.4429
 IR Inten    --     12.9413                52.8303                58.1255

                     19                     20                     21
                      A                      A                      A
 Frequencies --    897.1002               943.7492              1076.8990
 Red. masses --      2.9125                 2.8193                 3.1467
 Frc consts  --      1.3810                 1.4794                 2.1501
 IR Inten    --     24.9977                47.0450               392.9633

                     22                     23                     24
                      A                      A                      A
 Frequencies --   1123.9417              1145.3176              1227.7158
 Red. masses --      2.2005                 2.2637                 1.4283
 Frc consts  --      1.6378                 1.7496                 1.2684
 IR Inten    --    189.1351               223.5761               469.4533

                     25                     26                     27
                      A                      A                      A
 Frequencies --   1279.9579              1349.8660              1372.3042
 Red. masses --      4.6808                 1.0945                 1.2188
 Frc consts  --      4.5181                 1.1751                 1.3523
 IR Inten    --    571.1146                87.3088                 6.3665

                     28                     29                     30
                      A                      A                      A
 Frequencies --   1416.8353              1485.1397              1493.3059
 Red. masses --      1.3446                 1.0413                 1.0439
 Frc consts  --      1.5903                 1.3531                 1.3715
 IR Inten    --     35.3676                12.2340                 6.0915

                     31                     32                     33
                      A                      A                      A
 Frequencies --   1640.4583              1847.7987              2269.6750
 Red. masses --      1.1534                12.0624                 5.7449
 Frc consts  --      1.8288                24.2657                17.4365
 IR Inten    --    508.6652               302.5584                78.4636

                     34                     35                     36
                      A                      A                      A
 Frequencies --   3069.1948              3131.3891              3147.9840
 Red. masses --      1.0351                 1.0863                 1.1016
 Frc consts  --      5.7447                 6.2761                 6.4319
 IR Inten    --      3.7806                 5.2355                 3.0226

                     37                     38                     39
                      A                      A                      A
 Frequencies --   3161.6775              3489.4001              3792.3326
 Red. masses --      1.1022                 1.1713                 1.0669
 Frc consts  --      6.4912                 8.4024                 9.0402
 IR Inten    --      9.2825                62.4936                40.3035

 - Thermochemistry -
 -------------------
 Temperature   298.150 Kelvin.  Pressure   1.00000 Atm.
 Atom     1 has atomic number  8 and mass  15.99491

 Molecular mass:   115.03952 amu.
 Principal axes and moments of inertia in atomic units:
                           1         2         3
     Eigenvalues --   597.292921598.155512003.89857
           X            0.99928  -0.03794   0.00281
           Y            0.03799   0.99905  -0.02137
           Z           -0.00200   0.02146   0.99977
 This molecule is an asymmetric top.
 Rotational symmetry number  1.
 Warning -- assumption of classical behavior for rotation
           may cause significant error
 Rotational temperatures (Kelvin)      0.14501     0.05420     0.04322
 Rotational constants (GHZ):           3.02153     1.12927     0.90062
    1 imaginary frequencies ignored.
 Zero-point vibrational energy     282190.5 (Joules/Mol)
                                   67.44516 (Kcal/Mol)
 Warning -- explicit consideration of  12 degrees of freedom as
           vibrations may cause significant error
 Vibrational temperatures:     57.21    74.37   122.11   140.09   227.60
          (Kelvin)            296.30   317.72   388.00   428.35   603.23
                              802.15   868.61  1029.78  1069.30  1113.12
                             1126.39  1143.13  1290.73  1357.84  1549.42
                             1617.10  1647.86  1766.41  1841.57  1942.16
                             1974.44  2038.51  2136.78  2148.53  2360.25
                             2658.57  3265.56  4415.89  4505.37  4529.25
                             4548.95  5020.47  5456.32

 Zero-point correction=                           0.107481 (Hartree/Particle)
 Thermal correction to Energy=                    0.117420
 Thermal correction to Enthalpy=                  0.118365
 Thermal correction to Gibbs Free Energy=         0.070301
 Sum of electronic and zero-point Energies=           -420.091643
 Sum of electronic and thermal Energies=              -420.081703
 Sum of electronic and thermal Enthalpies=            -420.080759
 Sum of electronic and thermal Free Energies=         -420.128822

                     E (Thermal)             CV                S
                      KCal/Mol        Cal/Mol-Kelvin    Cal/Mol-Kelvin
 Total                   73.682             32.595            101.158
 Electronic               0.000              0.000              1.377
 Translational            0.889              2.981             40.136
 Rotational               0.889              2.981             29.038
 Vibrational             71.905             26.633             30.607
 Vibration     1          0.594              1.981              5.271
 Vibration     2          0.596              1.977              4.752
 Vibration     3          0.601              1.960              3.775
 Vibration     4          0.603              1.951              3.506
 Vibration     5          0.621              1.893              2.571
 Vibration     6          0.640              1.831              2.079
 Vibration     7          0.648              1.809              1.952
 Vibration     8          0.674              1.729              1.598
 Vibration     9          0.691              1.678              1.430
 Vibration    10          0.782              1.428              0.894
 Vibration    11          0.913              1.123              0.529
 Vibration    12          0.962              1.024              0.443

 1\1\GINC-AJ\Freq\UM062X\6-311++G(d,p)\C5H7O3(2)\AAYUSH\23-Jun-2025\0\\
 # freq 6-311++g(d,p) m062x\\Title Card Required\\0,2\O,2.644266,1.7639
 7,-0.247487\H,1.824669,2.232085,-0.01641\C,-3.192521,1.029817,0.403171
 \H,-4.073063,1.575746,0.649913\C,-2.202955,0.414577,0.125487\C,-1.0335
 86,-0.374332,-0.228017\O,-1.078457,-1.476501,-0.693863\O,0.095993,0.29
 8216,0.036863\C,1.317861,-0.371382,-0.283561\C,1.772369,-1.294297,0.81
 5742\H,2.078087,0.496799,-0.384657\H,1.24229,-0.839676,-1.265412\H,2.7
 54931,-1.700056,0.571213\H,1.84209,-0.75289,1.760035\H,1.069576,-2.123

 Normal termination of Gaussian 16 at Mon Jun 23 01:23:33 2025.
