 Gaussian 16, Revision A.03,
 Gaussian 16:  ES64L-G16RevA.03 25-Dec-2016

 --------------------------
 # ccsd(t)/6-311++g(d,p) sp
 --------------------------

 -------------------
 Title Card Required
 -------------------
 Symbolic Z-matrix:
 Charge =  0 Multiplicity = 2

                         Standard orientation:
 ---------------------------------------------------------------------
 Center     Atomic      Atomic             Coordinates (Angstroms)
 Number     Number       Type             X           Y           Z
 ---------------------------------------------------------------------
      1          8           0        2.653641    1.778614   -0.245456
      2          1           0        1.823115    2.229160   -0.014436
      3          6           0       -3.191192    1.034461    0.403288
      4          1           0       -4.071195    1.581217    0.649905
      5          6           0       -2.202355    0.417964    0.125741
      6          6           0       -1.032990   -0.371957   -0.227206
      7          8           0       -1.080456   -1.474199   -0.693510
      8          8           0        0.096281    0.299425    0.036375
      9          6           0        1.315682   -0.382629   -0.287654
     10          6           0        1.768559   -1.299893    0.817816
     11          1           0        2.068742    0.434872   -0.418290
     12          1           0        1.213659   -0.876157   -1.254482
     13          1           0        2.751680   -1.704852    0.572842
     14          1           0        1.842824   -0.752591    1.758515
     15          1           0        1.069215   -2.130048    0.934771
 ---------------------------------------------------------------------

 SCF Done:  E(UHF) =  -417.978949722     A.U. after   34 cycles
 E2 =    -0.1270144784D+01 EUMP2 =    -0.41924909450612D+03
 CCSD(T)= -0.41935074749D+03

 The electronic state is 2-A.
 Alpha  occ. eigenvalues --  -20.64218 -20.62221 -20.56910 -11.42343 -11.29654
 Alpha  occ. eigenvalues --  -11.27285 -11.26546 -11.22538  -1.49049  -1.40536
 Alpha  occ. eigenvalues --   -1.38882  -1.08525  -1.04581  -0.93055  -0.84874
 Alpha  occ. eigenvalues --   -0.77328  -0.74083  -0.72320  -0.69702  -0.68552
 Alpha  occ. eigenvalues --   -0.67024  -0.61012  -0.58868  -0.56887  -0.55422
 Alpha  occ. eigenvalues --   -0.53849  -0.49581  -0.48583  -0.46126  -0.43235
 Alpha  occ. eigenvalues --   -0.43159
 Alpha virt. eigenvalues --    0.03484   0.04819   0.05863   0.06322   0.07922
 Alpha virt. eigenvalues --    0.08147   0.08889   0.10062   0.10969   0.11837
 Alpha virt. eigenvalues --    0.12192   0.13853   0.14680   0.15626   0.16536

  Beta  occ. eigenvalues --  -20.62258 -20.60219 -20.56907 -11.42330 -11.29021
  Beta  occ. eigenvalues --  -11.27284 -11.26548 -11.22572  -1.49014  -1.38965
  Beta  occ. eigenvalues --   -1.25587  -1.08277  -1.03889  -0.92925  -0.83587
  Beta  occ. eigenvalues --   -0.77117  -0.73459  -0.70291  -0.67130  -0.65967
  Beta  occ. eigenvalues --   -0.62210  -0.58757  -0.55479  -0.54275  -0.52022
  Beta  occ. eigenvalues --   -0.50236  -0.48883  -0.47051  -0.43230  -0.43162
  Beta virt. eigenvalues --    0.03456   0.04576   0.05358   0.06305   0.07536
  Beta virt. eigenvalues --    0.07963   0.08200   0.09272   0.10212   0.11155
  Beta virt. eigenvalues --    0.12154   0.12233   0.13958   0.14695   0.15740

 Mulliken charges and spin densities:
               1          2
     1  O   -0.238547   0.931876
     2  H    0.268189  -0.033618
     3  C   -0.629505   0.000576
     4  H    0.210865  -0.000067
     5  C    1.284344   0.000782
     6  C   -0.745567   0.000493
     7  O   -0.279048   0.000714
     8  O   -0.075926  -0.009889
     9  C   -0.396016   0.195607
    10  C   -0.304925  -0.011628
    11  H    0.245372  -0.078291
    12  H    0.193934  -0.006997
    13  H    0.144738   0.000284
    14  H    0.149999   0.002706
    15  H    0.172092   0.007451
 Sum of Mulliken charges =  -0.00000   1.00000

 Dipole moment (field-independent basis, Debye):
    X=             -0.8078    Y=              2.2293    Z=              1.2015  Tot=              2.6581
 Quadrupole moment (field-independent basis, Debye-Ang):
   XX=            -43.9952   YY=            -47.0030   ZZ=            -48.6130
   XY=             -9.5127   XZ=             -2.4075   YZ=             -0.4913

 3-0=-419.276009\MP4SDQ=-419.2987143\CCSD=-419.2976711\CCSD(T)=-419.350
 Normal termination of Gaussian 16 at Tue Aug 19 22:27:05 2025.
