 Gaussian 16, Revision A.03,
 Gaussian 16:  ES64L-G16RevA.03 25-Dec-2016

 -------------------
 # freq 6-31+g m062x
 -------------------

 -------------------
 Title Card Required
 -------------------
 Symbolic Z-matrix:
 Charge =  0 Multiplicity = 2

                         Standard orientation:
 ---------------------------------------------------------------------
 Center     Atomic      Atomic             Coordinates (Angstroms)
 Number     Number       Type             X           Y           Z
 ---------------------------------------------------------------------
      1          8           0        2.641054    1.757555   -0.248172
      2          1           0        1.826540    2.232561   -0.017056
      3          6           0       -3.192809    1.028835    0.403135
      4          1           0       -4.073412    1.574731    0.649909
      5          6           0       -2.203130    0.413796    0.125425
      6          6           0       -1.034257   -0.375044   -0.228361
      7          8           0       -1.078296   -1.477157   -0.693907
      8          8           0        0.096500    0.297436    0.036921
      9          6           0        1.317046   -0.369682   -0.282153
     10          6           0        1.773411   -1.292887    0.815176
     11          1           0        2.093302    0.541553   -0.373105
     12          1           0        1.252769   -0.826468   -1.270185
     13          1           0        2.755317   -1.699821    0.570839
     14          1           0        1.841441   -0.753520    1.760654
     15          1           0        1.068411   -2.121807    0.920858
 ---------------------------------------------------------------------

 SCF Done:  E(UM062X) =  -419.950522460     A.U. after   20 cycles

 The electronic state is 2-A.
 Alpha  occ. eigenvalues --  -19.72530 -19.68612 -19.67865 -10.74473 -10.64069
 Alpha  occ. eigenvalues --  -10.59665 -10.59330 -10.55839  -1.29742  -1.20472
 Alpha  occ. eigenvalues --   -1.14179  -0.92524  -0.88926  -0.80114  -0.72537
 Alpha  occ. eigenvalues --   -0.66646  -0.62627  -0.60773  -0.59111  -0.57792
 Alpha  occ. eigenvalues --   -0.53372  -0.51265  -0.50014  -0.48011  -0.45832
 Alpha  occ. eigenvalues --   -0.41554  -0.41127  -0.40601  -0.38517  -0.37768
 Alpha  occ. eigenvalues --   -0.35569
 Alpha virt. eigenvalues --   -0.02913   0.01716   0.02241   0.03226   0.03428
 Alpha virt. eigenvalues --    0.04173   0.04818   0.06202   0.07650   0.07901
 Alpha virt. eigenvalues --    0.08179   0.08631   0.09745   0.10960   0.12224

  Beta  occ. eigenvalues --  -19.72525 -19.67861 -19.67288 -10.74455 -10.63624
  Beta  occ. eigenvalues --  -10.59665 -10.59331 -10.55847  -1.29655  -1.20359
  Beta  occ. eigenvalues --   -1.09352  -0.92034  -0.88446  -0.79880  -0.71655
  Beta  occ. eigenvalues --   -0.66163  -0.62363  -0.59852  -0.58238  -0.55819
  Beta  occ. eigenvalues --   -0.51411  -0.50844  -0.48131  -0.46637  -0.43050
  Beta  occ. eigenvalues --   -0.40676  -0.39880  -0.38542  -0.38486  -0.37703
  Beta virt. eigenvalues --   -0.11380  -0.02866   0.01761   0.02332   0.03323
  Beta virt. eigenvalues --    0.03489   0.04291   0.04904   0.06243   0.07706
  Beta virt. eigenvalues --    0.07989   0.08262   0.08692   0.10005   0.10995

 Mulliken charges and spin densities:
               1          2
     1  O   -0.482704   0.704943
     2  H    0.409283  -0.023326
     3  C    0.239684   0.007993
     4  H    0.350098  -0.000018
     5  C    0.132784   0.001007
     6  C   -0.465165  -0.003436
     7  O   -0.328704   0.003182
     8  O   -0.264151  -0.014730
     9  C   -0.289849   0.405422
    10  C   -0.513771  -0.024855
    11  H    0.265694  -0.076516
    12  H    0.250250  -0.006936
    13  H    0.225724   0.000939
    14  H    0.232528   0.004205
    15  H    0.238300   0.022126
 Sum of Mulliken charges =  -0.00000   1.00000

 Dipole moment (field-independent basis, Debye):
    X=             -1.8339    Y=              0.7813    Z=              1.2624  Tot=              2.3595
 Quadrupole moment (field-independent basis, Debye-Ang):
   XX=            -47.5938   YY=            -48.8226   ZZ=            -48.5738
   XY=            -12.7674   XZ=             -1.6591   YZ=             -0.5340

  Exact polarizability:  91.308   0.844  81.612  -4.773   4.339  47.452
 Approx polarizability:  90.605  -5.849  90.299  -7.137  11.841  51.676

 ******    4 imaginary frequencies (negative Signs) ******

                      1                      2                      3
                      A                      A                      A
 Frequencies --  -1191.9384              -461.3969              -119.1372
 Red. masses --      1.1928                 1.0556                 7.2269
 Frc consts  --      0.9985                 0.1324                 0.0604
 IR Inten    --   1802.5212               139.7989                10.9397

                      4                      5                      6
                      A                      A                      A
 Frequencies --    -97.1052                26.7269                87.9137
 Red. masses --      5.0734                 3.8801                 3.7771
 Frc consts  --      0.0282                 0.0016                 0.0172
 IR Inten    --     15.4014                 7.2632                10.9468

                      7                      8                      9
                      A                      A                      A
 Frequencies --    108.7672               174.2012               251.0870
 Red. masses --      2.3221                 1.2717                 3.9830
 Frc consts  --      0.0162                 0.0227                 0.1479
 IR Inten    --      6.0779                 1.6172                 4.9768

                     10                     11                     12
                      A                      A                      A
 Frequencies --    268.9859               420.1668               557.6605
 Red. masses --      4.4057                 3.5593                 4.8379
 Frc consts  --      0.1878                 0.3702                 0.8864
 IR Inten    --      6.5705                 6.9326                 7.6952

                     13                     14                     15
                      A                      A                      A
 Frequencies --    598.6485               658.9199               778.6695
 Red. masses --      2.4800                 2.4430                 3.1959
 Frc consts  --      0.5237                 0.6249                 1.1417
 IR Inten    --     15.6421                59.5647                63.4600

                     16                     17                     18
                      A                      A                      A
 Frequencies --    800.2883               815.6992               872.8584
 Red. masses --      1.5656                 1.4340                 1.8504
 Frc consts  --      0.5908                 0.5621                 0.8306
 IR Inten    --    242.2251                76.8449                38.7586

                     19                     20                     21
                      A                      A                      A
 Frequencies --    900.3386               905.2006               969.7126
 Red. masses --      2.9474                 1.5291                 3.1635
 Frc consts  --      1.4077                 0.7382                 1.7527
 IR Inten    --     49.0988               648.2826                24.8164

                     22                     23                     24
                      A                      A                      A
 Frequencies --   1132.5514              1161.8842              1205.4501
 Red. masses --      3.0064                 2.2222                 1.6501
 Frc consts  --      2.2720                 1.7675                 1.4127
 IR Inten    --     30.8362                36.9490                 0.5389

                     25                     26                     27
                      A                      A                      A
 Frequencies --   1316.8609              1335.7103              1396.4658
 Red. masses --      1.2556                 4.2787                 1.2626
 Frc consts  --      1.2829                 4.4977                 1.4507
 IR Inten    --     83.0687               555.7980                 2.3015

                     28                     29                     30
                      A                      A                      A
 Frequencies --   1450.1884              1518.0518              1522.3749
 Red. masses --      1.2394                 1.0493                 1.0422
 Frc consts  --      1.5357                 1.4247                 1.4232
 IR Inten    --     23.6203                 5.9663                 9.5222

                     31                     32                     33
                      A                      A                      A
 Frequencies --   1557.7794              1913.5109              2333.2050
 Red. masses --      1.1075                12.6380                 5.5492
 Frc consts  --      1.5835                27.2640                17.7985
 IR Inten    --     30.0640               306.5037                81.0221

                     34                     35                     36
                      A                      A                      A
 Frequencies --   3098.0802              3166.2849              3181.9541
 Red. masses --      1.0355                 1.0853                 1.0985
 Frc consts  --      5.8558                 6.4103                 6.5529
 IR Inten    --      4.1051                 6.4306                 4.2997

                     37                     38                     39
                      A                      A                      A
 Frequencies --   3201.5948              3532.0111              3819.8015
 Red. masses --      1.1006                 1.1795                 1.0659
 Frc consts  --      6.6468                 8.6694                 9.1635
 IR Inten    --      9.9879                55.2832                23.9091

 - Thermochemistry -
 -------------------
 Temperature   298.150 Kelvin.  Pressure   1.00000 Atm.
 Atom     1 has atomic number  8 and mass  15.99491

 Molecular mass:   115.03952 amu.
 Principal axes and moments of inertia in atomic units:
                           1         2         3
     Eigenvalues --   595.827561597.659372002.04027
           X            0.99929  -0.03746   0.00279
           Y            0.03751   0.99907  -0.02147
           Z           -0.00199   0.02156   0.99977
 This molecule is an asymmetric top.
 Rotational symmetry number  1.
 Warning -- assumption of classical behavior for rotation
           may cause significant error
 Rotational temperatures (Kelvin)      0.14537     0.05421     0.04326
 Rotational constants (GHZ):           3.02897     1.12962     0.90145
    4 imaginary frequencies ignored.
 Zero-point vibrational energy     281359.3 (Joules/Mol)
                                   67.24649 (Kcal/Mol)
 Warning -- explicit consideration of   9 degrees of freedom as
           vibrations may cause significant error
 Vibrational temperatures:     38.45   126.49   156.49   250.64   361.26
          (Kelvin)            387.01   604.53   802.35   861.32   948.04
                             1120.33  1151.44  1173.61  1255.85  1295.39
                             1302.38  1395.20  1629.49  1671.69  1734.37
                             1894.67  1921.79  2009.20  2086.50  2184.14
                             2190.36  2241.30  2753.12  3356.96  4457.45
                             4555.58  4578.12  4606.38  5081.78  5495.84

 Zero-point correction=                           0.107164 (Hartree/Particle)
 Thermal correction to Energy=                    0.115222
 Thermal correction to Enthalpy=                  0.116166
 Thermal correction to Gibbs Free Energy=         0.071992
 Sum of electronic and zero-point Energies=           -419.843358
 Sum of electronic and thermal Energies=              -419.835301
 Sum of electronic and thermal Enthalpies=            -419.834357
 Sum of electronic and thermal Free Energies=         -419.878531

                     E (Thermal)             CV                S
                      KCal/Mol        Cal/Mol-Kelvin    Cal/Mol-Kelvin
 Total                   72.303             26.984             92.972
 Electronic               0.000              0.000              1.377
 Translational            0.889              2.981             40.136
 Rotational               0.889              2.981             29.034
 Vibrational             70.525             21.022             22.424
 Vibration     1          0.593              1.984              6.059
 Vibration     2          0.601              1.958              3.706
 Vibration     3          0.606              1.942              3.291
 Vibration     4          0.627              1.874              2.390
 Vibration     5          0.663              1.761              1.723
 Vibration     6          0.673              1.730              1.603
 Vibration     7          0.783              1.426              0.891
 Vibration     8          0.913              1.123              0.529
 Vibration     9          0.957              1.035              0.452

 Normal termination of Gaussian 16 at Fri Jun 20 12:34:45 2025.
