 Gaussian 16, Revision A.03,
 Gaussian 16:  ES64L-G16RevA.03 25-Dec-2016

 --------------------------
 # ccsd(t)/6-311++g(d,p) sp
 --------------------------

 -------------------
 Title Card Required
 -------------------
 Symbolic Z-matrix:
 Charge =  0 Multiplicity = 2

                         Standard orientation:
 ---------------------------------------------------------------------
 Center     Atomic      Atomic             Coordinates (Angstroms)
 Number     Number       Type             X           Y           Z
 ---------------------------------------------------------------------
      1          8           0        2.648715    1.771249   -0.246546
      2          1           0        1.823611    2.230860   -0.015499
      3          6           0       -3.191936    1.031874    0.403227
      4          1           0       -4.072249    1.578137    0.649913
      5          6           0       -2.202687    0.416087    0.125596
      6          6           0       -1.033175   -0.373232   -0.227612
      7          8           0       -1.079258   -1.475441   -0.693731
      8          8           0        0.095925    0.298933    0.036688
      9          6           0        1.317146   -0.376242   -0.285465
     10          6           0        1.770604   -1.296840    0.816676
     11          1           0        2.071652    0.462066   -0.400794
     12          1           0        1.228271   -0.857495   -1.259893
     13          1           0        2.753587   -1.701891    0.571895
     14          1           0        1.842539   -0.752660    1.759298
     15          1           0        1.069819   -2.126833    0.929261
 ---------------------------------------------------------------------

 SCF Done:  E(UHF) =  -417.976117300     A.U. after   33 cycles
 E2 =    -0.1272000950D+01 EUMP2 =    -0.41924811824949D+03
 CCSD(T)= -0.41935008240D+03

 The electronic state is 2-A.
 Alpha  occ. eigenvalues --  -20.64083 -20.62241 -20.56946 -11.42373 -11.29868
 Alpha  occ. eigenvalues --  -11.27308 -11.26565 -11.22584  -1.49097  -1.40520
 Alpha  occ. eigenvalues --   -1.38925  -1.08563  -1.04617  -0.93122  -0.84916
 Alpha  occ. eigenvalues --   -0.77353  -0.74181  -0.72463  -0.69749  -0.68435
 Alpha  occ. eigenvalues --   -0.67054  -0.60916  -0.58914  -0.56778  -0.55469
 Alpha  occ. eigenvalues --   -0.53866  -0.49609  -0.48507  -0.45778  -0.43256
 Alpha  occ. eigenvalues --   -0.43181
 Alpha virt. eigenvalues --    0.03481   0.04817   0.05868   0.06322   0.07901
 Alpha virt. eigenvalues --    0.08142   0.08882   0.10058   0.10995   0.11832
 Alpha virt. eigenvalues --    0.12180   0.13843   0.14671   0.15619   0.16515

  Beta  occ. eigenvalues --  -20.62281 -20.60128 -20.56943 -11.42357 -11.29137
  Beta  occ. eigenvalues --  -11.27306 -11.26568 -11.22623  -1.49052  -1.39016
  Beta  occ. eigenvalues --   -1.25819  -1.08283  -1.03830  -0.92972  -0.83494
  Beta  occ. eigenvalues --   -0.77102  -0.73467  -0.70309  -0.67166  -0.66045
  Beta  occ. eigenvalues --   -0.62035  -0.58783  -0.55497  -0.54292  -0.51987
  Beta  occ. eigenvalues --   -0.50247  -0.48838  -0.46996  -0.43251  -0.43184
  Beta virt. eigenvalues --    0.03451   0.04549   0.05350   0.06306   0.07448
  Beta virt. eigenvalues --    0.07943   0.08193   0.09232   0.10209   0.11209
  Beta virt. eigenvalues --    0.12138   0.12223   0.13936   0.14687   0.15729

 Mulliken charges and spin densities:
               1          2
     1  O   -0.245514   0.914413
     2  H    0.268287  -0.032845
     3  C   -0.624960   0.000814
     4  H    0.211208  -0.000077
     5  C    1.279705   0.000268
     6  C   -0.744428   0.001250
     7  O   -0.279399   0.000632
     8  O   -0.075132  -0.012763
     9  C   -0.394211   0.231012
    10  C   -0.306329  -0.015975
    11  H    0.247663  -0.090580
    12  H    0.194438  -0.008912
    13  H    0.145362   0.000495
    14  H    0.150727   0.003156
    15  H    0.172584   0.009112
 Sum of Mulliken charges =  -0.00000   1.00000

 Dipole moment (field-independent basis, Debye):
    X=             -0.8414    Y=              2.1995    Z=              1.2098  Tot=              2.6475
 Quadrupole moment (field-independent basis, Debye-Ang):
   XX=            -44.0382   YY=            -47.0610   ZZ=            -48.5962
   XY=             -9.6003   XZ=             -2.3840   YZ=             -0.4978

 P3-0=-419.2748328\MP4SDQ=-419.2975886\CCSD=-419.2967408\CCSD(T)=-419.3
 Normal termination of Gaussian 16 at Tue Aug 19 20:52:03 2025.
