 Gaussian 16, Revision A.03,
 Gaussian 16:  ES64L-G16RevA.03 25-Dec-2016

 --------------------------
 # ccsd(t)/6-311++g(d,p) sp
 --------------------------

 -------------------
 Title Card Required
 -------------------
 Symbolic Z-matrix:
 Charge =  0 Multiplicity = 2

                         Standard orientation:
 ---------------------------------------------------------------------
 Center     Atomic      Atomic             Coordinates (Angstroms)
 Number     Number       Type             X           Y           Z
 ---------------------------------------------------------------------
      1          8           0        2.636394    1.741313   -0.247978
      2          1           0        1.837295    2.233542   -0.016643
      3          6           0       -3.192531    1.030258    0.403574
      4          1           0       -4.072559    1.577125    0.650709
      5          6           0       -2.203449    0.414426    0.125472
      6          6           0       -1.036892   -0.375552   -0.229369
      7          8           0       -1.080548   -1.477138   -0.694938
      8          8           0        0.098330    0.295087    0.037115
      9          6           0        1.309068   -0.376613   -0.279638
     10          6           0        1.773046   -1.293988    0.813617
     11          1           0        2.182312    0.713580   -0.354540
     12          1           0        1.270336   -0.803629   -1.281269
     13          1           0        2.752892   -1.704894    0.569503
     14          1           0        1.838520   -0.759184    1.761898
     15          1           0        1.062342   -2.121833    0.914812
 ---------------------------------------------------------------------

 SCF Done:  E(UHF) =  -417.964213586     A.U. after   29 cycles
 E2 =    -0.1296177238D+01 EUMP2 =    -0.41926039082378D+03
 CCSD(T)= -0.41935634899D+03

 The electronic state is 2-A.
 Alpha  occ. eigenvalues --  -20.64165 -20.58392 -20.57067 -11.43929 -11.34348
 Alpha  occ. eigenvalues --  -11.28224 -11.27369 -11.24641  -1.50981  -1.40844
 Alpha  occ. eigenvalues --   -1.34310  -1.10136  -1.06435  -0.94937  -0.86125
 Alpha  occ. eigenvalues --   -0.79540  -0.74662  -0.72719  -0.70371  -0.69169
 Alpha  occ. eigenvalues --   -0.63082  -0.60900  -0.59703  -0.57513  -0.55477
 Alpha  occ. eigenvalues --   -0.50895  -0.50405  -0.50032  -0.44114  -0.44092
 Alpha  occ. eigenvalues --   -0.42319
 Alpha virt. eigenvalues --    0.03330   0.04561   0.05928   0.06522   0.07051
 Alpha virt. eigenvalues --    0.07756   0.08852   0.09746   0.11209   0.11586
 Alpha virt. eigenvalues --    0.11671   0.13428   0.14060   0.15214   0.16147

  Beta  occ. eigenvalues --  -20.64192 -20.58391 -20.55096 -11.43824 -11.32014
  Beta  occ. eigenvalues --  -11.28217 -11.27375 -11.24763  -1.50662  -1.40591
  Beta  occ. eigenvalues --   -1.28066  -1.09058  -1.04270  -0.94304  -0.83044
  Beta  occ. eigenvalues --   -0.78233  -0.74187  -0.71623  -0.68543  -0.64964
  Beta  occ. eigenvalues --   -0.61558  -0.59539  -0.56978  -0.55817  -0.52255
  Beta  occ. eigenvalues --   -0.50328  -0.49252  -0.48032  -0.44087  -0.44046
  Beta virt. eigenvalues --    0.03325   0.04428   0.05384   0.05983   0.06837
  Beta virt. eigenvalues --    0.07236   0.07770   0.09029   0.09872   0.11527
  Beta virt. eigenvalues --    0.11686   0.11846   0.13477   0.14114   0.15243

 Mulliken charges and spin densities:
               1          2
     1  O   -0.484397   0.385469
     2  H    0.257052  -0.012817
     3  C   -0.604739   0.003893
     4  H    0.216273  -0.000198
     5  C    1.289233  -0.006635
     6  C   -0.753526   0.012495
     7  O   -0.274238  -0.000788
     8  O   -0.038636  -0.059290
     9  C   -0.384559   0.878589
    10  C   -0.300867  -0.085546
    11  H    0.334848  -0.138395
    12  H    0.223270  -0.038667
    13  H    0.160321   0.004482
    14  H    0.174792   0.010035
    15  H    0.185172   0.047372
 Sum of Mulliken charges =  -0.00000   1.00000

 Dipole moment (field-independent basis, Debye):
    X=             -2.3216    Y=              0.1164    Z=              1.3354  Tot=              2.6808
 Quadrupole moment (field-independent basis, Debye-Ang):
   XX=            -47.6741   YY=            -50.1382   ZZ=            -47.9675
   XY=            -15.4881   XZ=             -1.9801   YZ=             -0.2551

 P3-0=-419.2796535\MP4SDQ=-419.3034937\CCSD=-419.3011963\CCSD(T)=-419.3
 Normal termination of Gaussian 16 at Sat Jul  5 22:39:12 2025.
