 Gaussian 16, Revision A.03,
 Gaussian 16:  ES64L-G16RevA.03 25-Dec-2016

 --------------------------
 # freq 6-311++g(d,p) m062x
 --------------------------

 -------------------
 Title Card Required
 -------------------
 Symbolic Z-matrix:
 Charge =  0 Multiplicity = 2

                         Standard orientation:
 ---------------------------------------------------------------------
 Center     Atomic      Atomic             Coordinates (Angstroms)
 Number     Number       Type             X           Y           Z
 ---------------------------------------------------------------------
      1          8           0        2.646384    1.767565   -0.247045
      2          1           0        1.824024    2.231546   -0.015979
      3          6           0       -3.192259    1.030735    0.403197
      4          1           0       -4.072701    1.576804    0.649912
      5          6           0       -2.202831    0.415257    0.125536
      6          6           0       -1.033344   -0.373819   -0.227818
      7          8           0       -1.078786   -1.476010   -0.693810
      8          8           0        0.095898    0.298594    0.036791
      9          6           0        1.317678   -0.373474   -0.284468
     10          6           0        1.771554   -1.295463    0.816172
     11          1           0        2.073854    0.478039   -0.392242
     12          1           0        1.235555   -0.848240   -1.262703
     13          1           0        2.754361   -1.700794    0.571517
     14          1           0        1.842338   -0.752738    1.759675
     15          1           0        1.069817   -2.125224    0.926641
 ---------------------------------------------------------------------

 SCF Done:  E(UM062X) =  -420.199249893     A.U. after   21 cycles

 The electronic state is 2-A.
 Alpha  occ. eigenvalues --  -19.69710 -19.67185 -19.64335 -10.71777 -10.62209
 Alpha  occ. eigenvalues --  -10.57860 -10.57422 -10.54645  -1.26981  -1.17739
 Alpha  occ. eigenvalues --   -1.13710  -0.91539  -0.87956  -0.79167  -0.71791
 Alpha  occ. eigenvalues --   -0.65953  -0.62182  -0.60379  -0.58244  -0.57322
 Alpha  occ. eigenvalues --   -0.54432  -0.50515  -0.50040  -0.47508  -0.45559
 Alpha  occ. eigenvalues --   -0.42605  -0.40869  -0.40401  -0.38023  -0.37184
 Alpha  occ. eigenvalues --   -0.36896
 Alpha virt. eigenvalues --   -0.02472  -0.00544   0.00616   0.01390   0.01902
 Alpha virt. eigenvalues --    0.03280   0.03457   0.04665   0.06019   0.06051
 Alpha virt. eigenvalues --    0.06596   0.07405   0.08090   0.09478   0.10265

  Beta  occ. eigenvalues --  -19.69710 -19.65787 -19.64331 -10.71766 -10.61891
  Beta  occ. eigenvalues --  -10.57859 -10.57422 -10.54648  -1.26912  -1.17655
  Beta  occ. eigenvalues --   -1.07866  -0.91122  -0.87582  -0.78989  -0.70937
  Beta  occ. eigenvalues --   -0.65649  -0.61865  -0.59552  -0.57544  -0.55284
  Beta  occ. eigenvalues --   -0.51971  -0.50278  -0.47743  -0.46296  -0.42788
  Beta  occ. eigenvalues --   -0.40425  -0.39800  -0.39270  -0.38014  -0.37116
  Beta virt. eigenvalues --   -0.11175  -0.02443  -0.00401   0.00670   0.01636
  Beta virt. eigenvalues --    0.01997   0.03319   0.03489   0.04846   0.06097
  Beta virt. eigenvalues --    0.06114   0.06692   0.07526   0.08134   0.09652

 Mulliken charges and spin densities:
               1          2
     1  O   -0.307604   0.774740
     2  H    0.258539  -0.016936
     3  C   -0.565756   0.000135
     4  H    0.187342  -0.000026
     5  C    1.112507   0.003892
     6  C   -0.720083   0.003611
     7  O   -0.201826   0.001001
     8  O   -0.003306  -0.006666
     9  C   -0.479431   0.262456
    10  C   -0.342333  -0.002403
    11  H    0.288238  -0.035291
    12  H    0.224130  -0.001086
    13  H    0.179119  -0.000031
    14  H    0.180442   0.002167
    15  H    0.190022   0.014436
 Sum of Mulliken charges =  -0.00000   1.00000

 Dipole moment (field-independent basis, Debye):
    X=             -1.2370    Y=              1.1068    Z=              1.2029  Tot=              2.0498
 Quadrupole moment (field-independent basis, Debye-Ang):
   XX=            -45.5578   YY=            -47.7462   ZZ=            -48.2524
   XY=            -11.2870   XZ=             -1.9008   YZ=             -0.3403

  Exact polarizability:  94.182  -0.977  83.174  -4.471   3.569  51.336
 Approx polarizability:  95.482  -7.376  93.319  -6.759  10.193  60.600

 ******    2 imaginary frequencies (negative Signs) ******

                      1                      2                      3
                      A                      A                      A
 Frequencies --   -613.3824               -28.2437                38.7782
 Red. masses --      1.9067                 5.1251                 5.6609
 Frc consts  --      0.4227                 0.0024                 0.0050
 IR Inten    --    583.2936                 2.5932                 4.6603

                      4                      5                      6
                      A                      A                      A
 Frequencies --     74.5787                92.9604               155.0995
 Red. masses --      3.2972                 3.8643                 3.2729
 Frc consts  --      0.0108                 0.0197                 0.0464
 IR Inten    --      3.5012                 2.4387                10.8261

                      7                      8                      9
                      A                      A                      A
 Frequencies --    208.3335               221.8374               269.4591
 Red. masses --      1.1064                 1.2578                 4.1167
 Frc consts  --      0.0283                 0.0365                 0.1761
 IR Inten    --    103.3911                 1.6770                 4.0140

                     10                     11                     12
                      A                      A                      A
 Frequencies --    299.9176               418.9071               558.3430
 Red. masses --      3.6927                 3.6754                 4.2653
 Frc consts  --      0.1957                 0.3800                 0.7834
 IR Inten    --     10.1385                 3.4068                 2.3838

                     13                     14                     15
                      A                      A                      A
 Frequencies --    603.6346               708.7489               742.9093
 Red. masses --      6.2027                 1.3879                 1.3172
 Frc consts  --      1.3316                 0.4108                 0.4283
 IR Inten    --      8.1611                84.1780                34.4362

                     16                     17                     18
                      A                      A                      A
 Frequencies --    773.4267               781.7769               785.8068
 Red. masses --      1.5392                 1.7706                 2.0107
 Frc consts  --      0.5425                 0.6376                 0.7315
 IR Inten    --     13.1867                68.0133                33.0439

                     19                     20                     21
                      A                      A                      A
 Frequencies --    896.4415               942.3113              1087.4549
 Red. masses --      3.0030                 2.8430                 3.4841
 Frc consts  --      1.4218                 1.4874                 2.4275
 IR Inten    --     20.9529                28.8417               155.0725

                     22                     23                     24
                      A                      A                      A
 Frequencies --   1127.0769              1158.1509              1267.1603
 Red. masses --      2.1020                 2.0422                 1.5340
 Frc consts  --      1.5732                 1.6139                 1.4512
 IR Inten    --     94.8945               164.1467               580.9437

                     25                     26                     27
                      A                      A                      A
 Frequencies --   1279.5291              1371.7168              1387.3942
 Red. masses --      3.5017                 1.1933                 1.1270
 Frc consts  --      3.3778                 1.3229                 1.2782
 IR Inten    --    490.4086                 8.2167               112.2959

                     28                     29                     30
                      A                      A                      A
 Frequencies --   1421.1098              1485.9830              1495.5843
 Red. masses --      1.3223                 1.0400                 1.0462
 Frc consts  --      1.5733                 1.3531                 1.3788
 IR Inten    --     57.3300                13.0753                 7.5432

                     31                     32                     33
                      A                      A                      A
 Frequencies --   1777.9322              1848.7228              2269.6447
 Red. masses --      1.1833                 9.7860                 5.7450
 Frc consts  --      2.2038                19.7061                17.4363
 IR Inten    --   1107.8906               209.1240                77.5960

                     34                     35                     36
                      A                      A                      A
 Frequencies --   3070.1093              3130.7398              3149.2308
 Red. masses --      1.0348                 1.0862                 1.1022
 Frc consts  --      5.7469                 6.2724                 6.4402
 IR Inten    --      4.3556                 5.0928                 3.4025

                     37                     38                     39
                      A                      A                      A
 Frequencies --   3160.7750              3489.5256              3787.9450
 Red. masses --      1.1021                 1.1712                 1.0669
 Frc consts  --      6.4872                 8.4028                 9.0194
 IR Inten    --      9.7572                62.4082                38.5797

 - Thermochemistry -
 -------------------
 Temperature   298.150 Kelvin.  Pressure   1.00000 Atm.
 Atom     1 has atomic number  8 and mass  15.99491

 Molecular mass:   115.03952 amu.
 Principal axes and moments of inertia in atomic units:
                           1         2         3
     Eigenvalues --   598.276421598.488992005.13015
           X            0.99927  -0.03816   0.00281
           Y            0.03821   0.99904  -0.02129
           Z           -0.00200   0.02138   0.99977
 This molecule is an asymmetric top.
 Rotational symmetry number  1.
 Warning -- assumption of classical behavior for rotation
           may cause significant error
 Rotational temperatures (Kelvin)      0.14477     0.05418     0.04320
 Rotational constants (GHZ):           3.01657     1.12903     0.90006
    2 imaginary frequencies ignored.
 Zero-point vibrational energy     283150.4 (Joules/Mol)
                                   67.67458 (Kcal/Mol)
 Warning -- explicit consideration of  11 degrees of freedom as
           vibrations may cause significant error
 Vibrational temperatures:     55.79   107.30   133.75   223.15   299.75
          (Kelvin)            319.17   387.69   431.51   602.71   803.33
                              868.50  1019.73  1068.88  1112.79  1124.80
                             1130.60  1289.78  1355.78  1564.60  1621.61
                             1666.32  1823.16  1840.96  1973.59  1996.15
                             2044.66  2138.00  2151.81  2558.05  2659.90
                             3265.51  4417.20  4504.44  4531.04  4547.65
                             5020.65  5450.01

 Zero-point correction=                           0.107846 (Hartree/Particle)
 Thermal correction to Energy=                    0.116982
 Thermal correction to Enthalpy=                  0.117926
 Thermal correction to Gibbs Free Energy=         0.071934
 Sum of electronic and zero-point Energies=           -420.091404
 Sum of electronic and thermal Energies=              -420.082268
 Sum of electronic and thermal Enthalpies=            -420.081324
 Sum of electronic and thermal Free Energies=         -420.127316

                     E (Thermal)             CV                S
                      KCal/Mol        Cal/Mol-Kelvin    Cal/Mol-Kelvin
 Total                   73.407             30.576             96.799
 Electronic               0.000              0.000              1.377
 Translational            0.889              2.981             40.136
 Rotational               0.889              2.981             29.040
 Vibrational             71.630             24.614             26.245
 Vibration     1          0.594              1.981              5.321
 Vibration     2          0.599              1.966              4.029
 Vibration     3          0.602              1.954              3.597
 Vibration     4          0.620              1.897              2.609
 Vibration     5          0.642              1.828              2.058
 Vibration     6          0.648              1.808              1.944
 Vibration     7          0.674              1.729              1.600
 Vibration     8          0.692              1.674              1.417
 Vibration     9          0.782              1.429              0.896
 Vibration    10          0.914              1.121              0.527
 Vibration    11          0.962              1.024              0.443

 1\1\GINC-AJ\Freq\UM062X\6-311++G(d,p)\C5H7O3(2)\AAYUSH\16-Aug-2025\0\\
 # freq 6-311++g(d,p) m062x\\Title Card Required\\0,2\O,2.703992,1.7584
 9,-0.227794\H,1.881505,2.222245,0.003272\C,-3.134448,1.020057,0.422448
 \H,-4.01504,1.565884,0.669163\C,-2.144851,0.404851,0.144787\C,-0.97514
 8,-0.383904,-0.208567\O,-1.020287,-1.486108,-0.674559\O,0.15391,0.2888
 19,0.056042\C,1.375874,-0.382913,-0.265217\C,1.830003,-1.304778,0.8354
 23\H,2.131816,0.468807,-0.372991\H,1.293882,-0.857702,-1.243452\H,2.81
 2922,-1.709839,0.590768\H,1.900638,-0.762033,1.778926\H,1.128494,-2.13

 Normal termination of Gaussian 16 at Sat Aug 16 15:08:21 2025.
