 Gaussian 16, Revision A.03,
 Gaussian 16:  ES64L-G16RevA.03 25-Dec-2016

 -------------------
 # freq 6-31+g m062x
 -------------------

 -------------------
 Title Card Required
 -------------------
 Symbolic Z-matrix:
 Charge =  0 Multiplicity = 2

                         Standard orientation:
 ---------------------------------------------------------------------
 Center     Atomic      Atomic             Coordinates (Angstroms)
 Number     Number       Type             X           Y           Z
 ---------------------------------------------------------------------
      1          8           0        2.666537    1.796938   -0.242223
      2          1           0        1.822443    2.222907   -0.011173
      3          6           0       -3.189035    1.041868    0.403447
      4          1           0       -4.068150    1.590109    0.649812
      5          6           0       -2.201280    0.423473    0.126252
      6          6           0       -1.033056   -0.368366   -0.226273
      7          8           0       -1.084465   -1.470727   -0.692646
      8          8           0        0.098511    0.299570    0.034907
      9          6           0        1.310852   -0.401196   -0.294038
     10          6           0        1.763220   -1.308134    0.821151
     11          1           0        2.064526    0.381836   -0.462574
     12          1           0        1.178011   -0.922545   -1.241887
     13          1           0        2.745612   -1.715484    0.576268
     14          1           0        1.843469   -0.751920    1.756197
     15          1           0        1.065219   -2.137022    0.949837
 ---------------------------------------------------------------------

 SCF Done:  E(UM062X) =  -419.955499349     A.U. after   22 cycles

 The electronic state is 2-A.
 Alpha  occ. eigenvalues --  -19.71863 -19.71111 -19.67279 -10.73874 -10.62139
 Alpha  occ. eigenvalues --  -10.59314 -10.58995 -10.54974  -1.29016  -1.19686
 Alpha  occ. eigenvalues --   -1.15775  -0.91894  -0.88405  -0.79266  -0.72059
 Alpha  occ. eigenvalues --   -0.65908  -0.62241  -0.59975  -0.58272  -0.57162
 Alpha  occ. eigenvalues --   -0.55137  -0.50313  -0.50057  -0.47367  -0.45353
 Alpha  occ. eigenvalues --   -0.43606  -0.40959  -0.40181  -0.38384  -0.38154
 Alpha  occ. eigenvalues --   -0.37340
 Alpha virt. eigenvalues --   -0.02455   0.01818   0.02326   0.03425   0.03651
 Alpha virt. eigenvalues --    0.04245   0.04922   0.06357   0.07794   0.07997
 Alpha virt. eigenvalues --    0.08364   0.08777   0.09823   0.11209   0.12353

  Beta  occ. eigenvalues --  -19.71871 -19.69531 -19.67276 -10.73869 -10.61925
  Beta  occ. eigenvalues --  -10.59314 -10.58995 -10.54979  -1.28990  -1.19633
  Beta  occ. eigenvalues --   -1.08905  -0.91664  -0.88152  -0.79178  -0.71538
  Beta  occ. eigenvalues --   -0.65720  -0.62086  -0.59362  -0.57708  -0.55317
  Beta  occ. eigenvalues --   -0.52328  -0.50133  -0.47695  -0.46058  -0.42489
  Beta  occ. eigenvalues --   -0.40310  -0.40057  -0.39262  -0.38159  -0.37331
  Beta virt. eigenvalues --   -0.10828  -0.02440   0.01886   0.02442   0.03508
  Beta virt. eigenvalues --    0.03711   0.04395   0.04992   0.06396   0.07872
  Beta virt. eigenvalues --    0.08106   0.08433   0.08840   0.10089   0.11248

 Mulliken charges and spin densities:
               1          2
     1  O   -0.398731   0.903690
     2  H    0.413249  -0.030639
     3  C    0.234447   0.004523
     4  H    0.348598  -0.000013
     5  C    0.139663   0.001339
     6  C   -0.470384  -0.005536
     7  O   -0.330427   0.001999
     8  O   -0.269375  -0.003169
     9  C   -0.325649   0.177238
    10  C   -0.503274  -0.009254
    11  H    0.241876  -0.048993
    12  H    0.244668  -0.000840
    13  H    0.218543   0.000505
    14  H    0.225153   0.001128
    15  H    0.231643   0.008020
 Sum of Mulliken charges =  -0.00000   1.00000

 Dipole moment (field-independent basis, Debye):
    X=             -1.2469    Y=              1.5458    Z=              1.1664  Tot=              2.3033
 Quadrupole moment (field-independent basis, Debye-Ang):
   XX=            -46.2907   YY=            -47.6729   ZZ=            -48.7790
   XY=            -10.6546   XZ=             -1.9240   YZ=             -0.5441

  Exact polarizability:  86.558  -5.345  72.487  -4.180   5.304  47.224
 Approx polarizability:  87.287 -10.392  81.974  -6.755  12.501  51.358

 ******    4 imaginary frequencies (negative Signs) ******

                      1                      2                      3
                      A                      A                      A
 Frequencies --   -446.5560              -238.0950              -144.2307
 Red. masses --      1.0608                 2.0547                 4.4046
 Frc consts  --      0.1246                 0.0686                 0.0540
 IR Inten    --    149.0996                36.7081                 9.5768

                      4                      5                      6
                      A                      A                      A
 Frequencies --    -93.7817                15.8640                87.7932
 Red. masses --      3.7288                 3.9848                 3.6036
 Frc consts  --      0.0193                 0.0006                 0.0164
 IR Inten    --      0.3184                 5.6415                 7.1924

                      7                      8                      9
                      A                      A                      A
 Frequencies --    174.9465               186.5879               249.8986
 Red. masses --      1.5957                 3.1987                 3.6856
 Frc consts  --      0.0288                 0.0656                 0.1356
 IR Inten    --      3.8771                 4.0392                 4.8518

                     10                     11                     12
                      A                      A                      A
 Frequencies --    298.9105               413.9067               458.7826
 Red. masses --      2.9203                 2.8909                 1.6894
 Frc consts  --      0.1537                 0.2918                 0.2095
 IR Inten    --     35.3235                34.5487               144.2631

                     13                     14                     15
                      A                      A                      A
 Frequencies --    572.1686               627.4101               774.1827
 Red. masses --      3.9967                 5.1254                 1.3845
 Frc consts  --      0.7709                 1.1887                 0.4889
 IR Inten    --      0.3910                37.0500                24.4347

                     16                     17                     18
                      A                      A                      A
 Frequencies --    782.7333               814.5248               873.0057
 Red. masses --      2.6419                 1.4324                 1.9481
 Frc consts  --      0.9537                 0.5599                 0.8748
 IR Inten    --     52.4536                54.7876                18.5260

                     19                     20                     21
                      A                      A                      A
 Frequencies --    897.0423               955.9141              1131.4435
 Red. masses --      3.6427                 2.6347                 3.8466
 Frc consts  --      1.7271                 1.4185                 2.9013
 IR Inten    --     16.4027                 7.4505                11.1474

                     22                     23                     24
                      A                      A                      A
 Frequencies --   1157.9256              1203.2395              1316.8155
 Red. masses --      2.0823                 1.8037                 2.2655
 Frc consts  --      1.6450                 1.5386                 2.3145
 IR Inten    --     30.5590                36.2340               375.2658

                     25                     26                     27
                      A                      A                      A
 Frequencies --   1352.2990              1418.5767              1454.5008
 Red. masses --      1.7357                 1.2929                 1.2515
 Frc consts  --      1.8701                 1.5330                 1.5600
 IR Inten    --    364.4466                 4.7500                18.7324

                     28                     29                     30
                      A                      A                      A
 Frequencies --   1520.1846              1528.2077              1540.2450
 Red. masses --      1.0636                 1.0509                 1.0866
 Frc consts  --      1.4482                 1.4460                 1.5188
 IR Inten    --      8.2342                19.6423                35.1996

                     31                     32                     33
                      A                      A                      A
 Frequencies --   1911.7054              2333.0130              2757.7053
 Red. masses --     12.3825                 5.5512                 1.0845
 Frc consts  --     26.6624                17.8022                 4.8593
 IR Inten    --    313.8123                75.4475               611.3025

                     34                     35                     36
                      A                      A                      A
 Frequencies --   3104.4564              3165.3723              3190.6187
 Red. masses --      1.0344                 1.0855                 1.1004
 Frc consts  --      5.8736                 6.4080                 6.6002
 IR Inten    --      9.3984                 4.3833                12.1114

                     37                     38                     39
                      A                      A                      A
 Frequencies --   3196.2601              3532.9431              3787.7004
 Red. masses --      1.1012                 1.1793                 1.0666
 Frc consts  --      6.6280                 8.6722                 9.0158
 IR Inten    --     13.5046                54.7471                13.1106

 - Thermochemistry -
 -------------------
 Temperature   298.150 Kelvin.  Pressure   1.00000 Atm.
 Atom     1 has atomic number  8 and mass  15.99491

 Molecular mass:   115.03952 amu.
 Principal axes and moments of inertia in atomic units:
                           1         2         3
     Eigenvalues --   607.773741601.766132016.88019
           X            0.99921  -0.03964   0.00273
           Y            0.03969   0.99900  -0.02045
           Z           -0.00192   0.02055   0.99979
 This molecule is an asymmetric top.
 Rotational symmetry number  1.
 Warning -- assumption of classical behavior for rotation
           may cause significant error
 Rotational temperatures (Kelvin)      0.14251     0.05407     0.04294
 Rotational constants (GHZ):           2.96943     1.12672     0.89482
    4 imaginary frequencies ignored.
 Zero-point vibrational energy     291810.4 (Joules/Mol)
                                   69.74435 (Kcal/Mol)
 Warning -- explicit consideration of   9 degrees of freedom as
           vibrations may cause significant error
 Vibrational temperatures:     22.82   126.31   251.71   268.46   359.55
          (Kelvin)            430.07   595.52   660.09   823.22   902.70
                             1113.88  1126.18  1171.92  1256.06  1290.64
                             1375.35  1627.89  1666.00  1731.19  1894.60
                             1945.66  2041.02  2092.70  2187.21  2198.75
                             2216.07  2750.52  3356.69  3967.72  4466.62
                             4554.26  4590.59  4598.71  5083.12  5449.66

 Zero-point correction=                           0.111145 (Hartree/Particle)
 Thermal correction to Energy=                    0.119116
 Thermal correction to Enthalpy=                  0.120060
 Thermal correction to Gibbs Free Energy=         0.075836
 Sum of electronic and zero-point Energies=           -419.844355
 Sum of electronic and thermal Energies=              -419.836383
 Sum of electronic and thermal Enthalpies=            -419.835439
 Sum of electronic and thermal Free Energies=         -419.879663

                     E (Thermal)             CV                S
                      KCal/Mol        Cal/Mol-Kelvin    Cal/Mol-Kelvin
 Total                   74.746             26.760             93.077
 Electronic               0.000              0.000              1.377
 Translational            0.889              2.981             40.136
 Rotational               0.889              2.981             29.064
 Vibrational             72.969             20.798             22.500
 Vibration     1          0.593              1.986              7.094
 Vibration     2          0.601              1.958              3.709
 Vibration     3          0.627              1.873              2.382
 Vibration     4          0.632              1.858              2.261
 Vibration     5          0.663              1.763              1.731
 Vibration     6          0.692              1.676              1.423
 Vibration     7          0.777              1.440              0.913
 Vibration     8          0.817              1.341              0.770
 Vibration     9          0.928              1.091              0.500

 Normal termination of Gaussian 16 at Fri Jun 20 12:40:18 2025.
