 Gaussian 16, Revision A.03,
 Gaussian 16:  ES64L-G16RevA.03 25-Dec-2016

 --------------------------
 # freq 6-311++g(d,p) m062x
 --------------------------

 -------------------
 Title Card Required
 -------------------
 Symbolic Z-matrix:
 Charge =  0 Multiplicity = 2

                         Standard orientation:
 ---------------------------------------------------------------------
 Center     Atomic      Atomic             Coordinates (Angstroms)
 Number     Number       Type             X           Y           Z
 ---------------------------------------------------------------------
      1          8           0        2.638365    1.749913   -0.248191
      2          1           0        1.830620    2.232773   -0.016963
      3          6           0       -3.192825    1.028892    0.403340
      4          1           0       -4.073269    1.575080    0.650283
      5          6           0       -2.203295    0.413691    0.125449
      6          6           0       -1.035391   -0.375469   -0.228855
      7          8           0       -1.078968   -1.477340   -0.694382
      8          8           0        0.097334    0.296372    0.037027
      9          6           0        1.314129   -0.371330   -0.280858
     10          6           0        1.773678   -1.292830    0.814388
     11          1           0        2.128001    0.615442   -0.362839
     12          1           0        1.262312   -0.814145   -1.275653
     13          1           0        2.754628   -1.701498    0.570150
     14          1           0        1.840216   -0.755753    1.761204
     15          1           0        1.065872   -2.121180    0.917398
 ---------------------------------------------------------------------

 SCF Done:  E(UM062X) =  -420.200882888     A.U. after   19 cycles

 The electronic state is 2-A.
 Alpha  occ. eigenvalues --  -19.70488 -19.64938 -19.64285 -10.72405 -10.63953
 Alpha  occ. eigenvalues --  -10.58252 -10.57784 -10.55546  -1.27734  -1.18448
 Alpha  occ. eigenvalues --   -1.11824  -0.92077  -0.88427  -0.79916  -0.71974
 Alpha  occ. eigenvalues --   -0.66775  -0.62457  -0.60820  -0.58716  -0.57915
 Alpha  occ. eigenvalues --   -0.52854  -0.51344  -0.49831  -0.48255  -0.46157
 Alpha  occ. eigenvalues --   -0.41331  -0.41036  -0.40220  -0.38400  -0.37571
 Alpha  occ. eigenvalues --   -0.33756
 Alpha virt. eigenvalues --   -0.02959  -0.00519   0.00489   0.01497   0.01793
 Alpha virt. eigenvalues --    0.03065   0.03228   0.04591   0.05888   0.05961
 Alpha virt. eigenvalues --    0.06517   0.07320   0.07861   0.09295   0.10132

  Beta  occ. eigenvalues --  -19.70469 -19.64933 -19.63253 -10.72379 -10.63396
  Beta  occ. eigenvalues --  -10.58251 -10.57784 -10.55552  -1.27576  -1.18309
  Beta  occ. eigenvalues --   -1.07965  -0.91426  -0.87851  -0.79577  -0.70883
  Beta  occ. eigenvalues --   -0.66131  -0.62157  -0.60014  -0.58068  -0.55293
  Beta  occ. eigenvalues --   -0.51513  -0.50697  -0.48240  -0.46893  -0.43453
  Beta  occ. eigenvalues --   -0.40969  -0.40381  -0.38389  -0.37997  -0.37520
  Beta virt. eigenvalues --   -0.10747  -0.02888  -0.00429   0.00548   0.01680
  Beta virt. eigenvalues --    0.01958   0.03130   0.03280   0.04804   0.05950
  Beta virt. eigenvalues --    0.06031   0.06678   0.07433   0.07911   0.09438

 Mulliken charges and spin densities:
               1          2
     1  O   -0.406998   0.521082
     2  H    0.255363  -0.008622
     3  C   -0.556772   0.000881
     4  H    0.189506   0.000020
     5  C    1.115106   0.003292
     6  C   -0.722589   0.008654
     7  O   -0.199248   0.001337
     8  O    0.009514  -0.016866
     9  C   -0.479357   0.524357
    10  C   -0.337180  -0.017282
    11  H    0.326212  -0.046900
    12  H    0.235143  -0.007525
    13  H    0.185147   0.001134
    14  H    0.191116   0.005636
    15  H    0.195037   0.030801
 Sum of Mulliken charges =  -0.00000   1.00000

 Dipole moment (field-independent basis, Debye):
    X=             -1.8714    Y=              0.2728    Z=              1.2849  Tot=              2.2863
 Quadrupole moment (field-independent basis, Debye-Ang):
   XX=            -47.0442   YY=            -48.9212   ZZ=            -48.0130
   XY=            -13.6517   XZ=             -1.6760   YZ=             -0.2726

  Exact polarizability:  94.837  -1.005  83.488  -4.504   3.335  51.525
 Approx polarizability:  97.228  -5.563  97.337  -6.958   9.760  60.957

 ******    1 imaginary frequencies (negative Signs) ******

                      1                      2                      3
                      A                      A                      A
 Frequencies --  -1775.8793                63.1964                82.7514
 Red. masses --      1.0742                 6.6097                 4.5290
 Frc consts  --      1.9960                 0.0156                 0.0183
 IR Inten    --   1050.0492                 4.5159                 0.7766

                      4                      5                      6
                      A                      A                      A
 Frequencies --    114.0055               155.9891               185.3159
 Red. masses --      4.9051                 3.3767                 1.9591
 Frc consts  --      0.0376                 0.0484                 0.0396
 IR Inten    --      1.3466                 5.0615                 6.0660

                      7                      8                      9
                      A                      A                      A
 Frequencies --    209.0846               215.3294               271.9544
 Red. masses --      1.1298                 1.4794                 4.7155
 Frc consts  --      0.0291                 0.0404                 0.2055
 IR Inten    --     62.0222                38.4592                 2.8247

                     10                     11                     12
                      A                      A                      A
 Frequencies --    286.5662               425.2667               536.2304
 Red. masses --      4.8818                 3.5901                 5.2968
 Frc consts  --      0.2362                 0.3825                 0.8974
 IR Inten    --      7.6357                 5.7149                 5.5210

                     13                     14                     15
                      A                      A                      A
 Frequencies --    593.0629               632.7332               744.8655
 Red. masses --      4.3354                 4.2348                 1.3142
 Frc consts  --      0.8984                 0.9989                 0.4296
 IR Inten    --     19.0838                 1.7261                39.2216

                     16                     17                     18
                      A                      A                      A
 Frequencies --    773.7319               780.5019               812.2769
 Red. masses --      2.4207                 2.1072                 1.2674
 Frc consts  --      0.8538                 0.7563                 0.4927
 IR Inten    --      1.8656                62.9785               115.1801

                     19                     20                     21
                      A                      A                      A
 Frequencies --    837.5775               899.5554               956.7095
 Red. masses --      1.1470                 2.5869                 3.8652
 Frc consts  --      0.4741                 1.2333                 2.0844
 IR Inten    --     67.8011                22.4159                 4.0360

                     22                     23                     24
                      A                      A                      A
 Frequencies --   1093.2387              1119.9418              1147.1372
 Red. masses --      2.4854                 2.1356                 1.7561
 Frc consts  --      1.7502                 1.5782                 1.3615
 IR Inten    --     36.7150               137.2122                 5.2089

                     25                     26                     27
                      A                      A                      A
 Frequencies --   1227.2965              1271.2122              1368.6701
 Red. masses --      1.2528                 7.8943                 1.2312
 Frc consts  --      1.1118                 7.5162                 1.3589
 IR Inten    --     89.0448               723.4662                 4.3128

                     28                     29                     30
                      A                      A                      A
 Frequencies --   1409.8967              1481.6892              1483.3800
 Red. masses --      1.3258                 1.0472                 1.0411
 Frc consts  --      1.5528                 1.3546                 1.3498
 IR Inten    --     18.2308                 5.6507                 5.9811

                     31                     32                     33
                      A                      A                      A
 Frequencies --   1547.8348              1846.8809              2269.6362
 Red. masses --      1.0554                12.7051                 5.7429
 Frc consts  --      1.4897                25.5332                17.4298
 IR Inten    --     27.6463               339.4844                83.8118

                     34                     35                     36
                      A                      A                      A
 Frequencies --   3059.8882              3135.0100              3141.4996
 Red. masses --      1.0379                 1.0907                 1.0936
 Frc consts  --      5.7258                 6.3161                 6.3587
 IR Inten    --      1.1079                 5.0483                 4.6669

                     37                     38                     39
                      A                      A                      A
 Frequencies --   3166.0073              3488.6683              3823.9236
 Red. masses --      1.1023                 1.1714                 1.0666
 Frc consts  --      6.5101                 8.4001                 9.1887
 IR Inten    --      6.6837                63.0842                50.7663

 - Thermochemistry -
 -------------------
 Temperature   298.150 Kelvin.  Pressure   1.00000 Atm.
 Atom     1 has atomic number  8 and mass  15.99491

 Molecular mass:   115.03952 amu.
 Principal axes and moments of inertia in atomic units:
                           1         2         3
     Eigenvalues --   594.651011597.300782000.56505
           X            0.99932  -0.03674   0.00274
           Y            0.03679   0.99909  -0.02181
           Z           -0.00194   0.02189   0.99976
 This molecule is an asymmetric top.
 Rotational symmetry number  1.
 Warning -- assumption of classical behavior for rotation
           may cause significant error
 Rotational temperatures (Kelvin)      0.14566     0.05423     0.04329
 Rotational constants (GHZ):           3.03496     1.12987     0.90212
    1 imaginary frequencies ignored.
 Zero-point vibrational energy     279079.9 (Joules/Mol)
                                   66.70170 (Kcal/Mol)
 Warning -- explicit consideration of  12 degrees of freedom as
           vibrations may cause significant error
 Vibrational temperatures:     90.93   119.06   164.03   224.43   266.63
          (Kelvin)            300.83   309.81   391.28   412.30   611.86
                              771.52   853.29   910.36  1071.70  1113.23
                             1122.97  1168.69  1205.09  1294.26  1376.49
                             1572.93  1611.35  1650.47  1765.81  1828.99
                             1969.21  2028.53  2131.82  2134.25  2226.99
                             2657.25  3265.50  4402.50  4510.58  4519.92
                             4555.18  5019.42  5501.77

 Zero-point correction=                           0.106296 (Hartree/Particle)
 Thermal correction to Energy=                    0.116033
 Thermal correction to Enthalpy=                  0.116977
 Thermal correction to Gibbs Free Energy=         0.070470
 Sum of electronic and zero-point Energies=           -420.094587
 Sum of electronic and thermal Energies=              -420.084850
 Sum of electronic and thermal Enthalpies=            -420.083905
 Sum of electronic and thermal Free Energies=         -420.130413

                     E (Thermal)             CV                S
                      KCal/Mol        Cal/Mol-Kelvin    Cal/Mol-Kelvin
 Total                   72.812             33.135             97.884
 Electronic               0.000              0.000              1.377
 Translational            0.889              2.981             40.136
 Rotational               0.889              2.981             29.031
 Vibrational             71.035             27.173             27.339
 Vibration     1          0.597              1.972              4.355
 Vibration     2          0.600              1.961              3.825
 Vibration     3          0.607              1.938              3.200
 Vibration     4          0.620              1.896              2.598
 Vibration     5          0.631              1.860              2.274
 Vibration     6          0.642              1.827              2.052
 Vibration     7          0.645              1.818              1.998
 Vibration     8          0.675              1.725              1.584
 Vibration     9          0.684              1.699              1.494
 Vibration    10          0.787              1.415              0.874
 Vibration    11          0.891              1.170              0.573
 Vibration    12          0.951              1.047              0.462

 1\1\GINC-AJ\Freq\UM062X\6-311++G(d,p)\C5H7O3(2)\AAYUSH\23-Jun-2025\0\\
 # freq 6-311++g(d,p) m062x\\Title Card Required\\0,2\O,2.638365,1.7499
 13,-0.248191\H,1.83062,2.232773,-0.016963\C,-3.192825,1.028892,0.40334
 \H,-4.073269,1.575081,0.650283\C,-2.203295,0.413691,0.125449\C,-1.0353
 91,-0.375469,-0.228855\O,-1.078968,-1.47734,-0.694382\O,0.097334,0.296
 372,0.037027\C,1.314129,-0.37133,-0.280858\C,1.773678,-1.29283,0.81438
 8\H,2.128001,0.615442,-0.362839\H,1.262312,-0.814145,-1.275653\H,2.754
 628,-1.701498,0.57015\H,1.840216,-0.755753,1.761204\H,1.065872,-2.1211

 Normal termination of Gaussian 16 at Mon Jun 23 01:14:09 2025.
