 Gaussian 16, Revision A.03,
 Gaussian 16:  ES64L-G16RevA.03 25-Dec-2016

 --------------------------
 # freq 6-311++g(d,p) m062x
 --------------------------

 -------------------
 Title Card Required
 -------------------
 Symbolic Z-matrix:
 Charge =  0 Multiplicity = 2

                         Standard orientation:
 ---------------------------------------------------------------------
 Center     Atomic      Atomic             Coordinates (Angstroms)
 Number     Number       Type             X           Y           Z
 ---------------------------------------------------------------------
      1          8           0        2.639895    1.754715   -0.248431
      2          1           0        1.827764    2.232681   -0.017301
      3          6           0       -3.192859    1.028698    0.403122
      4          1           0       -4.073435    1.574678    0.649904
      5          6           0       -2.203194    0.413640    0.125404
      6          6           0       -1.034642   -0.375281   -0.228502
      7          8           0       -1.078418   -1.477363   -0.693909
      8          8           0        0.096804    0.297058    0.036930
      9          6           0        1.316256   -0.369762   -0.281605
     10          6           0        1.773668   -1.292569    0.814987
     11          1           0        2.103355    0.565782   -0.368768
     12          1           0        1.256803   -0.821400   -1.272267
     13          1           0        2.755225   -1.700135    0.570724
     14          1           0        1.841050   -0.754001    1.760921
     15          1           0        1.067613   -2.121241    0.919602
 ---------------------------------------------------------------------

 SCF Done:  E(UM062X) =  -420.199418459     A.U. after   19 cycles

 The electronic state is 2-A.
 Alpha  occ. eigenvalues --  -19.70221 -19.65292 -19.64741 -10.72198 -10.63478
 Alpha  occ. eigenvalues --  -10.58124 -10.57666 -10.55254  -1.27487  -1.18219
 Alpha  occ. eigenvalues --   -1.12394  -0.91917  -0.88282  -0.79683  -0.71960
 Alpha  occ. eigenvalues --   -0.66495  -0.62386  -0.60692  -0.58564  -0.57721
 Alpha  occ. eigenvalues --   -0.53253  -0.51075  -0.49992  -0.48011  -0.45961
 Alpha  occ. eigenvalues --   -0.41255  -0.40934  -0.40806  -0.38278  -0.37434
 Alpha  occ. eigenvalues --   -0.34923
 Alpha virt. eigenvalues --   -0.02799  -0.00517   0.00537   0.01469   0.01816
 Alpha virt. eigenvalues --    0.03142   0.03300   0.04616   0.05940   0.05989
 Alpha virt. eigenvalues --    0.06538   0.07346   0.07936   0.09356   0.10171

  Beta  occ. eigenvalues --  -19.70209 -19.64737 -19.64102 -10.72178 -10.63015
  Beta  occ. eigenvalues --  -10.58124 -10.57666 -10.55259  -1.27363  -1.18103
  Beta  occ. eigenvalues --   -1.07860  -0.91344  -0.87778  -0.79404  -0.70930
  Beta  occ. eigenvalues --   -0.65991  -0.62064  -0.59866  -0.57901  -0.55230
  Beta  occ. eigenvalues --   -0.51517  -0.50611  -0.48096  -0.46705  -0.43200
  Beta  occ. eigenvalues --   -0.40783  -0.40123  -0.38344  -0.38251  -0.37392
  Beta virt. eigenvalues --   -0.11081  -0.02746  -0.00412   0.00592   0.01684
  Beta virt. eigenvalues --    0.01953   0.03195   0.03344   0.04817   0.05999
  Beta virt. eigenvalues --    0.06066   0.06678   0.07465   0.07986   0.09510

 Mulliken charges and spin densities:
               1          2
     1  O   -0.372079   0.621953
     2  H    0.255611  -0.012187
     3  C   -0.558940   0.000611
     4  H    0.188827  -0.000000
     5  C    1.112722   0.003731
     6  C   -0.720871   0.007182
     7  O   -0.200183   0.001177
     8  O    0.004678  -0.011944
     9  C   -0.479330   0.417916
    10  C   -0.339793  -0.010988
    11  H    0.313386  -0.042134
    12  H    0.231717  -0.004570
    13  H    0.183283   0.000577
    14  H    0.187516   0.004354
    15  H    0.193455   0.024321
 Sum of Mulliken charges =  -0.00000   1.00000

 Dipole moment (field-independent basis, Debye):
    X=             -1.6641    Y=              0.5464    Z=              1.2601  Tot=              2.1577
 Quadrupole moment (field-independent basis, Debye-Ang):
   XX=            -46.5387   YY=            -48.5251   ZZ=            -48.0897
   XY=            -12.8633   XZ=             -1.7411   YZ=             -0.2959

  Exact polarizability:  95.346   0.049  84.762  -4.602   3.279  51.460
 Approx polarizability:  97.039  -5.520  97.030  -6.930   9.845  60.834

 ******    1 imaginary frequencies (negative Signs) ******

                      1                      2                      3
                      A                      A                      A
 Frequencies --  -1515.7449                63.7424                78.9265
 Red. masses --      1.1033                 6.7617                 4.9959
 Frc consts  --      1.4935                 0.0162                 0.0183
 IR Inten    --   1802.2928                 4.5985                 0.8393

                      4                      5                      6
                      A                      A                      A
 Frequencies --    104.7843               138.7635               174.9227
 Red. masses --      4.7867                 3.0562                 2.3906
 Frc consts  --      0.0310                 0.0347                 0.0431
 IR Inten    --      1.1435                 5.3202                 8.3017

                      7                      8                      9
                      A                      A                      A
 Frequencies --    205.8501               216.6575               271.0134
 Red. masses --      1.1082                 1.3482                 4.5114
 Frc consts  --      0.0277                 0.0373                 0.1952
 IR Inten    --     95.5879                 5.6944                 3.4592

                     10                     11                     12
                      A                      A                      A
 Frequencies --    289.7951               422.3168               547.7997
 Red. masses --      4.4725                 3.5919                 5.0314
 Frc consts  --      0.2213                 0.3774                 0.8896
 IR Inten    --      7.6845                 5.0967                 5.1055

                     13                     14                     15
                      A                      A                      A
 Frequencies --    599.4632               664.7909               744.2627
 Red. masses --      5.6857                 3.2085                 1.3155
 Frc consts  --      1.2038                 0.8355                 0.4293
 IR Inten    --     19.1698                12.0254                39.2264

                     16                     17                     18
                      A                      A                      A
 Frequencies --    773.9758               781.2507               826.7529
 Red. masses --      1.9298                 2.7532                 1.0736
 Frc consts  --      0.6811                 0.9901                 0.4324
 IR Inten    --      5.8419                58.7493                 7.4178

                     19                     20                     21
                      A                      A                      A
 Frequencies --    842.8117               899.5346               955.5483
 Red. masses --      1.4197                 2.6806                 3.7596
 Frc consts  --      0.5942                 1.2780                 2.0225
 IR Inten    --    391.6198                20.9496                 4.1814

                     22                     23                     24
                      A                      A                      A
 Frequencies --   1099.0165              1124.7504              1164.2070
 Red. masses --      3.0725                 2.1226                 1.6756
 Frc consts  --      2.1865                 1.5821                 1.3380
 IR Inten    --     31.0840                92.2478                11.2644

                     25                     26                     27
                      A                      A                      A
 Frequencies --   1270.2555              1276.7310              1369.1630
 Red. masses --      1.2072                 6.2308                 1.2194
 Frc consts  --      1.1476                 5.9840                 1.3468
 IR Inten    --    102.1775               647.2048                 1.8326

                     28                     29                     30
                      A                      A                      A
 Frequencies --   1411.0639              1482.4604              1486.3287
 Red. masses --      1.3245                 1.0476                 1.0383
 Frc consts  --      1.5537                 1.3565                 1.3515
 IR Inten    --     20.2516                 3.2966                 6.7173

                     31                     32                     33
                      A                      A                      A
 Frequencies --   1529.1945              1847.3476              2269.7025
 Red. masses --      1.0858                12.5918                 5.7437
 Frc consts  --      1.4959                25.3183                17.4332
 IR Inten    --     16.5346               336.6476                81.8763

                     34                     35                     36
                      A                      A                      A
 Frequencies --   3064.3806              3133.2911              3143.4701
 Red. masses --      1.0365                 1.0876                 1.0984
 Frc consts  --      5.7348                 6.2911                 6.3947
 IR Inten    --      1.9157                 5.7538                 3.0454

                     37                     38                     39
                      A                      A                      A
 Frequencies --   3164.6492              3488.9357              3809.8745
 Red. masses --      1.1024                 1.1714                 1.0668
 Frc consts  --      6.5048                 8.4010                 9.1230
 IR Inten    --      7.4704                62.8522                48.0318

 - Thermochemistry -
 -------------------
 Temperature   298.150 Kelvin.  Pressure   1.00000 Atm.
 Atom     1 has atomic number  8 and mass  15.99491

 Molecular mass:   115.03952 amu.
 Principal axes and moments of inertia in atomic units:
                           1         2         3
     Eigenvalues --   595.307421597.491442001.38217
           X            0.99930  -0.03722   0.00278
           Y            0.03727   0.99907  -0.02149
           Z           -0.00198   0.02158   0.99977
 This molecule is an asymmetric top.
 Rotational symmetry number  1.
 Warning -- assumption of classical behavior for rotation
           may cause significant error
 Rotational temperatures (Kelvin)      0.14549     0.05422     0.04328
 Rotational constants (GHZ):           3.03161     1.12973     0.90175
    1 imaginary frequencies ignored.
 Zero-point vibrational energy     279554.0 (Joules/Mol)
                                   66.81502 (Kcal/Mol)
 Warning -- explicit consideration of  12 degrees of freedom as
           vibrations may cause significant error
 Vibrational temperatures:     91.71   113.56   150.76   199.65   251.67
          (Kelvin)            296.17   311.72   389.93   416.95   607.62
                              788.16   862.49   956.49  1070.83  1113.58
                             1124.05  1189.51  1212.62  1294.23  1374.82
                             1581.24  1618.26  1675.03  1827.61  1836.93
                             1969.92  2030.21  2132.93  2138.50  2200.17
                             2657.92  3265.60  4408.96  4508.11  4522.75
                             4553.22  5019.80  5481.56

 Zero-point correction=                           0.106477 (Hartree/Particle)
 Thermal correction to Energy=                    0.116251
 Thermal correction to Enthalpy=                  0.117195
 Thermal correction to Gibbs Free Energy=         0.070461
 Sum of electronic and zero-point Energies=           -420.092942
 Sum of electronic and thermal Energies=              -420.083167
 Sum of electronic and thermal Enthalpies=            -420.082223
 Sum of electronic and thermal Free Energies=         -420.128958

                     E (Thermal)             CV                S
                      KCal/Mol        Cal/Mol-Kelvin    Cal/Mol-Kelvin
 Total                   72.949             33.001             98.361
 Electronic               0.000              0.000              1.377
 Translational            0.889              2.981             40.136
 Rotational               0.889              2.981             29.033
 Vibrational             71.171             27.039             27.815
 Vibration     1          0.597              1.972              4.338
 Vibration     2          0.600              1.963              3.917
 Vibration     3          0.605              1.945              3.363
 Vibration     4          0.614              1.915              2.821
 Vibration     5          0.627              1.873              2.382
 Vibration     6          0.640              1.832              2.080
 Vibration     7          0.645              1.816              1.987
 Vibration     8          0.675              1.727              1.590
 Vibration     9          0.686              1.693              1.475
 Vibration    10          0.785              1.422              0.884
 Vibration    11          0.903              1.144              0.549
 Vibration    12          0.958              1.033              0.451

 1\1\GINC-AJ\Freq\UM062X\6-311++G(d,p)\C5H7O3(2)\AAYUSH\16-Aug-2025\0\\
 # freq 6-311++g(d,p) m062x\\Title Card Required\\0,2\O,2.698474,1.7458
 46,-0.229127\H,1.886355,2.223833,0.002003\C,-3.134298,1.019976,0.42242
 6\H,-4.01486,1.565978,0.669208\C,-2.144649,0.404893,0.144708\C,-0.9761
 16,-0.384058,-0.209198\O,-1.01992,-1.486138,-0.674605\O,0.155346,0.288
 253,0.056234\C,1.374782,-0.378598,-0.262301\C,1.832171,-1.301416,0.834
 291\H,2.161904,0.556927,-0.349464\H,1.315317,-0.830234,-1.252963\H,2.8
 13717,-1.709007,0.590028\H,1.899566,-0.76285,1.780225\H,1.126095,-2.13

 Normal termination of Gaussian 16 at Sat Aug 16 14:59:26 2025.
