 Gaussian 16, Revision A.03,
 Gaussian 16:  ES64L-G16RevA.03 25-Dec-2016

 --------------------------
 # freq 6-311++g(d,p) m062x
 --------------------------

 -------------------
 Title Card Required
 -------------------
 Symbolic Z-matrix:
 Charge =  0 Multiplicity = 2

                         Standard orientation:
 ---------------------------------------------------------------------
 Center     Atomic      Atomic             Coordinates (Angstroms)
 Number     Number       Type             X           Y           Z
 ---------------------------------------------------------------------
      1          8           0        2.648715    1.771249   -0.246546
      2          1           0        1.823611    2.230860   -0.015499
      3          6           0       -3.191936    1.031874    0.403227
      4          1           0       -4.072249    1.578137    0.649913
      5          6           0       -2.202687    0.416087    0.125596
      6          6           0       -1.033175   -0.373232   -0.227612
      7          8           0       -1.079258   -1.475441   -0.693731
      8          8           0        0.095925    0.298933    0.036688
      9          6           0        1.317146   -0.376242   -0.285465
     10          6           0        1.770604   -1.296840    0.816676
     11          1           0        2.071652    0.462066   -0.400794
     12          1           0        1.228271   -0.857495   -1.259893
     13          1           0        2.753587   -1.701891    0.571895
     14          1           0        1.842539   -0.752660    1.759298
     15          1           0        1.069819   -2.126833    0.929261
 ---------------------------------------------------------------------

 SCF Done:  E(UM062X) =  -420.199426859     A.U. after   18 cycles

 The electronic state is 2-A.
 Alpha  occ. eigenvalues --  -19.69637 -19.67479 -19.64272 -10.71713 -10.61993
 Alpha  occ. eigenvalues --  -10.57819 -10.57384 -10.54546  -1.26901  -1.17660
 Alpha  occ. eigenvalues --   -1.13918  -0.91470  -0.87899  -0.79077  -0.71738
 Alpha  occ. eigenvalues --   -0.65874  -0.62138  -0.60309  -0.58179  -0.57259
 Alpha  occ. eigenvalues --   -0.54634  -0.50422  -0.50040  -0.47433  -0.45498
 Alpha  occ. eigenvalues --   -0.42849  -0.40839  -0.40347  -0.37983  -0.37288
 Alpha  occ. eigenvalues --   -0.37048
 Alpha virt. eigenvalues --   -0.02422  -0.00552   0.00626   0.01379   0.01916
 Alpha virt. eigenvalues --    0.03299   0.03482   0.04674   0.06020   0.06068
 Alpha virt. eigenvalues --    0.06606   0.07412   0.08113   0.09497   0.10283

  Beta  occ. eigenvalues --  -19.69639 -19.66055 -19.64268 -10.71703 -10.61696
  Beta  occ. eigenvalues --  -10.57818 -10.57384 -10.54549  -1.26840  -1.17580
  Beta  occ. eigenvalues --   -1.07838  -0.91082  -0.87548  -0.78914  -0.70925
  Beta  occ. eigenvalues --   -0.65598  -0.61833  -0.59501  -0.57485  -0.55274
  Beta  occ. eigenvalues --   -0.52089  -0.50207  -0.47684  -0.46226  -0.42712
  Beta  occ. eigenvalues --   -0.40377  -0.39826  -0.39375  -0.37975  -0.37073
  Beta virt. eigenvalues --   -0.11118  -0.02396  -0.00402   0.00680   0.01626
  Beta virt. eigenvalues --    0.02007   0.03336   0.03512   0.04852   0.06104
  Beta virt. eigenvalues --    0.06124   0.06695   0.07532   0.08156   0.09674

 Mulliken charges and spin densities:
               1          2
     1  O   -0.297546   0.796937
     2  H    0.259290  -0.017392
     3  C   -0.567826   0.000067
     4  H    0.187069  -0.000029
     5  C    1.113926   0.003885
     6  C   -0.720314   0.002946
     7  O   -0.202002   0.000995
     8  O   -0.004058  -0.006013
     9  C   -0.479399   0.240847
    10  C   -0.342095  -0.001283
    11  H    0.282933  -0.035030
    12  H    0.222935  -0.000636
    13  H    0.178372  -0.000117
    14  H    0.179385   0.001840
    15  H    0.189331   0.012982
 Sum of Mulliken charges =  -0.00000   1.00000

 Dipole moment (field-independent basis, Debye):
    X=             -1.1711    Y=              1.1928    Z=              1.1924  Tot=              2.0533
 Quadrupole moment (field-independent basis, Debye-Ang):
   XX=            -45.4169   YY=            -47.6246   ZZ=            -48.2807
   XY=            -11.0478   XZ=             -1.9293   YZ=             -0.3435

  Exact polarizability:  93.682  -1.621  82.257  -4.402   3.676  51.316
 Approx polarizability:  95.140  -7.850  92.442  -6.717  10.270  60.563

 ******    2 imaginary frequencies (negative Signs) ******

                      1                      2                      3
                      A                      A                      A
 Frequencies --   -523.6958               -56.7032                23.5162
 Red. masses --      2.1194                 4.2428                 5.5423
 Frc consts  --      0.3425                 0.0080                 0.0018
 IR Inten    --    373.6736                 1.6894                 5.9551

                      4                      5                      6
                      A                      A                      A
 Frequencies --     68.2737                91.7273               153.1566
 Red. masses --      3.6604                 4.1081                 3.3848
 Frc consts  --      0.0101                 0.0204                 0.0468
 IR Inten    --      4.1981                 2.2997                10.7854

                      7                      8                      9
                      A                      A                      A
 Frequencies --    209.9599               222.6656               269.3746
 Red. masses --      1.1028                 1.2518                 4.0806
 Frc consts  --      0.0286                 0.0366                 0.1745
 IR Inten    --    104.3054                 1.5373                 3.9357

                     10                     11                     12
                      A                      A                      A
 Frequencies --    302.0932               418.8162               558.8396
 Red. masses --      3.6094                 3.6948                 4.2073
 Frc consts  --      0.1941                 0.3818                 0.7742
 IR Inten    --     10.4572                 3.1424                 2.1988

                     13                     14                     15
                      A                      A                      A
 Frequencies --    603.3569               698.4728               742.6860
 Red. masses --      5.9977                 1.3369                 1.3159
 Frc consts  --      1.2864                 0.3843                 0.4277
 IR Inten    --      6.8816               113.7050                35.0260

                     16                     17                     18
                      A                      A                      A
 Frequencies --    772.9624               776.0214               784.7439
 Red. masses --      1.5185                 1.2210                 4.6195
 Frc consts  --      0.5345                 0.4332                 1.6761
 IR Inten    --     10.3552                57.9922                35.8644

                     19                     20                     21
                      A                      A                      A
 Frequencies --    895.9025               941.0492              1089.7666
 Red. masses --      3.0639                 2.8312                 3.5824
 Frc consts  --      1.4489                 1.4772                 2.5066
 IR Inten    --     18.3724                20.5492               103.0168

                     22                     23                     24
                      A                      A                      A
 Frequencies --   1128.0412              1163.1497              1278.4696
 Red. masses --      2.0882                 1.9596                 6.5639
 Frc consts  --      1.5656                 1.5621                 6.3211
 IR Inten    --     68.6227               114.1729               707.1698

                     25                     26                     27
                      A                      A                      A
 Frequencies --   1285.4991              1374.3800              1404.1355
 Red. masses --      1.2398                 1.2138                 1.1845
 Frc consts  --      1.2071                 1.3508                 1.3760
 IR Inten    --    265.2047                 1.1890                59.7743

                     28                     29                     30
                      A                      A                      A
 Frequencies --   1427.9103              1486.6108              1497.3228
 Red. masses --      1.2412                 1.0395                 1.0483
 Frc consts  --      1.4910                 1.3536                 1.3847
 IR Inten    --     83.9327                13.2015                 8.3890

                     31                     32                     33
                      A                      A                      A
 Frequencies --   1845.7003              1929.5507              2269.6082
 Red. masses --     11.3651                 1.1526                 5.7445
 Frc consts  --     22.8110                 2.5284                17.4342
 IR Inten    --    487.2266              1064.3745                76.9548

                     34                     35                     36
                      A                      A                      A
 Frequencies --   3070.7205              3130.5914              3150.2023
 Red. masses --      1.0347                 1.0861                 1.1025
 Frc consts  --      5.7485                 6.2716                 6.4462
 IR Inten    --      4.8298                 4.9332                 3.8725

                     37                     38                     39
                      A                      A                      A
 Frequencies --   3160.0164              3489.6256              3784.8550
 Red. masses --      1.1020                 1.1712                 1.0669
 Frc consts  --      6.4837                 8.4031                 9.0049
 IR Inten    --     10.1377                62.3460                37.4289

 - Thermochemistry -
 -------------------
 Temperature   298.150 Kelvin.  Pressure   1.00000 Atm.
 Atom     1 has atomic number  8 and mass  15.99491

 Molecular mass:   115.03952 amu.
 Principal axes and moments of inertia in atomic units:
                           1         2         3
     Eigenvalues --   599.367711598.859412006.48944
           X            0.99926  -0.03837   0.00282
           Y            0.03842   0.99904  -0.02120
           Z           -0.00200   0.02129   0.99977
 This molecule is an asymmetric top.
 Rotational symmetry number  1.
 Warning -- assumption of classical behavior for rotation
           may cause significant error
 Rotational temperatures (Kelvin)      0.14451     0.05417     0.04317
 Rotational constants (GHZ):           3.01108     1.12877     0.89945
    2 imaginary frequencies ignored.
 Zero-point vibrational energy     284111.7 (Joules/Mol)
                                   67.90434 (Kcal/Mol)
 Warning -- explicit consideration of  11 degrees of freedom as
           vibrations may cause significant error
 Vibrational temperatures:     33.83    98.23   131.98   220.36   302.09
          (Kelvin)            320.37   387.57   434.64   602.58   804.05
                              868.10  1004.95  1068.56  1112.12  1116.52
                             1129.07  1289.00  1353.96  1567.93  1623.00
                             1673.51  1839.43  1849.55  1977.43  2020.24
                             2054.44  2138.90  2154.31  2655.55  2776.19
                             3265.46  4418.08  4504.22  4532.44  4546.56
                             5020.79  5445.56

 Zero-point correction=                           0.108212 (Hartree/Particle)
 Thermal correction to Energy=                    0.117397
 Thermal correction to Enthalpy=                  0.118341
 Thermal correction to Gibbs Free Energy=         0.071780
 Sum of electronic and zero-point Energies=           -420.091214
 Sum of electronic and thermal Energies=              -420.082030
 Sum of electronic and thermal Enthalpies=            -420.081086
 Sum of electronic and thermal Free Energies=         -420.127647

                     E (Thermal)             CV                S
                      KCal/Mol        Cal/Mol-Kelvin    Cal/Mol-Kelvin
 Total                   73.668             30.575             97.996
 Electronic               0.000              0.000              1.377
 Translational            0.889              2.981             40.136
 Rotational               0.889              2.981             29.043
 Vibrational             71.890             24.614             27.440
 Vibration     1          0.593              1.985              6.313
 Vibration     2          0.598              1.969              4.203
 Vibration     3          0.602              1.955              3.623
 Vibration     4          0.619              1.899              2.633
 Vibration     5          0.642              1.826              2.044
 Vibration     6          0.648              1.807              1.937
 Vibration     7          0.674              1.730              1.600
 Vibration     8          0.694              1.670              1.405
 Vibration     9          0.782              1.429              0.896
 Vibration    10          0.914              1.120              0.526
 Vibration    11          0.962              1.025              0.444

 1\1\GINC-AJ\Freq\UM062X\6-311++G(d,p)\C5H7O3(2)\AAYUSH\23-Jun-2025\0\\
 # freq 6-311++g(d,p) m062x\\Title Card Required\\0,2\O,2.648715,1.7712
 49,-0.246546\H,1.823611,2.23086,-0.015499\C,-3.191936,1.031874,0.40322
 7\H,-4.072249,1.578137,0.649913\C,-2.202687,0.416087,0.125596\C,-1.033
 175,-0.373232,-0.227612\O,-1.079258,-1.475441,-0.693731\O,0.095925,0.2
 98933,0.036688\C,1.317146,-0.376242,-0.285465\C,1.770604,-1.29684,0.81
 6676\H,2.071652,0.462066,-0.400794\H,1.228271,-0.857495,-1.259893\H,2.
 753587,-1.701891,0.571895\H,1.842539,-0.75266,1.759298\H,1.069819,-2.1

 Normal termination of Gaussian 16 at Mon Jun 23 01:37:45 2025.
