 Gaussian 16, Revision A.03,
 Gaussian 16:  ES64L-G16RevA.03 25-Dec-2016

 -------------------
 # freq 6-31+g m062x
 -------------------

 -------------------
 Title Card Required
 -------------------
 Symbolic Z-matrix:
 Charge =  0 Multiplicity = 2

                         Standard orientation:
 ---------------------------------------------------------------------
 Center     Atomic      Atomic             Coordinates (Angstroms)
 Number     Number       Type             X           Y           Z
 ---------------------------------------------------------------------
      1          8           0        2.642657    1.760767   -0.247830
      2          1           0        1.825601    2.232326   -0.016733
      3          6           0       -3.192667    1.029321    0.403153
      4          1           0       -4.073240    1.575232    0.649911
      5          6           0       -2.203043    0.414183    0.125456
      6          6           0       -1.033921   -0.374690   -0.228189
      7          8           0       -1.078374   -1.476831   -0.693885
      8          8           0        0.096246    0.297826    0.036892
      9          6           0        1.317454   -0.370530   -0.282857
     10          6           0        1.772892   -1.293589    0.815459
     11          1           0        2.085695    0.519179   -0.378881
     12          1           0        1.247531   -0.833070   -1.267799
     13          1           0        2.755127   -1.699934    0.571026
     14          1           0        1.841766   -0.753202    1.760344
     15          1           0        1.068997   -2.122792    0.922583
 ---------------------------------------------------------------------

 SCF Done:  E(UM062X) =  -419.950967881     A.U. after   20 cycles

 The electronic state is 2-A.
 Alpha  occ. eigenvalues --  -19.72394 -19.69076 -19.67755 -10.74360 -10.63747
 Alpha  occ. eigenvalues --  -10.59596 -10.59265 -10.55683  -1.29608  -1.20336
 Alpha  occ. eigenvalues --   -1.14473  -0.92424  -0.88841  -0.79974  -0.72488
 Alpha  occ. eigenvalues --   -0.66499  -0.62569  -0.60679  -0.58999  -0.57678
 Alpha  occ. eigenvalues --   -0.53656  -0.51106  -0.50038  -0.47881  -0.45730
 Alpha  occ. eigenvalues --   -0.41916  -0.41078  -0.40489  -0.38449  -0.37696
 Alpha  occ. eigenvalues --   -0.36087
 Alpha virt. eigenvalues --   -0.02823   0.01736   0.02259   0.03264   0.03476
 Alpha virt. eigenvalues --    0.04190   0.04835   0.06235   0.07679   0.07918
 Alpha virt. eigenvalues --    0.08215   0.08658   0.09758   0.11012   0.12251

  Beta  occ. eigenvalues --  -19.72392 -19.67751 -19.67697 -10.74344 -10.63341
  Beta  occ. eigenvalues --  -10.59596 -10.59265 -10.55690  -1.29533  -1.20235
  Beta  occ. eigenvalues --   -1.09318  -0.91973  -0.88395  -0.79766  -0.71647
  Beta  occ. eigenvalues --   -0.66073  -0.62309  -0.59761  -0.58152  -0.55781
  Beta  occ. eigenvalues --   -0.51487  -0.50750  -0.48049  -0.46537  -0.42964
  Beta  occ. eigenvalues --   -0.40586  -0.39783  -0.38756  -0.38436  -0.37631
  Beta virt. eigenvalues --   -0.11377  -0.02783   0.01786   0.02357   0.03359
  Beta virt. eigenvalues --    0.03535   0.04317   0.04918   0.06277   0.07740
  Beta virt. eigenvalues --    0.08014   0.08294   0.08720   0.10023   0.11047

 Mulliken charges and spin densities:
               1          2
     1  O   -0.465576   0.743709
     2  H    0.409562  -0.025061
     3  C    0.240220   0.007497
     4  H    0.349778  -0.000017
     5  C    0.132944   0.000871
     6  C   -0.466001  -0.003807
     7  O   -0.329297   0.002928
     8  O   -0.265133  -0.012722
     9  C   -0.294348   0.363170
    10  C   -0.513173  -0.021868
    11  H    0.259012  -0.073014
    12  H    0.249160  -0.005649
    13  H    0.224518   0.000842
    14  H    0.231111   0.003608
    15  H    0.237223   0.019513
 Sum of Mulliken charges =  -0.00000   1.00000

 Dipole moment (field-independent basis, Debye):
    X=             -1.7192    Y=              0.9304    Z=              1.2478  Tot=              2.3191
 Quadrupole moment (field-independent basis, Debye-Ang):
   XX=            -47.3141   YY=            -48.6052   ZZ=            -48.6110
   XY=            -12.3429   XZ=             -1.7006   YZ=             -0.5470

  Exact polarizability:  90.992   0.596  81.225  -4.742   4.416  47.423
 Approx polarizability:  90.156  -6.374  89.277  -7.090  11.932  51.627

 ******    4 imaginary frequencies (negative Signs) ******

                      1                      2                      3
                      A                      A                      A
 Frequencies --   -925.8689              -459.7126              -124.0166
 Red. masses --      1.3761                 1.0574                 6.1504
 Frc consts  --      0.6950                 0.1317                 0.0557
 IR Inten    --   1298.5939               142.8100                18.4149

                      4                      5                      6
                      A                      A                      A
 Frequencies --   -105.6412                23.5600                72.3439
 Red. masses --      5.8811                 3.8880                 3.0651
 Frc consts  --      0.0387                 0.0013                 0.0095
 IR Inten    --     14.7956                 6.9843                 6.4160

                      7                      8                      9
                      A                      A                      A
 Frequencies --    100.4846               175.5973               249.7282
 Red. masses --      2.7930                 1.2454                 3.8939
 Frc consts  --      0.0166                 0.0226                 0.1431
 IR Inten    --     10.1346                 1.4799                 5.1349

                     10                     11                     12
                      A                      A                      A
 Frequencies --    271.0195               419.2735               562.3533
 Red. masses --      4.2863                 3.5753                 4.5037
 Frc consts  --      0.1855                 0.3703                 0.8391
 IR Inten    --      6.6535                 6.3144                 6.3540

                     13                     14                     15
                      A                      A                      A
 Frequencies --    593.1061               652.7922               779.2445
 Red. masses --      2.1212                 2.4581                 3.1665
 Frc consts  --      0.4396                 0.6172                 1.1329
 IR Inten    --     33.2435                99.1676                66.7123

                     16                     17                     18
                      A                      A                      A
 Frequencies --    803.8006               815.7532               872.9196
 Red. masses --      1.3866                 1.4351                 1.8901
 Frc consts  --      0.5278                 0.5626                 0.8486
 IR Inten    --     69.2495                76.5174                23.5756

                     19                     20                     21
                      A                      A                      A
 Frequencies --    899.9770               961.2517              1057.5069
 Red. masses --      3.3365                 2.5419                 2.1151
 Frc consts  --      1.5922                 1.3838                 1.3936
 IR Inten    --     24.2329                90.9292              1240.1690

                     22                     23                     24
                      A                      A                      A
 Frequencies --   1136.1130              1162.1269              1223.0352
 Red. masses --      3.1097                 2.1754                 1.5225
 Frc consts  --      2.3649                 1.7310                 1.3418
 IR Inten    --     93.4111                19.9937               100.7090

                     25                     26                     27
                      A                      A                      A
 Frequencies --   1324.7974              1355.4197              1398.1534
 Red. masses --      2.0144                 1.6746                 1.2619
 Frc consts  --      2.0830                 1.8127                 1.4534
 IR Inten    --    312.5625               240.6880                 2.6298

                     28                     29                     30
                      A                      A                      A
 Frequencies --   1451.2655              1518.8516              1524.1697
 Red. masses --      1.2421                 1.0478                 1.0438
 Frc consts  --      1.5414                 1.4242                 1.4287
 IR Inten    --     27.1594                10.7878                 6.8063

                     31                     32                     33
                      A                      A                      A
 Frequencies --   1566.9649              1913.6332              2333.1936
 Red. masses --      1.1352                12.5583                 5.5496
 Frc consts  --      1.6423                27.0955                17.7997
 IR Inten    --     43.0736               300.6096                79.9546

                     34                     35                     36
                      A                      A                      A
 Frequencies --   3099.6604              3165.6040              3183.5697
 Red. masses --      1.0351                 1.0849                 1.0993
 Frc consts  --      5.8594                 6.4058                 6.5645
 IR Inten    --      4.9356                 6.2185                 4.5413

                     37                     38                     39
                      A                      A                      A
 Frequencies --   3200.5231              3532.1629              3814.0187
 Red. masses --      1.1005                 1.1795                 1.0661
 Frc consts  --      6.6420                 8.6699                 9.1368
 IR Inten    --     10.7303                55.1636                21.3029

 - Thermochemistry -
 -------------------
 Temperature   298.150 Kelvin.  Pressure   1.00000 Atm.
 Atom     1 has atomic number  8 and mass  15.99491

 Molecular mass:   115.03952 amu.
 Principal axes and moments of inertia in atomic units:
                           1         2         3
     Eigenvalues --   596.557671597.906742002.96646
           X            0.99929  -0.03770   0.00280
           Y            0.03775   0.99906  -0.02142
           Z           -0.00199   0.02151   0.99977
 This molecule is an asymmetric top.
 Rotational symmetry number  1.
 Warning -- assumption of classical behavior for rotation
           may cause significant error
 Rotational temperatures (Kelvin)      0.14519     0.05420     0.04324
 Rotational constants (GHZ):           3.02526     1.12944     0.90103
    4 imaginary frequencies ignored.
 Zero-point vibrational energy     282402.3 (Joules/Mol)
                                   67.49577 (Kcal/Mol)
 Warning -- explicit consideration of   9 degrees of freedom as
           vibrations may cause significant error
 Vibrational temperatures:     33.90   104.09   144.57   252.65   359.30
          (Kelvin)            389.94   603.24   809.10   853.35   939.22
                             1121.16  1156.49  1173.69  1255.94  1294.87
                             1383.03  1521.52  1634.61  1672.04  1759.67
                             1906.09  1950.15  2011.63  2088.05  2185.29
                             2192.94  2254.51  2753.29  3356.95  4459.72
                             4554.60  4580.45  4604.84  5081.99  5487.52

 Zero-point correction=                           0.107561 (Hartree/Particle)
 Thermal correction to Energy=                    0.115647
 Thermal correction to Enthalpy=                  0.116591
 Thermal correction to Gibbs Free Energy=         0.072079
 Sum of electronic and zero-point Energies=           -419.843407
 Sum of electronic and thermal Energies=              -419.835321
 Sum of electronic and thermal Enthalpies=            -419.834377
 Sum of electronic and thermal Free Energies=         -419.878889

                     E (Thermal)             CV                S
                      KCal/Mol        Cal/Mol-Kelvin    Cal/Mol-Kelvin
 Total                   72.570             26.813             93.685
 Electronic               0.000              0.000              1.377
 Translational            0.889              2.981             40.136
 Rotational               0.889              2.981             29.036
 Vibrational             70.792             20.851             23.136
 Vibration     1          0.593              1.985              6.309
 Vibration     2          0.598              1.967              4.089
 Vibration     3          0.604              1.949              3.445
 Vibration     4          0.628              1.872              2.375
 Vibration     5          0.663              1.763              1.732
 Vibration     6          0.675              1.727              1.590
 Vibration     7          0.782              1.428              0.894
 Vibration     8          0.918              1.113              0.519
 Vibration     9          0.951              1.046              0.462

 Normal termination of Gaussian 16 at Fri Jun 20 12:42:39 2025.
