 Gaussian 16, Revision A.03,
 Gaussian 16:  ES64L-G16RevA.03 25-Dec-2016

 --------------------------
 # ccsd(t)/6-311++g(d,p) sp
 --------------------------

 -------------------
 Title Card Required
 -------------------
 Symbolic Z-matrix:
 Charge =  0 Multiplicity = 2

                         Standard orientation:
 ---------------------------------------------------------------------
 Center     Atomic      Atomic             Coordinates (Angstroms)
 Number     Number       Type             X           Y           Z
 ---------------------------------------------------------------------
      1          8           0        2.636084    1.739317   -0.247893
      2          1           0        1.839264    2.234001   -0.016531
      3          6           0       -3.192417    1.030759    0.403631
      4          1           0       -4.072312    1.577835    0.650812
      5          6           0       -2.203480    0.414720    0.125477
      6          6           0       -1.037291   -0.375513   -0.229491
      7          8           0       -1.081029   -1.477031   -0.695071
      8          8           0        0.098602    0.294764    0.037131
      9          6           0        1.307564   -0.378348   -0.279349
     10          6           0        1.772796   -1.294380    0.813436
     11          1           0        2.196712    0.737607   -0.352971
     12          1           0        1.272183   -0.801171   -1.282645
     13          1           0        2.752363   -1.705879    0.569352
     14          1           0        1.838064   -0.760111    1.762078
     15          1           0        1.061437   -2.122103    0.914331
 ---------------------------------------------------------------------

 SCF Done:  E(UHF) =  -417.967824558     A.U. after   28 cycles
 E2 =    -0.1295981500D+01 EUMP2 =    -0.41926380605793D+03
 CCSD(T)= -0.41935892889D+03

 The electronic state is 2-A.
 Alpha  occ. eigenvalues --  -20.64268 -20.58465 -20.56415 -11.44012 -11.34356
 Alpha  occ. eigenvalues --  -11.28271 -11.27410 -11.24734  -1.51078  -1.40931
 Alpha  occ. eigenvalues --   -1.34028  -1.10210  -1.06506  -0.95020  -0.86156
 Alpha  occ. eigenvalues --   -0.79654  -0.74694  -0.72776  -0.70428  -0.69268
 Alpha  occ. eigenvalues --   -0.63026  -0.60951  -0.59455  -0.57602  -0.55543
 Alpha  occ. eigenvalues --   -0.50927  -0.50242  -0.49854  -0.44156  -0.44133
 Alpha  occ. eigenvalues --   -0.42038
 Alpha virt. eigenvalues --    0.03320   0.04539   0.05906   0.06549   0.07007
 Alpha virt. eigenvalues --    0.07734   0.08854   0.09727   0.11208   0.11567
 Alpha virt. eigenvalues --    0.11662   0.13405   0.14026   0.15188   0.16128

  Beta  occ. eigenvalues --  -20.64292 -20.58465 -20.54729 -11.43898 -11.31921
  Beta  occ. eigenvalues --  -11.28264 -11.27416 -11.24862  -1.50733  -1.40665
  Beta  occ. eigenvalues --   -1.28728  -1.09092  -1.04258  -0.94356  -0.82980
  Beta  occ. eigenvalues --   -0.78257  -0.74223  -0.71684  -0.68602  -0.65291
  Beta  occ. eigenvalues --   -0.61615  -0.59532  -0.57042  -0.55934  -0.52792
  Beta  occ. eigenvalues --   -0.50485  -0.49511  -0.47941  -0.44130  -0.44090
  Beta virt. eigenvalues --    0.03318   0.04445   0.05608   0.05965   0.06849
  Beta virt. eigenvalues --    0.07252   0.07750   0.09025   0.09861   0.11521
  Beta virt. eigenvalues --    0.11675   0.11869   0.13464   0.14085   0.15216

 Mulliken charges and spin densities:
               1          2
     1  O   -0.503941   0.320200
     2  H    0.256574  -0.010525
     3  C   -0.604100   0.004059
     4  H    0.216545  -0.000207
     5  C    1.291370  -0.006975
     6  C   -0.755287   0.013172
     7  O   -0.273632  -0.000929
     8  O   -0.035604  -0.062141
     9  C   -0.387768   0.922442
    10  C   -0.299504  -0.090528
    11  H    0.348764  -0.113115
    12  H    0.224035  -0.041365
    13  H    0.160895   0.004874
    14  H    0.175866   0.010495
    15  H    0.185786   0.050542
 Sum of Mulliken charges =  -0.00000   1.00000

 Dipole moment (field-independent basis, Debye):
    X=             -2.3948    Y=              0.0080    Z=              1.3354  Tot=              2.7420
 Quadrupole moment (field-independent basis, Debye-Ang):
   XX=            -47.8577   YY=            -50.3460   ZZ=            -47.9292
   XY=            -15.8180   XZ=             -1.9788   YZ=             -0.2447

 3-0=-419.28232\MP4SDQ=-419.3064264\CCSD=-419.3039552\CCSD(T)=-419.3589
 Normal termination of Gaussian 16 at Tue Aug 19 12:09:03 2025.
