 Gaussian 16, Revision A.03,
 Gaussian 16:  ES64L-G16RevA.03 25-Dec-2016

 --------------------------
 # ccsd(t)/6-311++g(d,p) sp
 --------------------------

 -------------------
 Title Card Required
 -------------------
 Symbolic Z-matrix:
 Charge =  0 Multiplicity = 2

                         Standard orientation:
 ---------------------------------------------------------------------
 Center     Atomic      Atomic             Coordinates (Angstroms)
 Number     Number       Type             X           Y           Z
 ---------------------------------------------------------------------
      1          8           0        2.663924    1.793259   -0.242922
      2          1           0        1.822515    2.224295   -0.011876
      3          6           0       -3.189487    1.040319    0.403417
      4          1           0       -4.068786    1.588250    0.649843
      5          6           0       -2.201524    0.422299    0.126133
      6          6           0       -1.033008   -0.369110   -0.226452
      7          8           0       -1.083556   -1.471440   -0.692857
      8          8           0        0.097954    0.299669    0.035289
      9          6           0        1.311813   -0.397357   -0.292652
     10          6           0        1.764293   -1.306459    0.820448
     11          1           0        2.065889    0.392036   -0.454074
     12          1           0        1.184772   -0.913603   -1.244276
     13          1           0        2.746931   -1.713066    0.575476
     14          1           0        1.843317   -0.752147    1.756714
     15          1           0        1.066259   -2.135820    0.946741
 ---------------------------------------------------------------------

 SCF Done:  E(UHF) =  -417.983037542     A.U. after   28 cycles
 E2 =    -0.1267748271D+01 EUMP2 =    -0.41925078581316D+03
 CCSD(T)= -0.41935197788D+03

 The electronic state is 2-A.
 Alpha  occ. eigenvalues --  -20.64338 -20.62228 -20.56883 -11.42324 -11.29452
 Alpha  occ. eigenvalues --  -11.27275 -11.26538 -11.22509  -1.49007  -1.40461
 Alpha  occ. eigenvalues --   -1.38833  -1.08484  -1.04535  -0.92975  -0.84788
 Alpha  occ. eigenvalues --   -0.77340  -0.73938  -0.72017  -0.69631  -0.68649
 Alpha  occ. eigenvalues --   -0.66992  -0.61186  -0.58811  -0.56970  -0.55399
 Alpha  occ. eigenvalues --   -0.53863  -0.49564  -0.48770  -0.46556  -0.43224
 Alpha  occ. eigenvalues --   -0.43148
 Alpha virt. eigenvalues --    0.03488   0.04824   0.05867   0.06315   0.07934
 Alpha virt. eigenvalues --    0.08145   0.08905   0.10059   0.10921   0.11839
 Alpha virt. eigenvalues --    0.12194   0.13861   0.14679   0.15628   0.16572

  Beta  occ. eigenvalues --  -20.62260 -20.60293 -20.56879 -11.42316 -11.28948
  Beta  occ. eigenvalues --  -11.27274 -11.26539 -11.22537  -1.48983  -1.38908
  Beta  occ. eigenvalues --   -1.25211  -1.08282  -1.03971  -0.92871  -0.83708
  Beta  occ. eigenvalues --   -0.77174  -0.73466  -0.70281  -0.67099  -0.65758
  Beta  occ. eigenvalues --   -0.62458  -0.58729  -0.55492  -0.54269  -0.52010
  Beta  occ. eigenvalues --   -0.50223  -0.48976  -0.47137  -0.43220  -0.43151
  Beta virt. eigenvalues --    0.03463   0.04622   0.05359   0.06297   0.07654
  Beta virt. eigenvalues --    0.07973   0.08197   0.09345   0.10201   0.11057
  Beta virt. eigenvalues --    0.12166   0.12239   0.13980   0.14692   0.15744

 Mulliken charges and spin densities:
               1          2
     1  O   -0.230197   0.953717
     2  H    0.268014  -0.034551
     3  C   -0.638904   0.000271
     4  H    0.210360  -0.000052
     5  C    1.295758   0.001409
     6  C   -0.747923  -0.000491
     7  O   -0.278074   0.000806
     8  O   -0.075503  -0.006330
     9  C   -0.399772   0.151291
    10  C   -0.300987  -0.006084
    11  H    0.238252  -0.063014
    12  H    0.194382  -0.004478
    13  H    0.143949  -0.000010
    14  H    0.149326   0.002114
    15  H    0.171319   0.005403
 Sum of Mulliken charges =  -0.00000   1.00000

 Dipole moment (field-independent basis, Debye):
    X=             -0.7930    Y=              2.2281    Z=              1.1897  Tot=              2.6474
 Quadrupole moment (field-independent basis, Debye-Ang):
   XX=            -44.0301   YY=            -46.9665   ZZ=            -48.6262
   XY=             -9.5159   XZ=             -2.4387   YZ=             -0.4657

 P3-0=-419.2779557\MP4SDQ=-419.3005789\CCSD=-419.2992551\CCSD(T)=-419.3
 Normal termination of Gaussian 16 at Sat Jul  5 20:33:14 2025.
