 Gaussian 16, Revision A.03,
 Gaussian 16:  ES64L-G16RevA.03 25-Dec-2016

 --------------------------
 # freq 6-311++g(d,p) m062x
 --------------------------

 -------------------
 Title Card Required
 -------------------
 Symbolic Z-matrix:
 Charge =  0 Multiplicity = 2

                         Standard orientation:
 ---------------------------------------------------------------------
 Center     Atomic      Atomic             Coordinates (Angstroms)
 Number     Number       Type             X           Y           Z
 ---------------------------------------------------------------------
      1          8           0        2.635860    1.737400   -0.247790
      2          1           0        1.841429    2.234649   -0.016403
      3          6           0       -3.192285    1.031336    0.403686
      4          1           0       -4.072032    1.578641    0.650914
      5          6           0       -2.203507    0.415066    0.125481
      6          6           0       -1.037712   -0.375447   -0.229613
      7          8           0       -1.081550   -1.476898   -0.695200
      8          8           0        0.098900    0.294432    0.037144
      9          6           0        1.305888   -0.380319   -0.279040
     10          6           0        1.772513   -1.294799    0.813255
     11          1           0        2.211512    0.761186   -0.351657
     12          1           0        1.274124   -0.798576   -1.284086
     13          1           0        2.751792   -1.706926    0.569203
     14          1           0        1.837582   -0.761067    1.762268
     15          1           0        1.060526   -2.122400    0.913915
 ---------------------------------------------------------------------

 SCF Done:  E(UM062X) =  -420.212829226     A.U. after   16 cycles

 The electronic state is 2-A.
 Alpha  occ. eigenvalues --  -19.70903 -19.65240 -19.61982 -10.72726 -10.64222
 Alpha  occ. eigenvalues --  -10.58448 -10.57963 -10.55950  -1.28112  -1.18808
 Alpha  occ. eigenvalues --   -1.11836  -0.92263  -0.88610  -0.80245  -0.71864
 Alpha  occ. eigenvalues --   -0.67192  -0.62564  -0.61126  -0.59260  -0.58396
 Alpha  occ. eigenvalues --   -0.52839  -0.51756  -0.49279  -0.48382  -0.46393
 Alpha  occ. eigenvalues --   -0.41601  -0.41338  -0.38972  -0.38587  -0.37782
 Alpha  occ. eigenvalues --   -0.31596
 Alpha virt. eigenvalues --   -0.03215  -0.00534   0.00411   0.01492   0.01823
 Alpha virt. eigenvalues --    0.02936   0.03127   0.04548   0.05809   0.05916
 Alpha virt. eigenvalues --    0.06492   0.07319   0.07753   0.09208   0.10087

  Beta  occ. eigenvalues --  -19.70866 -19.65232 -19.61433 -10.72682 -10.63432
  Beta  occ. eigenvalues --  -10.58447 -10.57963 -10.55964  -1.27863  -1.18601
  Beta  occ. eigenvalues --   -1.09735  -0.91432  -0.87782  -0.79766  -0.70533
  Beta  occ. eigenvalues --   -0.66191  -0.62281  -0.60222  -0.58319  -0.56671
  Beta  occ. eigenvalues --   -0.51796  -0.50813  -0.48410  -0.47186  -0.44568
  Beta  occ. eigenvalues --   -0.41257  -0.41040  -0.38570  -0.37978  -0.37721
  Beta virt. eigenvalues --   -0.08598  -0.03088  -0.00465   0.00482   0.01635
  Beta virt. eigenvalues --    0.01985   0.03033   0.03189   0.04777   0.05877
  Beta virt. eigenvalues --    0.05969   0.06673   0.07409   0.07789   0.09315

 Mulliken charges and spin densities:
               1          2
     1  O   -0.474884   0.237930
     2  H    0.257691  -0.001179
     3  C   -0.553890   0.001696
     4  H    0.190666   0.000079
     5  C    1.122546   0.000602
     6  C   -0.730331   0.011764
     7  O   -0.196836   0.001507
     8  O    0.016496  -0.032511
     9  C   -0.466439   0.802177
    10  C   -0.331289  -0.034598
    11  H    0.346556  -0.029551
    12  H    0.237696  -0.016781
    13  H    0.187803   0.002985
    14  H    0.196626   0.008684
    15  H    0.197590   0.047198
 Sum of Mulliken charges =  -0.00000   1.00000

 Dipole moment (field-independent basis, Debye):
    X=             -2.1900    Y=             -0.1305    Z=              1.3095  Tot=              2.5550
 Quadrupole moment (field-independent basis, Debye-Ang):
   XX=            -47.8486   YY=            -49.6065   ZZ=            -47.8508
   XY=            -14.9231   XZ=             -1.6131   YZ=             -0.2397

  Exact polarizability:  91.434  -6.304  76.437  -4.038   3.847  51.612
 Approx polarizability:  94.725  -9.773  91.055  -6.844   9.859  61.057

 ******    1 imaginary frequencies (negative Signs) ******

                      1                      2                      3
                      A                      A                      A
 Frequencies --    -42.3657                18.9376                86.9186
 Red. masses --      4.4533                 7.4548                 4.1257
 Frc consts  --      0.0047                 0.0016                 0.0184
 IR Inten    --     10.3767                 4.7382                 4.1182

                      4                      5                      6
                      A                      A                      A
 Frequencies --    108.8610               140.2491               177.3244
 Red. masses --      4.4387                 3.1278                 1.5299
 Frc consts  --      0.0310                 0.0362                 0.0283
 IR Inten    --      3.1978                 5.3204                 5.1657

                      7                      8                      9
                      A                      A                      A
 Frequencies --    203.4999               218.0414               271.4494
 Red. masses --      1.8276                 1.1365                 4.9252
 Frc consts  --      0.0446                 0.0318                 0.2138
 IR Inten    --     11.8564                82.8970                 1.2971

                     10                     11                     12
                      A                      A                      A
 Frequencies --    354.9391               426.9697               555.8201
 Red. masses --      4.0430                 3.6708                 4.6164
 Frc consts  --      0.3001                 0.3943                 0.8403
 IR Inten    --     30.1288                 4.6325                 2.3085

                     13                     14                     15
                      A                      A                      A
 Frequencies --    611.8906               695.6504               743.7851
 Red. masses --      6.1958                 1.1186                 1.1856
 Frc consts  --      1.3668                 0.3189                 0.3864
 IR Inten    --      7.5623                92.4009                18.9140

                     16                     17                     18
                      A                      A                      A
 Frequencies --    746.0892               774.0460               780.6392
 Red. masses --      1.3091                 2.7360                 1.8372
 Frc consts  --      0.4293                 0.9658                 0.6596
 IR Inten    --     33.0133                 1.8049                51.2203

                     19                     20                     21
                      A                      A                      A
 Frequencies --    882.8334               893.5221               942.6854
 Red. masses --      1.9099                 1.3079                 5.7351
 Frc consts  --      0.8770                 0.6152                 3.0028
 IR Inten    --     31.6082                48.9020                 6.5905

                     22                     23                     24
                      A                      A                      A
 Frequencies --   1041.5434              1101.6804              1138.0530
 Red. masses --      1.5453                 3.7798                 1.8683
 Frc consts  --      0.9877                 2.7029                 1.4257
 IR Inten    --     54.6330                72.5633                22.3505

                     25                     26                     27
                      A                      A                      A
 Frequencies --   1254.9248              1365.8648              1405.5857
 Red. masses --      8.4866                 1.2324                 1.3253
 Frc consts  --      7.8744                 1.3546                 1.5427
 IR Inten    --    786.9533                 5.9882                22.8642

                     28                     29                     30
                      A                      A                      A
 Frequencies --   1463.2839              1476.6809              1484.5140
 Red. masses --      1.1661                 1.0413                 1.1153
 Frc consts  --      1.4712                 1.3378                 1.4481
 IR Inten    --     67.6034                 9.5403                 8.7940

                     31                     32                     33
                      A                      A                      A
 Frequencies --   1845.1695              1865.7709              2269.6459
 Red. masses --      8.6257                 1.1289                 5.7422
 Frc consts  --     17.3029                 2.3153                17.4278
 IR Inten    --    329.9897                15.3042                86.3190

                     34                     35                     36
                      A                      A                      A
 Frequencies --   3044.5695              3129.6849              3146.5992
 Red. masses --      1.0426                 1.0913                 1.0876
 Frc consts  --      5.6943                 6.2981                 6.3444
 IR Inten    --      0.3794                 3.0415                 6.5119

                     37                     38                     39
                      A                      A                      A
 Frequencies --   3167.7741              3488.1592              3867.5250
 Red. masses --      1.1016                 1.1715                 1.0653
 Frc consts  --      6.5128                 8.3983                 9.3885
 IR Inten    --      6.3449                63.4877                43.9291

 - Thermochemistry -
 -------------------
 Temperature   298.150 Kelvin.  Pressure   1.00000 Atm.
 Atom     1 has atomic number  8 and mass  15.99491

 Molecular mass:   115.03952 amu.
 Principal axes and moments of inertia in atomic units:
                           1         2         3
     Eigenvalues --   593.716041597.109781999.46135
           X            0.99937  -0.03530   0.00262
           Y            0.03535   0.99913  -0.02233
           Z           -0.00182   0.02240   0.99975
 This molecule is an asymmetric top.
 Rotational symmetry number  1.
 Warning -- assumption of classical behavior for rotation
           may cause significant error
 Rotational temperatures (Kelvin)      0.14588     0.05423     0.04332
 Rotational constants (GHZ):           3.03974     1.13000     0.90261
    1 imaginary frequencies ignored.
 Zero-point vibrational energy     282265.9 (Joules/Mol)
                                   67.46318 (Kcal/Mol)
 Warning -- explicit consideration of  12 degrees of freedom as
           vibrations may cause significant error
 Vibrational temperatures:     27.25   125.06   156.63   201.79   255.13
          (Kelvin)            292.79   313.71   390.56   510.68   614.31
                              799.70   880.37  1000.89  1070.14  1073.46
                             1113.68  1123.17  1270.20  1285.58  1356.31
                             1498.55  1585.07  1637.40  1805.56  1965.17
                             2022.32  2105.34  2124.61  2135.88  2654.79
                             2684.43  3265.51  4380.46  4502.92  4527.25
                             4557.72  5018.68  5564.51

 Zero-point correction=                           0.107509 (Hartree/Particle)
 Thermal correction to Energy=                    0.117265
 Thermal correction to Enthalpy=                  0.118209
 Thermal correction to Gibbs Free Energy=         0.070650
 Sum of electronic and zero-point Energies=           -420.105320
 Sum of electronic and thermal Energies=              -420.095565
 Sum of electronic and thermal Enthalpies=            -420.094620
 Sum of electronic and thermal Free Energies=         -420.142180

                     E (Thermal)             CV                S
                      KCal/Mol        Cal/Mol-Kelvin    Cal/Mol-Kelvin
 Total                   73.585             32.847            100.097
 Electronic               0.000              0.000              1.377
 Translational            0.889              2.981             40.136
 Rotational               0.889              2.981             29.029
 Vibrational             71.807             26.885             29.555
 Vibration     1          0.593              1.986              6.743
 Vibration     2          0.601              1.958              3.728
 Vibration     3          0.606              1.942              3.289
 Vibration     4          0.615              1.913              2.800
 Vibration     5          0.628              1.870              2.356
 Vibration     6          0.639              1.835              2.101
 Vibration     7          0.646              1.814              1.975
 Vibration     8          0.675              1.726              1.587
 Vibration     9          0.731              1.565              1.144
 Vibration    10          0.789              1.412              0.869
 Vibration    11          0.911              1.127              0.532
 Vibration    12          0.971              1.007              0.430

 1\1\GINC-AJ\Freq\UM062X\6-311++G(d,p)\C5H7O3(2)\AAYUSH\16-Aug-2025\0\\
 # freq 6-311++g(d,p) m062x\\Title Card Required\\0,2\O,2.692819,1.7343
 27,-0.230212\H,1.897649,2.23056,0.000821\C,-3.13418,1.019914,0.422411\
 H,-4.014741,1.566086,0.66925\C,-2.144487,0.404917,0.144644\C,-0.977517
 ,-0.384117,-0.209878\O,-1.019714,-1.486034,-0.674514\O,0.158094,0.2877
 28,0.056198\C,1.366083,-0.385449,-0.259518\C,1.834206,-1.298275,0.8335
 19\H,2.269954,0.757376,-0.3332\H,1.334867,-0.804618,-1.264201\H,2.8140
 91,-1.709114,0.589731\H,1.898545,-0.763628,1.782067\H,1.123494,-2.1268

 Normal termination of Gaussian 16 at Sat Aug 16 14:41:48 2025.
