 Gaussian 16, Revision A.03,
 Gaussian 16:  ES64L-G16RevA.03 25-Dec-2016

 --------------------------
 # ccsd(t)/6-311++g(d,p) sp
 --------------------------

 -------------------
 Title Card Required
 -------------------
 Symbolic Z-matrix:
 Charge =  0 Multiplicity = 2

                         Standard orientation:
 ---------------------------------------------------------------------
 Center     Atomic      Atomic             Coordinates (Angstroms)
 Number     Number       Type             X           Y           Z
 ---------------------------------------------------------------------
      1          8           0        2.658748    1.785958   -0.244246
      2          1           0        1.822782    2.226956   -0.013229
      3          6           0       -3.190366    1.037307    0.403352
      4          1           0       -4.070023    1.584631    0.649883
      5          6           0       -2.201967    0.420050    0.125919
      6          6           0       -1.032950   -0.370572   -0.226818
      7          8           0       -1.081899   -1.472855   -0.693217
      8          8           0        0.096981    0.299670    0.035912
      9          6           0        1.313849   -0.389762   -0.290058
     10          6           0        1.766434   -1.303141    0.819087
     11          1           0        2.067023    0.412011   -0.436143
     12          1           0        1.199101   -0.894907   -1.249290
     13          1           0        2.749434   -1.708622    0.574040
     14          1           0        1.843054   -0.752458    1.757664
     15          1           0        1.067992   -2.133085    0.940607
 ---------------------------------------------------------------------

 SCF Done:  E(UHF) =  -417.981184365     A.U. after   28 cycles
 E2 =    -0.1268791277D+01 EUMP2 =    -0.41924997564133D+03
 CCSD(T)= -0.41935137554D+03

 The electronic state is 2-A.
 Alpha  occ. eigenvalues --  -20.64294 -20.62220 -20.56892 -11.42329 -11.29526
 Alpha  occ. eigenvalues --  -11.27276 -11.26539 -11.22517  -1.49022  -1.40509
 Alpha  occ. eigenvalues --   -1.38853  -1.08501  -1.04556  -0.93009  -0.84831
 Alpha  occ. eigenvalues --   -0.77327  -0.74002  -0.72170  -0.69665  -0.68616
 Alpha  occ. eigenvalues --   -0.67004  -0.61103  -0.58836  -0.56943  -0.55403
 Alpha  occ. eigenvalues --   -0.53852  -0.49568  -0.48674  -0.46374  -0.43226
 Alpha  occ. eigenvalues --   -0.43150
 Alpha virt. eigenvalues --    0.03486   0.04821   0.05864   0.06319   0.07932
 Alpha virt. eigenvalues --    0.08147   0.08897   0.10061   0.10945   0.11839
 Alpha virt. eigenvalues --    0.12195   0.13859   0.14682   0.15628   0.16554

  Beta  occ. eigenvalues --  -20.62255 -20.60268 -20.56888 -11.42319 -11.28966
  Beta  occ. eigenvalues --  -11.27275 -11.26540 -11.22547  -1.48993  -1.38931
  Beta  occ. eigenvalues --   -1.25387  -1.08278  -1.03935  -0.92894  -0.83656
  Beta  occ. eigenvalues --   -0.77143  -0.73460  -0.70284  -0.67109  -0.65868
  Beta  occ. eigenvalues --   -0.62348  -0.58740  -0.55481  -0.54269  -0.52025
  Beta  occ. eigenvalues --   -0.50229  -0.48930  -0.47097  -0.43222  -0.43153
  Beta virt. eigenvalues --    0.03460   0.04600   0.05360   0.06302   0.07602
  Beta virt. eigenvalues --    0.07971   0.08201   0.09309   0.10208   0.11105
  Beta virt. eigenvalues --    0.12162   0.12238   0.13971   0.14695   0.15744

 Mulliken charges and spin densities:
               1          2
     1  O   -0.233745   0.944282
     2  H    0.268090  -0.034154
     3  C   -0.634194   0.000329
     4  H    0.210589  -0.000053
     5  C    1.289824   0.001220
     6  C   -0.746759  -0.000079
     7  O   -0.278581   0.000780
     8  O   -0.075953  -0.007858
     9  C   -0.397855   0.170449
    10  C   -0.303089  -0.008488
    11  H    0.242124  -0.069623
    12  H    0.193994  -0.005585
    13  H    0.144290   0.000123
    14  H    0.149580   0.002374
    15  H    0.171682   0.006283
 Sum of Mulliken charges =  -0.00000   1.00000

 Dipole moment (field-independent basis, Debye):
    X=             -0.7945    Y=              2.2352    Z=              1.1951  Tot=              2.6563
 Quadrupole moment (field-independent basis, Debye-Ang):
   XX=            -43.9993   YY=            -46.9759   ZZ=            -48.6219
   XY=             -9.4947   XZ=             -2.4248   YZ=             -0.4800

 3-0=-419.2770348\MP4SDQ=-419.2996956\CCSD=-419.2984975\CCSD(T)=-419.35
 Normal termination of Gaussian 16 at Fri Jul  4 12:37:17 2025.
