 Gaussian 16, Revision A.03,
 Gaussian 16:  ES64L-G16RevA.03 25-Dec-2016

 --------------------------
 # freq 6-311++g(d,p) m062x
 --------------------------

 -------------------
 Title Card Required
 -------------------
 Symbolic Z-matrix:
 Charge =  0 Multiplicity = 2

                         Standard orientation:
 ---------------------------------------------------------------------
 Center     Atomic      Atomic             Coordinates (Angstroms)
 Number     Number       Type             X           Y           Z
 ---------------------------------------------------------------------
      1          8           0        2.666537    1.796938   -0.242223
      2          1           0        1.822443    2.222907   -0.011173
      3          6           0       -3.189035    1.041868    0.403447
      4          1           0       -4.068150    1.590109    0.649812
      5          6           0       -2.201280    0.423473    0.126252
      6          6           0       -1.033056   -0.368366   -0.226273
      7          8           0       -1.084465   -1.470727   -0.692646
      8          8           0        0.098511    0.299570    0.034907
      9          6           0        1.310852   -0.401196   -0.294038
     10          6           0        1.763220   -1.308134    0.821151
     11          1           0        2.064526    0.381836   -0.462574
     12          1           0        1.178011   -0.922545   -1.241887
     13          1           0        2.745612   -1.715484    0.576268
     14          1           0        1.843469   -0.751920    1.756197
     15          1           0        1.065219   -2.137022    0.949837
 ---------------------------------------------------------------------

 SCF Done:  E(UM062X) =  -420.201253561     A.U. after   21 cycles

 The electronic state is 2-A.
 Alpha  occ. eigenvalues --  -19.69388 -19.68587 -19.64044 -10.71480 -10.61152
 Alpha  occ. eigenvalues --  -10.57683 -10.57258 -10.54175  -1.26596  -1.17346
 Alpha  occ. eigenvalues --   -1.14664  -0.91168  -0.87660  -0.78700  -0.71453
 Alpha  occ. eigenvalues --   -0.65612  -0.61940  -0.59916  -0.57836  -0.57032
 Alpha  occ. eigenvalues --   -0.55347  -0.50147  -0.49965  -0.47193  -0.45316
 Alpha  occ. eigenvalues --   -0.43765  -0.40843  -0.40207  -0.38387  -0.37845
 Alpha  occ. eigenvalues --   -0.36941
 Alpha virt. eigenvalues --   -0.02253  -0.00595   0.00655   0.01344   0.01967
 Alpha virt. eigenvalues --    0.03366   0.03561   0.04713   0.06010   0.06124
 Alpha virt. eigenvalues --    0.06644   0.07415   0.08187   0.09567   0.10367

  Beta  occ. eigenvalues --  -19.69394 -19.67074 -19.64040 -10.71475 -10.60953
  Beta  occ. eigenvalues --  -10.57683 -10.57258 -10.54178  -1.26564  -1.17283
  Beta  occ. eigenvalues --   -1.07570  -0.90918  -0.87414  -0.78604  -0.70861
  Beta  occ. eigenvalues --   -0.65444  -0.61728  -0.59299  -0.57244  -0.55048
  Beta  occ. eigenvalues --   -0.52658  -0.49893  -0.47493  -0.45957  -0.42413
  Beta  occ. eigenvalues --   -0.40412  -0.40189  -0.39364  -0.37841  -0.36930
  Beta virt. eigenvalues --   -0.10699  -0.02238  -0.00412   0.00711   0.01598
  Beta virt. eigenvalues --    0.02050   0.03391   0.03583   0.04887   0.06083
  Beta virt. eigenvalues --    0.06180   0.06702   0.07538   0.08225   0.09751

 Mulliken charges and spin densities:
               1          2
     1  O   -0.259311   0.883237
     2  H    0.263145  -0.018338
     3  C   -0.582277  -0.000106
     4  H    0.185861  -0.000032
     5  C    1.128707   0.003480
     6  C   -0.722915   0.000243
     7  O   -0.202103   0.001021
     8  O   -0.005940  -0.003351
     9  C   -0.475220   0.155672
    10  C   -0.338407   0.002659
    11  H    0.253290  -0.032946
    12  H    0.218557   0.001267
    13  H    0.175165  -0.000564
    14  H    0.175410   0.000623
    15  H    0.186038   0.007136
 Sum of Mulliken charges =  -0.00000   1.00000

 Dipole moment (field-independent basis, Debye):
    X=             -0.9486    Y=              1.4898    Z=              1.1463  Tot=              2.1055
 Quadrupole moment (field-independent basis, Debye-Ang):
   XX=            -44.9985   YY=            -47.1811   ZZ=            -48.3898
   XY=            -10.2434   XZ=             -2.0501   YZ=             -0.3235

  Exact polarizability:  90.860  -5.681  76.336  -3.993   4.275  51.218
 Approx polarizability:  93.604 -10.211  88.134  -6.520  10.606  60.412

 ******    2 imaginary frequencies (negative Signs) ******

                      1                      2                      3
                      A                      A                      A
 Frequencies --   -178.2626              -104.8026                53.3660
 Red. masses --      2.4154                 4.3619                 4.7200
 Frc consts  --      0.0452                 0.0282                 0.0079
 IR Inten    --      9.5896                 1.0182                 4.3190

                      4                      5                      6
                      A                      A                      A
 Frequencies --     68.0721               102.4492               148.4502
 Red. masses --      5.1368                 5.4251                 3.6553
 Frc consts  --      0.0140                 0.0335                 0.0475
 IR Inten    --      7.9827                11.5634                 9.5255

                      7                      8                      9
                      A                      A                      A
 Frequencies --    218.6472               225.7664               270.1814
 Red. masses --      1.0840                 1.2364                 4.1464
 Frc consts  --      0.0305                 0.0371                 0.1783
 IR Inten    --    108.2509                 1.6588                 2.7221

                     10                     11                     12
                      A                      A                      A
 Frequencies --    329.0249               420.3704               560.1091
 Red. masses --      2.9991                 3.7980                 3.6769
 Frc consts  --      0.1913                 0.3954                 0.6796
 IR Inten    --     11.5323                 2.5969                 5.0019

                     13                     14                     15
                      A                      A                      A
 Frequencies --    594.7381               625.6644               742.0687
 Red. masses --      2.3622                 1.8186                 1.3117
 Frc consts  --      0.4923                 0.4194                 0.4256
 IR Inten    --     45.5851               152.3312                37.2416

                     16                     17                     18
                      A                      A                      A
 Frequencies --    753.6166               772.8805               786.3264
 Red. masses --      1.2753                 1.4061                 6.2629
 Frc consts  --      0.4267                 0.4949                 2.2815
 IR Inten    --     11.1222                23.7595                38.2176

                     19                     20                     21
                      A                      A                      A
 Frequencies --    894.0158               935.8488              1088.1846
 Red. masses --      3.2209                 2.7923                 3.6618
 Frc consts  --      1.5168                 1.4408                 2.5548
 IR Inten    --     11.5601                 3.6344                49.1039

                     22                     23                     24
                      A                      A                      A
 Frequencies --   1129.2399              1173.7623              1273.1423
 Red. masses --      2.0878                 1.8542                 3.6068
 Frc consts  --      1.5686                 1.5051                 3.4445
 IR Inten    --     32.0929                33.2159               569.4716

                     25                     26                     27
                      A                      A                      A
 Frequencies --   1316.5480              1384.2757              1419.3723
 Red. masses --      1.3792                 1.2328                 1.3547
 Frc consts  --      1.4085                 1.3918                 1.6080
 IR Inten    --    217.5398                 4.4572                13.1631

                     28                     29                     30
                      A                      A                      A
 Frequencies --   1468.0577              1489.2478              1504.2366
 Red. masses --      1.1005                 1.0407                 1.0608
 Frc consts  --      1.3974                 1.3599                 1.4142
 IR Inten    --     20.9637                11.8738                11.7259

                     31                     32                     33
                      A                      A                      A
 Frequencies --   1845.3673              2269.5051              2656.4283
 Red. masses --     12.2698                 5.7461                 1.0928
 Frc consts  --     24.6180                17.4377                 4.5434
 IR Inten    --    343.1497                74.6521               660.3554

                     34                     35                     36
                      A                      A                      A
 Frequencies --   3072.5678              3132.3882              3153.1542
 Red. masses --      1.0346                 1.0871                 1.1024
 Frc consts  --      5.7548                 6.2844                 6.4575
 IR Inten    --      6.7932                 3.6209                 9.2124

                     37                     38                     39
                      A                      A                      A
 Frequencies --   3158.6050              3489.9611              3773.2425
 Red. masses --      1.1025                 1.1711                 1.0670
 Frc consts  --      6.4806                 8.4041                 8.9504
 IR Inten    --     10.2640                62.1860                34.0263

 - Thermochemistry -
 -------------------
 Temperature   298.150 Kelvin.  Pressure   1.00000 Atm.
 Atom     1 has atomic number  8 and mass  15.99491

 Molecular mass:   115.03952 amu.
 Principal axes and moments of inertia in atomic units:
                           1         2         3
     Eigenvalues --   607.773751601.766182016.88025
           X            0.99921  -0.03964   0.00273
           Y            0.03969   0.99900  -0.02045
           Z           -0.00192   0.02055   0.99979
 This molecule is an asymmetric top.
 Rotational symmetry number  1.
 Warning -- assumption of classical behavior for rotation
           may cause significant error
 Rotational temperatures (Kelvin)      0.14251     0.05407     0.04294
 Rotational constants (GHZ):           2.96943     1.12672     0.89482
    2 imaginary frequencies ignored.
 Zero-point vibrational energy     288891.5 (Joules/Mol)
                                   69.04672 (Kcal/Mol)
 Warning -- explicit consideration of  11 degrees of freedom as
           vibrations may cause significant error
 Vibrational temperatures:     76.78    97.94   147.40   213.59   314.58
          (Kelvin)            324.83   388.73   473.39   604.82   805.87
                              855.70   900.19  1067.67  1084.29  1112.00
                             1131.35  1286.29  1346.48  1565.65  1624.72
                             1688.78  1831.77  1894.22  1991.66  2042.16
                             2112.21  2142.70  2164.26  2655.07  3265.31
                             3822.01  4420.74  4506.81  4536.69  4544.53
                             5021.28  5428.85

 Zero-point correction=                           0.110033 (Hartree/Particle)
 Thermal correction to Energy=                    0.119130
 Thermal correction to Enthalpy=                  0.120074
 Thermal correction to Gibbs Free Energy=         0.074405
 Sum of electronic and zero-point Energies=           -420.091221
 Sum of electronic and thermal Energies=              -420.082124
 Sum of electronic and thermal Enthalpies=            -420.081180
 Sum of electronic and thermal Free Energies=         -420.126848

                     E (Thermal)             CV                S
                      KCal/Mol        Cal/Mol-Kelvin    Cal/Mol-Kelvin
 Total                   74.755             30.639             96.117
 Electronic               0.000              0.000              1.377
 Translational            0.889              2.981             40.136
 Rotational               0.889              2.981             29.064
 Vibrational             72.978             24.678             25.540
 Vibration     1          0.596              1.976              4.689
 Vibration     2          0.598              1.969              4.208
 Vibration     3          0.605              1.947              3.407
 Vibration     4          0.618              1.904              2.692
 Vibration     5          0.646              1.813              1.970
 Vibration     6          0.650              1.802              1.912
 Vibration     7          0.674              1.728              1.595
 Vibration     8          0.712              1.618              1.265
 Vibration     9          0.783              1.426              0.891
 Vibration    10          0.916              1.118              0.524
 Vibration    11          0.952              1.043              0.459

 1\1\GINC-AJ\Freq\UM062X\6-311++G(d,p)\C5H7O3(2)\AAYUSH\23-Jun-2025\0\\
 # freq 6-311++g(d,p) m062x\\Title Card Required\\0,2\O,2.666537,1.7969
 38,-0.242223\H,1.822443,2.222907,-0.011173\C,-3.189035,1.041868,0.4034
 47\H,-4.06815,1.590109,0.649812\C,-2.20128,0.423473,0.126252\C,-1.0330
 56,-0.368366,-0.226273\O,-1.084465,-1.470727,-0.692646\O,0.098511,0.29
 957,0.034907\C,1.310852,-0.401196,-0.294038\C,1.76322,-1.308134,0.8211
 51\H,2.064526,0.381836,-0.462574\H,1.178011,-0.922545,-1.241887\H,2.74
 5612,-1.715484,0.576268\H,1.843469,-0.75192,1.756197\H,1.065219,-2.137

 Normal termination of Gaussian 16 at Mon Jun 23 01:28:20 2025.
