 Gaussian 16, Revision A.03,
 Gaussian 16:  ES64L-G16RevA.03 25-Dec-2016

 --------------------------
 # ccsd(t)/6-311++g(d,p) sp
 --------------------------

 -------------------
 Title Card Required
 -------------------
 Symbolic Z-matrix:
 Charge =  0 Multiplicity = 2

                         Standard orientation:
 ---------------------------------------------------------------------
 Center     Atomic      Atomic             Coordinates (Angstroms)
 Number     Number       Type             X           Y           Z
 ---------------------------------------------------------------------
      1          8           0        2.661338    1.789629   -0.243601
      2          1           0        1.822660    2.225712   -0.012583
      3          6           0       -3.189932    1.038794    0.403382
      4          1           0       -4.069409    1.586419    0.649863
      5          6           0       -2.201753    0.421153    0.126021
      6          6           0       -1.032966   -0.369854   -0.226631
      7          8           0       -1.082702   -1.472160   -0.693043
      8          8           0        0.097431    0.299697    0.035619
      9          6           0        1.312885   -0.393481   -0.291341
     10          6           0        1.765361   -1.304800    0.819756
     11          1           0        2.066068    0.401374   -0.444957
     12          1           0        1.192008   -0.904133   -1.246783
     13          1           0        2.748217   -1.710756    0.574726
     14          1           0        1.843173   -0.752337    1.757206
     15          1           0        1.067183   -2.134484    0.943606
 ---------------------------------------------------------------------

 SCF Done:  E(UHF) =  -417.982184351     A.U. after   28 cycles
 E2 =    -0.1268209933D+01 EUMP2 =    -0.41925039428396D+03
 CCSD(T)= -0.41935167874D+03

 The electronic state is 2-A.
 Alpha  occ. eigenvalues --  -20.64320 -20.62222 -20.56886 -11.42325 -11.29477
 Alpha  occ. eigenvalues --  -11.27274 -11.26537 -11.22511  -1.49013  -1.40487
 Alpha  occ. eigenvalues --   -1.38842  -1.08492  -1.04547  -0.92991  -0.84813
 Alpha  occ. eigenvalues --   -0.77331  -0.73968  -0.72092  -0.69648  -0.68637
 Alpha  occ. eigenvalues --   -0.66997  -0.61148  -0.58823  -0.56961  -0.55399
 Alpha  occ. eigenvalues --   -0.53858  -0.49567  -0.48723  -0.46477  -0.43223
 Alpha  occ. eigenvalues --   -0.43148
 Alpha virt. eigenvalues --    0.03487   0.04823   0.05865   0.06317   0.07934
 Alpha virt. eigenvalues --    0.08147   0.08901   0.10060   0.10933   0.11840
 Alpha virt. eigenvalues --    0.12195   0.13860   0.14681   0.15629   0.16563

  Beta  occ. eigenvalues --  -20.62256 -20.60284 -20.56882 -11.42316 -11.28948
  Beta  occ. eigenvalues --  -11.27273 -11.26539 -11.22540  -1.48986  -1.38918
  Beta  occ. eigenvalues --   -1.25295  -1.08280  -1.03957  -0.92882  -0.83688
  Beta  occ. eigenvalues --   -0.77158  -0.73463  -0.70282  -0.67102  -0.65814
  Beta  occ. eigenvalues --   -0.62411  -0.58734  -0.55485  -0.54269  -0.52019
  Beta  occ. eigenvalues --   -0.50229  -0.48953  -0.47119  -0.43220  -0.43151
  Beta virt. eigenvalues --    0.03461   0.04611   0.05360   0.06300   0.07630
  Beta virt. eigenvalues --    0.07973   0.08200   0.09328   0.10205   0.11081
  Beta virt. eigenvalues --    0.12164   0.12239   0.13976   0.14694   0.15745

 Mulliken charges and spin densities:
               1          2
     1  O   -0.231799   0.949469
     2  H    0.268044  -0.034374
     3  C   -0.636524   0.000294
     4  H    0.210467  -0.000052
     5  C    1.292668   0.001330
     6  C   -0.747344  -0.000306
     7  O   -0.278335   0.000794
     8  O   -0.075908  -0.007004
     9  C   -0.398496   0.159795
    10  C   -0.302164  -0.007149
    11  H    0.240263  -0.065892
    12  H    0.194098  -0.004980
    13  H    0.144102   0.000051
    14  H    0.149420   0.002231
    15  H    0.171508   0.005794
 Sum of Mulliken charges =  -0.00000   1.00000

 Dipole moment (field-independent basis, Debye):
    X=             -0.7919    Y=              2.2336    Z=              1.1921  Tot=              2.6528
 Quadrupole moment (field-independent basis, Debye-Ang):
   XX=            -44.0109   YY=            -46.9685   ZZ=            -48.6242
   XY=             -9.4996   XZ=             -2.4324   YZ=             -0.4733

 P3-0=-419.2775146\MP4SDQ=-419.3001546\CCSD=-419.2988876\CCSD(T)=-419.3
 Normal termination of Gaussian 16 at Sat Jul  5 16:47:32 2025.
