 Gaussian 16, Revision A.03,
 Gaussian 16:  ES64L-G16RevA.03 25-Dec-2016

 -------------------
 # freq 6-31+g m062x
 -------------------

 -------------------
 Title Card Required
 -------------------
 Symbolic Z-matrix:
 Charge =  0 Multiplicity = 2

                         Standard orientation:
 ---------------------------------------------------------------------
 Center     Atomic      Atomic             Coordinates (Angstroms)
 Number     Number       Type             X           Y           Z
 ---------------------------------------------------------------------
      1          8           0        2.638365    1.749913   -0.248191
      2          1           0        1.830620    2.232773   -0.016963
      3          6           0       -3.192825    1.028892    0.403340
      4          1           0       -4.073269    1.575081    0.650283
      5          6           0       -2.203295    0.413691    0.125449
      6          6           0       -1.035391   -0.375469   -0.228855
      7          8           0       -1.078968   -1.477340   -0.694382
      8          8           0        0.097334    0.296372    0.037027
      9          6           0        1.314129   -0.371330   -0.280858
     10          6           0        1.773678   -1.292830    0.814388
     11          1           0        2.128001    0.615442   -0.362839
     12          1           0        1.262312   -0.814145   -1.275653
     13          1           0        2.754628   -1.701498    0.570150
     14          1           0        1.840216   -0.755753    1.761204
     15          1           0        1.065872   -2.121180    0.917398
 ---------------------------------------------------------------------

 SCF Done:  E(UM062X) =  -419.950297492     A.U. after   19 cycles

 The electronic state is 2-A.
 Alpha  occ. eigenvalues --  -19.72962 -19.68201 -19.67093 -10.74820 -10.64930
 Alpha  occ. eigenvalues --  -10.59873 -10.59528 -10.56307  -1.30154  -1.20877
 Alpha  occ. eigenvalues --   -1.13393  -0.92806  -0.89175  -0.80517  -0.72618
 Alpha  occ. eigenvalues --   -0.67108  -0.62776  -0.61018  -0.59427  -0.58152
 Alpha  occ. eigenvalues --   -0.52794  -0.51736  -0.49734  -0.48392  -0.46129
 Alpha  occ. eigenvalues --   -0.41418  -0.40985  -0.40311  -0.38720  -0.37994
 Alpha  occ. eigenvalues --   -0.33880
 Alpha virt. eigenvalues --   -0.03186   0.01652   0.02175   0.03112   0.03281
 Alpha virt. eigenvalues --    0.04115   0.04776   0.06097   0.07556   0.07842
 Alpha virt. eigenvalues --    0.08077   0.08557   0.09720   0.10798   0.12142

  Beta  occ. eigenvalues --  -19.72946 -19.68195 -19.65992 -10.74792 -10.64350
  Beta  occ. eigenvalues --  -10.59872 -10.59528 -10.56319  -1.30023  -1.20724
  Beta  occ. eigenvalues --   -1.09583  -0.92198  -0.88580  -0.80194  -0.71635
  Beta  occ. eigenvalues --   -0.66415  -0.62522  -0.60122  -0.58499  -0.56014
  Beta  occ. eigenvalues --   -0.51476  -0.51017  -0.48361  -0.46917  -0.43308
  Beta  occ. eigenvalues --   -0.40972  -0.40241  -0.38705  -0.38043  -0.37856
  Beta virt. eigenvalues --   -0.11111  -0.03113   0.01682   0.02238   0.03212
  Beta virt. eigenvalues --    0.03351   0.04195   0.04859   0.06134   0.07596
  Beta virt. eigenvalues --    0.07897   0.08164   0.08611   0.09950   0.10834

 Mulliken charges and spin densities:
               1          2
     1  O   -0.544666   0.561166
     2  H    0.410056  -0.016681
     3  C    0.237395   0.009508
     4  H    0.351081  -0.000022
     5  C    0.134344   0.002155
     6  C   -0.464610  -0.002472
     7  O   -0.326615   0.004133
     8  O   -0.262167  -0.021417
     9  C   -0.275642   0.555673
    10  C   -0.515046  -0.035866
    11  H    0.295737  -0.082876
    12  H    0.252399  -0.012494
    13  H    0.229251   0.001367
    14  H    0.236854   0.006397
    15  H    0.241630   0.031429
 Sum of Mulliken charges =  -0.00000   1.00000

 Dipole moment (field-independent basis, Debye):
    X=             -2.1854    Y=              0.3209    Z=              1.3027  Tot=              2.5643
 Quadrupole moment (field-independent basis, Debye-Ang):
   XX=            -48.5009   YY=            -49.5170   ZZ=            -48.4623
   XY=            -14.1103   XZ=             -1.5484   YZ=             -0.4914

  Exact polarizability:  91.185   0.008  80.671  -4.714   4.296  47.538
 Approx polarizability:  91.336  -5.274  91.849  -7.214  11.671  51.821

 ******    4 imaginary frequencies (negative Signs) ******

                      1                      2                      3
                      A                      A                      A
 Frequencies --  -1555.6563              -463.4397              -110.7884
 Red. masses --      1.0900                 1.0521                 8.3651
 Frc consts  --      1.5542                 0.1331                 0.0605
 IR Inten    --   1309.8304               132.9596                 3.0919

                      4                      5                      6
                      A                      A                      A
 Frequencies --    -44.4099                36.7091               102.2812
 Red. masses --      4.7703                 3.7928                 3.4317
 Frc consts  --      0.0055                 0.0030                 0.0212
 IR Inten    --      8.2425                 7.9612                15.6828

                      7                      8                      9
                      A                      A                      A
 Frequencies --    140.3161               169.6282               256.2135
 Red. masses --      1.9008                 1.5446                 4.2564
 Frc consts  --      0.0220                 0.0262                 0.1646
 IR Inten    --      4.1446                 2.5281                 2.7265

                     10                     11                     12
                      A                      A                      A
 Frequencies --    265.2096               424.2084               535.0199
 Red. masses --      4.7633                 3.5318                 5.4898
 Frc consts  --      0.1974                 0.3745                 0.9259
 IR Inten    --      8.3753                 8.8187                12.4757

                     13                     14                     15
                      A                      A                      A
 Frequencies --    598.8100               641.6087               734.7179
 Red. masses --      2.8431                 4.4597                 1.3972
 Frc consts  --      0.6006                 1.0817                 0.4444
 IR Inten    --      9.4239                 0.8422               317.5288

                     16                     17                     18
                      A                      A                      A
 Frequencies --    778.2156               817.1013               840.0712
 Red. masses --      3.1947                 1.4336                 1.1475
 Frc consts  --      1.1399                 0.5639                 0.4771
 IR Inten    --     74.9185                41.6548                 4.1323

                     19                     20                     21
                      A                      A                      A
 Frequencies --    874.8903               899.8913               969.2521
 Red. masses --      1.8746                 3.3160                 3.1996
 Frc consts  --      0.8454                 1.5821                 1.7710
 IR Inten    --     21.4092                21.5723                 8.9860

                     22                     23                     24
                      A                      A                      A
 Frequencies --   1123.7040              1161.2539              1178.2793
 Red. masses --      2.3217                 2.2812                 1.7589
 Frc consts  --      1.7273                 1.8124                 1.4388
 IR Inten    --     41.8442                58.0581                18.2013

                     25                     26                     27
                      A                      A                      A
 Frequencies --   1255.1766              1322.1207              1396.2536
 Red. masses --      1.2088                 9.6260                 1.2847
 Frc consts  --      1.1220                 9.9137                 1.4756
 IR Inten    --     59.9405               722.3903                 3.5479

                     28                     29                     30
                      A                      A                      A
 Frequencies --   1447.7613              1516.3153              1517.5624
 Red. masses --      1.2386                 1.0445                 1.0466
 Frc consts  --      1.5296                 1.4149                 1.4201
 IR Inten    --     21.6960                12.9466                 5.5394

                     31                     32                     33
                      A                      A                      A
 Frequencies --   1590.9129              1912.7316              2333.1164
 Red. masses --      1.0580                12.7841                 5.5479
 Frc consts  --      1.5777                27.5569                17.7931
 IR Inten    --     72.9963               311.2701                84.1276

                     34                     35                     36
                      A                      A                      A
 Frequencies --   3091.4868              3170.6181              3177.9171
 Red. masses --      1.0374                 1.0883                 1.0934
 Frc consts  --      5.8414                 6.4458                 6.5057
 IR Inten    --      2.0229                 6.2469                 5.1848

                     37                     38                     39
                      A                      A                      A
 Frequencies --   3204.2413              3531.5756              3841.3301
 Red. masses --      1.1006                 1.1796                 1.0654
 Frc consts  --      6.6576                 8.6680                 9.2627
 IR Inten    --      8.3010                55.6618                31.2614

 - Thermochemistry -
 -------------------
 Temperature   298.150 Kelvin.  Pressure   1.00000 Atm.
 Atom     1 has atomic number  8 and mass  15.99491

 Molecular mass:   115.03952 amu.
 Principal axes and moments of inertia in atomic units:
                           1         2         3
     Eigenvalues --   594.651011597.300732000.56504
           X            0.99932  -0.03674   0.00274
           Y            0.03679   0.99909  -0.02181
           Z           -0.00194   0.02189   0.99976
 This molecule is an asymmetric top.
 Rotational symmetry number  1.
 Warning -- assumption of classical behavior for rotation
           may cause significant error
 Rotational temperatures (Kelvin)      0.14566     0.05423     0.04329
 Rotational constants (GHZ):           3.03496     1.12987     0.90212
    4 imaginary frequencies ignored.
 Zero-point vibrational energy     280264.1 (Joules/Mol)
                                   66.98473 (Kcal/Mol)
 Warning -- explicit consideration of   9 degrees of freedom as
           vibrations may cause significant error
 Vibrational temperatures:     52.82   147.16   201.88   244.06   368.63
          (Kelvin)            381.58   610.34   769.77   861.55   923.13
                             1057.10  1119.68  1175.63  1208.68  1258.77
                             1294.74  1394.54  1616.76  1670.79  1695.28
                             1805.92  1902.24  2008.90  2083.01  2181.64
                             2183.43  2288.97  2751.99  3356.83  4447.96
                             4561.81  4572.31  4610.19  5081.15  5526.82

 Zero-point correction=                           0.106747 (Hartree/Particle)
 Thermal correction to Energy=                    0.114763
 Thermal correction to Enthalpy=                  0.115707
 Thermal correction to Gibbs Free Energy=         0.072107
 Sum of electronic and zero-point Energies=           -419.843551
 Sum of electronic and thermal Energies=              -419.835534
 Sum of electronic and thermal Enthalpies=            -419.834590
 Sum of electronic and thermal Free Energies=         -419.878190

                     E (Thermal)             CV                S
                      KCal/Mol        Cal/Mol-Kelvin    Cal/Mol-Kelvin
 Total                   72.015             27.285             91.764
 Electronic               0.000              0.000              1.377
 Translational            0.889              2.981             40.136
 Rotational               0.889              2.981             29.031
 Vibrational             70.238             21.323             21.220
 Vibration     1          0.594              1.982              5.429
 Vibration     2          0.604              1.947              3.410
 Vibration     3          0.615              1.913              2.800
 Vibration     4          0.625              1.880              2.440
 Vibration     5          0.666              1.752              1.687
 Vibration     6          0.671              1.737              1.627
 Vibration     7          0.786              1.418              0.878
 Vibration     8          0.890              1.173              0.576
 Vibration     9          0.957              1.034              0.452

 Normal termination of Gaussian 16 at Fri Jun 20 12:35:32 2025.
