 Gaussian 16, Revision A.03,
 Gaussian 16:  ES64L-G16RevA.03 25-Dec-2016

 -------------------
 # freq 6-31+g m062x
 -------------------

 -------------------
 Title Card Required
 -------------------
 Symbolic Z-matrix:
 Charge =  0 Multiplicity = 2

                         Standard orientation:
 ---------------------------------------------------------------------
 Center     Atomic      Atomic             Coordinates (Angstroms)
 Number     Number       Type             X           Y           Z
 ---------------------------------------------------------------------
      1          8           0        2.637761    1.747665   -0.248159
      2          1           0        1.832142    2.232849   -0.016904
      3          6           0       -3.192775    1.029138    0.403399
      4          1           0       -4.073132    1.575474    0.650390
      5          6           0       -2.203338    0.413810    0.125454
      6          6           0       -1.035760   -0.375526   -0.228990
      7          8           0       -1.079312   -1.477324   -0.694523
      8          8           0        0.097579    0.296047    0.037053
      9          6           0        1.312969   -0.372421   -0.280527
     10          6           0        1.773584   -1.293040    0.814185
     11          1           0        2.141078    0.640152   -0.360446
     12          1           0        1.264536   -0.811258   -1.277120
     13          1           0        2.754252   -1.702261    0.569979
     14          1           0        1.839804   -0.756568    1.761378
     15          1           0        1.065004   -2.121256    0.916634
 ---------------------------------------------------------------------

 SCF Done:  E(UM062X) =  -419.950772674     A.U. after   19 cycles

 The electronic state is 2-A.
 Alpha  occ. eigenvalues --  -19.73085 -19.68295 -19.66615 -10.74918 -10.65128
 Alpha  occ. eigenvalues --  -10.59931 -10.59583 -10.56434  -1.30269  -1.20990
 Alpha  occ. eigenvalues --   -1.13240  -0.92883  -0.89243  -0.80626  -0.72633
 Alpha  occ. eigenvalues --   -0.67238  -0.62816  -0.61094  -0.59524  -0.58261
 Alpha  occ. eigenvalues --   -0.52741  -0.51864  -0.49597  -0.48470  -0.46199
 Alpha  occ. eigenvalues --   -0.41483  -0.41090  -0.39988  -0.38776  -0.38058
 Alpha  occ. eigenvalues --   -0.33400
 Alpha virt. eigenvalues --   -0.03262   0.01633   0.02153   0.03081   0.03240
 Alpha virt. eigenvalues --    0.04097   0.04767   0.06068   0.07528   0.07824
 Alpha virt. eigenvalues --    0.08053   0.08539   0.09719   0.10754   0.12120

  Beta  occ. eigenvalues --  -19.73065 -19.68289 -19.65596 -10.74886 -10.64506
  Beta  occ. eigenvalues --  -10.59930 -10.59583 -10.56448  -1.30124  -1.20823
  Beta  occ. eigenvalues --   -1.09740  -0.92238  -0.88609  -0.80274  -0.71618
  Beta  occ. eigenvalues --   -0.66474  -0.62565  -0.60197  -0.58574  -0.56141
  Beta  occ. eigenvalues --   -0.51549  -0.51064  -0.48424  -0.46988  -0.43394
  Beta  occ. eigenvalues --   -0.41058  -0.40366  -0.38760  -0.38053  -0.37808
  Beta virt. eigenvalues --   -0.10933  -0.03181   0.01658   0.02208   0.03180
  Beta virt. eigenvalues --    0.03314   0.04164   0.04845   0.06101   0.07562
  Beta virt. eigenvalues --    0.07867   0.08137   0.08590   0.09935   0.10790

 Mulliken charges and spin densities:
               1          2
     1  O   -0.565606   0.511021
     2  H    0.410745  -0.014463
     3  C    0.236569   0.009905
     4  H    0.351354  -0.000023
     5  C    0.135367   0.002659
     6  C   -0.464937  -0.002140
     7  O   -0.325938   0.004431
     8  O   -0.262273  -0.023321
     9  C   -0.270379   0.604144
    10  C   -0.515452  -0.039315
    11  H    0.307363  -0.081610
    12  H    0.252380  -0.014443
    13  H    0.230195   0.001518
    14  H    0.238027   0.007140
    15  H    0.242587   0.034497
 Sum of Mulliken charges =  -0.00000   1.00000

 Dipole moment (field-independent basis, Debye):
    X=             -2.2842    Y=              0.1922    Z=              1.3128  Tot=              2.6416
 Quadrupole moment (field-independent basis, Debye-Ang):
   XX=            -48.7666   YY=            -49.7225   ZZ=            -48.4297
   XY=            -14.4980   XZ=             -1.5207   YZ=             -0.4796

  Exact polarizability:  90.950  -0.505  80.051  -4.671   4.314  47.562
 Approx polarizability:  91.259  -5.538  91.621  -7.214  11.653  51.856

 ******    4 imaginary frequencies (negative Signs) ******

                      1                      2                      3
                      A                      A                      A
 Frequencies --  -1510.1949              -462.9405              -111.0002
 Red. masses --      1.0912                 1.0509                 8.1333
 Frc consts  --      1.4663                 0.1327                 0.0590
 IR Inten    --   1084.0132               130.5321                 2.8125

                      4                      5                      6
                      A                      A                      A
 Frequencies --    -24.0472                40.4142               105.4309
 Red. masses --      4.9011                 3.7871                 3.2455
 Frc consts  --      0.0017                 0.0036                 0.0213
 IR Inten    --      5.9786                 8.0824                16.3508

                      7                      8                      9
                      A                      A                      A
 Frequencies --    143.5113               168.6629               257.1657
 Red. masses --      1.7184                 1.7467                 4.3230
 Frc consts  --      0.0209                 0.0293                 0.1684
 IR Inten    --      4.1376                 2.9721                 1.6642

                     10                     11                     12
                      A                      A                      A
 Frequencies --    265.2685               425.3901               530.2502
 Red. masses --      4.8770                 3.5302                 5.4090
 Frc consts  --      0.2022                 0.3764                 0.8960
 IR Inten    --      9.5977                 9.2127                10.7235

                     13                     14                     15
                      A                      A                      A
 Frequencies --    598.1903               636.6344               722.9218
 Red. masses --      2.7885                 4.5168                 1.3606
 Frc consts  --      0.5879                 1.0786                 0.4189
 IR Inten    --      9.0372                 1.9358               257.1302

                     16                     17                     18
                      A                      A                      A
 Frequencies --    777.7606               817.5010               838.9364
 Red. masses --      3.2204                 1.4342                 1.1559
 Frc consts  --      1.1478                 0.5647                 0.4793
 IR Inten    --     72.0996                43.5956                 4.0647

                     19                     20                     21
                      A                      A                      A
 Frequencies --    875.2781               899.0605               969.2702
 Red. masses --      1.8699                 3.3824                 3.2084
 Frc consts  --      0.8440                 1.6108                 1.7759
 IR Inten    --     21.9349                19.9774                 8.0127

                     22                     23                     24
                      A                      A                      A
 Frequencies --   1117.9783              1160.7757              1165.5845
 Red. masses --      1.9185                 2.3138                 1.8486
 Frc consts  --      1.4128                 1.8369                 1.4797
 IR Inten    --     53.6919                63.7874                 5.0676

                     25                     26                     27
                      A                      A                      A
 Frequencies --   1237.2662              1318.8846              1396.3393
 Red. masses --      1.3011                 9.5194                 1.2915
 Frc consts  --      1.1736                 9.7560                 1.4837
 IR Inten    --     68.3271               739.9294                 4.1119

                     28                     29                     30
                      A                      A                      A
 Frequencies --   1447.0428              1514.9136              1516.5973
 Red. masses --      1.2389                 1.0424                 1.0494
 Frc consts  --      1.5285                 1.4094                 1.4221
 IR Inten    --     21.7085                14.7787                 4.8981

                     31                     32                     33
                      A                      A                      A
 Frequencies --   1615.4982              1912.4435              2333.0823
 Red. masses --      1.0510                12.8118                 5.5476
 Frc consts  --      1.6160                27.6082                17.7917
 IR Inten    --     86.8678               310.6384                84.9471

                     34                     35                     36
                      A                      A                      A
 Frequencies --   3088.9874              3171.1101              3177.6929
 Red. masses --      1.0381                 1.0905                 1.0903
 Frc consts  --      5.8359                 6.4612                 6.4866
 IR Inten    --      1.5834                 5.3801                 6.3375

                     37                     38                     39
                      A                      A                      A
 Frequencies --   3204.8091              3531.4730              3848.4743
 Red. masses --      1.1005                 1.1796                 1.0652
 Frc consts  --      6.6595                 8.6677                 9.2953
 IR Inten    --      7.9634                55.7710                32.3889

 - Thermochemistry -
 -------------------
 Temperature   298.150 Kelvin.  Pressure   1.00000 Atm.
 Atom     1 has atomic number  8 and mass  15.99491

 Molecular mass:   115.03952 amu.
 Principal axes and moments of inertia in atomic units:
                           1         2         3
     Eigenvalues --   594.405441597.236002000.26317
           X            0.99933  -0.03650   0.00272
           Y            0.03655   0.99909  -0.02189
           Z           -0.00192   0.02198   0.99976
 This molecule is an asymmetric top.
 Rotational symmetry number  1.
 Warning -- assumption of classical behavior for rotation
           may cause significant error
 Rotational temperatures (Kelvin)      0.14572     0.05423     0.04330
 Rotational constants (GHZ):           3.03621     1.12992     0.90225
    4 imaginary frequencies ignored.
 Zero-point vibrational energy     280109.2 (Joules/Mol)
                                   66.94770 (Kcal/Mol)
 Warning -- explicit consideration of   9 degrees of freedom as
           vibrations may cause significant error
 Vibrational temperatures:     58.15   151.69   206.48   242.67   370.00
          (Kelvin)            381.66   612.04   762.91   860.66   915.97
                             1040.12  1119.02  1176.20  1207.04  1259.33
                             1293.55  1394.56  1608.52  1670.10  1677.02
                             1780.15  1897.58  2009.02  2081.97  2179.62
                             2182.05  2324.34  2751.58  3356.79  4444.36
                             4562.52  4571.99  4611.01  5081.00  5537.10

 Zero-point correction=                           0.106688 (Hartree/Particle)
 Thermal correction to Energy=                    0.114697
 Thermal correction to Enthalpy=                  0.115641
 Thermal correction to Gibbs Free Energy=         0.072162
 Sum of electronic and zero-point Energies=           -419.844085
 Sum of electronic and thermal Energies=              -419.836076
 Sum of electronic and thermal Enthalpies=            -419.835132
 Sum of electronic and thermal Free Energies=         -419.878611

                     E (Thermal)             CV                S
                      KCal/Mol        Cal/Mol-Kelvin    Cal/Mol-Kelvin
 Total                   71.973             27.343             91.510
 Electronic               0.000              0.000              1.377
 Translational            0.889              2.981             40.136
 Rotational               0.889              2.981             29.031
 Vibrational             70.196             21.381             20.966
 Vibration     1          0.594              1.981              5.239
 Vibration     2          0.605              1.945              3.351
 Vibration     3          0.616              1.910              2.757
 Vibration     4          0.625              1.881              2.450
 Vibration     5          0.667              1.751              1.681
 Vibration     6          0.671              1.737              1.627
 Vibration     7          0.787              1.415              0.874
 Vibration     8          0.885              1.183              0.587
 Vibration     9          0.956              1.036              0.453

 Normal termination of Gaussian 16 at Fri Jun 20 12:41:52 2025.
