 Gaussian 16, Revision A.03,
 Gaussian 16:  ES64L-G16RevA.03 25-Dec-2016

 -------------------
 # freq 6-31+g m062x
 -------------------

 -------------------
 Title Card Required
 -------------------
 Symbolic Z-matrix:
 Charge =  0 Multiplicity = 2

                         Standard orientation:
 ---------------------------------------------------------------------
 Center     Atomic      Atomic             Coordinates (Angstroms)
 Number     Number       Type             X           Y           Z
 ---------------------------------------------------------------------
      1          8           0        2.639062    1.752253   -0.248203
      2          1           0        1.829163    2.232726   -0.016998
      3          6           0       -3.192855    1.028719    0.403284
      4          1           0       -4.073375    1.574778    0.650179
      5          6           0       -2.203247    0.413623    0.125444
      6          6           0       -1.035020   -0.375382   -0.228712
      7          8           0       -1.078665   -1.477327   -0.694243
      8          8           0        0.097078    0.296704    0.036999
      9          6           0        1.315236   -0.370407   -0.281223
     10          6           0        1.773712   -1.292698    0.814602
     11          1           0        2.115329    0.590685   -0.365508
     12          1           0        1.259808   -0.817382   -1.274093
     13          1           0        2.754956   -1.700807    0.570330
     14          1           0        1.840625   -0.754972    1.761027
     15          1           0        1.066737   -2.121196    0.918275
 ---------------------------------------------------------------------

 SCF Done:  E(UM062X) =  -419.950111757     A.U. after   20 cycles

 The electronic state is 2-A.
 Alpha  occ. eigenvalues --  -19.72827 -19.68098 -19.67588 -10.74713 -10.64689
 Alpha  occ. eigenvalues --  -10.59809 -10.59468 -10.56164  -1.30027  -1.20752
 Alpha  occ. eigenvalues --   -1.13606  -0.92722  -0.89099  -0.80395  -0.72600
 Alpha  occ. eigenvalues --   -0.66965  -0.62733  -0.60942  -0.59329  -0.58038
 Alpha  occ. eigenvalues --   -0.52913  -0.51593  -0.49862  -0.48283  -0.46042
 Alpha  occ. eigenvalues --   -0.41353  -0.40880  -0.40652  -0.38657  -0.37924
 Alpha  occ. eigenvalues --   -0.34414
 Alpha virt. eigenvalues --   -0.03101   0.01673   0.02197   0.03147   0.03327
 Alpha virt. eigenvalues --    0.04134   0.04788   0.06130   0.07586   0.07861
 Alpha virt. eigenvalues --    0.08107   0.08578   0.09724   0.10847   0.12167

  Beta  occ. eigenvalues --  -19.72815 -19.68093 -19.66407 -10.74688 -10.64153
  Beta  occ. eigenvalues --  -10.59809 -10.59468 -10.56175  -1.29911  -1.20614
  Beta  occ. eigenvalues --   -1.09471  -0.92151  -0.88543  -0.80102  -0.71647
  Beta  occ. eigenvalues --   -0.66344  -0.62473  -0.60039  -0.58417  -0.55923
  Beta  occ. eigenvalues --   -0.51415  -0.50973  -0.48293  -0.46834  -0.43224
  Beta  occ. eigenvalues --   -0.40879  -0.40117  -0.38644  -0.38129  -0.37839
  Beta virt. eigenvalues --   -0.11247  -0.03038   0.01708   0.02270   0.03247
  Beta virt. eigenvalues --    0.03393   0.04228   0.04874   0.06169   0.07631
  Beta virt. eigenvalues --    0.07928   0.08194   0.08635   0.09967   0.10884

 Mulliken charges and spin densities:
               1          2
     1  O   -0.523589   0.610941
     2  H    0.409526  -0.018960
     3  C    0.238192   0.009039
     4  H    0.350780  -0.000020
     5  C    0.133524   0.001674
     6  C   -0.464477  -0.002766
     7  O   -0.327307   0.003813
     8  O   -0.262475  -0.019295
     9  C   -0.280500   0.505278
    10  C   -0.514655  -0.032192
    11  H    0.284639  -0.082156
    12  H    0.252037  -0.010502
    13  H    0.228186   0.001214
    14  H    0.235535   0.005645
    15  H    0.240584   0.028285
 Sum of Mulliken charges =  -0.00000   1.00000

 Dipole moment (field-independent basis, Debye):
    X=             -2.0767    Y=              0.4631    Z=              1.2909  Tot=              2.4887
 Quadrupole moment (field-independent basis, Debye-Ang):
   XX=            -48.2134   YY=            -49.2961   ZZ=            -48.4969
   XY=            -13.6887   XZ=             -1.5808   YZ=             -0.5045

  Exact polarizability:  91.356   0.457  81.208  -4.751   4.288  47.512
 Approx polarizability:  91.249  -5.239  91.698  -7.202  11.707  51.779

 ******    4 imaginary frequencies (negative Signs) ******

                      1                      2                      3
                      A                      A                      A
 Frequencies --  -1528.9858              -463.4075              -111.6957
 Red. masses --      1.0975                 1.0532                 8.5393
 Frc consts  --      1.5116                 0.1333                 0.0628
 IR Inten    --   1591.7242               135.2119                 3.8042

                      4                      5                      6
                      A                      A                      A
 Frequencies --    -65.1692                33.3865                98.6650
 Red. masses --      4.6081                 3.8298                 3.6471
 Frc consts  --      0.0115                 0.0025                 0.0209
 IR Inten    --     11.4406                 7.6919                14.6007

                      7                      8                      9
                      A                      A                      A
 Frequencies --    133.7512               170.9551               254.7824
 Red. masses --      2.0717                 1.4056                 4.1814
 Frc consts  --      0.0218                 0.0242                 0.1599
 IR Inten    --      4.1320                 2.1339                 3.7071

                     10                     11                     12
                      A                      A                      A
 Frequencies --    266.0155               422.8888               542.3717
 Red. masses --      4.6476                 3.5370                 5.4466
 Frc consts  --      0.1938                 0.3727                 0.9440
 IR Inten    --      7.4778                 8.2815                12.2812

                     13                     14                     15
                      A                      A                      A
 Frequencies --    600.1027               649.3429               747.0740
 Red. masses --      2.8312                 3.9494                 1.5119
 Frc consts  --      0.6007                 0.9811                 0.4972
 IR Inten    --      9.5304                 0.9600               404.1021

                     16                     17                     18
                      A                      A                      A
 Frequencies --    778.7539               816.5944               842.0260
 Red. masses --      3.1448                 1.4311                 1.1422
 Frc consts  --      1.1237                 0.5623                 0.4771
 IR Inten    --     82.2141                42.6369                11.6200

                     19                     20                     21
                      A                      A                      A
 Frequencies --    874.5157               900.4317               968.9852
 Red. masses --      1.8805                 3.2784                 3.1558
 Frc consts  --      0.8474                 1.5661                 1.7458
 IR Inten    --     20.5588                22.8406                 9.3907

                     22                     23                     24
                      A                      A                      A
 Frequencies --   1127.4781              1161.6042              1188.6962
 Red. masses --      2.6179                 2.2700                 1.7273
 Frc consts  --      1.9607                 1.8046                 1.4380
 IR Inten    --     33.2774                53.9133                20.0661

                     25                     26                     27
                      A                      A                      A
 Frequencies --   1277.0145              1325.4946              1396.0451
 Red. masses --      1.1526                 9.7016                 1.2759
 Frc consts  --      1.1074                10.0427                 1.4651
 IR Inten    --     46.3012               702.3592                 3.0292

                     28                     29                     30
                      A                      A                      A
 Frequencies --   1448.5016              1517.1923              1519.0058
 Red. masses --      1.2382                 1.0473                 1.0431
 Frc consts  --      1.5306                 1.4203                 1.4181
 IR Inten    --     21.8782                 8.0101                 9.2642

                     31                     32                     33
                      A                      A                      A
 Frequencies --   1573.2156              1913.0240              2333.1600
 Red. masses --      1.0700                12.7471                 5.5482
 Frc consts  --      1.5603                27.4854                17.7948
 IR Inten    --     59.3102               311.0727                83.2000

                     34                     35                     36
                      A                      A                      A
 Frequencies --   3093.8809              3169.3196              3178.9030
 Red. masses --      1.0367                 1.0867                 1.0957
 Frc consts  --      5.8466                 6.4310                 6.5239
 IR Inten    --      2.5859                 6.6334                 4.5069

                     37                     38                     39
                      A                      A                      A
 Frequencies --   3203.5393              3531.6846              3834.0359
 Red. masses --      1.1006                 1.1796                 1.0656
 Frc consts  --      6.6550                 8.6684                 9.2293
 IR Inten    --      8.7383                55.5421                29.3706

 - Thermochemistry -
 -------------------
 Temperature   298.150 Kelvin.  Pressure   1.00000 Atm.
 Atom     1 has atomic number  8 and mass  15.99491

 Molecular mass:   115.03952 amu.
 Principal axes and moments of inertia in atomic units:
                           1         2         3
     Eigenvalues --   594.944161597.382892000.92826
           X            0.99931  -0.03697   0.00276
           Y            0.03703   0.99908  -0.02171
           Z           -0.00195   0.02180   0.99976
 This molecule is an asymmetric top.
 Rotational symmetry number  1.
 Warning -- assumption of classical behavior for rotation
           may cause significant error
 Rotational temperatures (Kelvin)      0.14558     0.05422     0.04329
 Rotational constants (GHZ):           3.03346     1.12981     0.90195
    4 imaginary frequencies ignored.
 Zero-point vibrational energy     280479.1 (Joules/Mol)
                                   67.03611 (Kcal/Mol)
 Warning -- explicit consideration of   9 degrees of freedom as
           vibrations may cause significant error
 Vibrational temperatures:     48.04   141.96   192.44   245.97   366.58
          (Kelvin)            382.74   608.44   780.35   863.41   934.26
                             1074.87  1120.45  1174.90  1211.49  1258.23
                             1295.52  1394.15  1622.19  1671.29  1710.27
                             1837.34  1907.09  2008.60  2084.07  2182.90
                             2185.51  2263.51  2752.41  3356.90  4451.40
                             4559.94  4573.73  4609.18  5081.31  5516.32

 Zero-point correction=                           0.106829 (Hartree/Particle)
 Thermal correction to Energy=                    0.114854
 Thermal correction to Enthalpy=                  0.115799
 Thermal correction to Gibbs Free Energy=         0.072058
 Sum of electronic and zero-point Energies=           -419.843283
 Sum of electronic and thermal Energies=              -419.835257
 Sum of electronic and thermal Enthalpies=            -419.834313
 Sum of electronic and thermal Free Energies=         -419.878054

                     E (Thermal)             CV                S
                      KCal/Mol        Cal/Mol-Kelvin    Cal/Mol-Kelvin
 Total                   72.072             27.216             92.060
 Electronic               0.000              0.000              1.377
 Translational            0.889              2.981             40.136
 Rotational               0.889              2.981             29.032
 Vibrational             70.295             21.255             21.515
 Vibration     1          0.594              1.983              5.617
 Vibration     2          0.604              1.950              3.481
 Vibration     3          0.613              1.920              2.891
 Vibration     4          0.626              1.878              2.425
 Vibration     5          0.665              1.755              1.697
 Vibration     6          0.672              1.735              1.622
 Vibration     7          0.785              1.420              0.882
 Vibration     8          0.897              1.156              0.560
 Vibration     9          0.958              1.032              0.449

 Normal termination of Gaussian 16 at Fri Jun 20 12:44:13 2025.
