 Gaussian 16, Revision A.03,
 Gaussian 16:  ES64L-G16RevA.03 25-Dec-2016

 -------------------
 # freq 6-31+g m062x
 -------------------

 -------------------
 Title Card Required
 -------------------
 Symbolic Z-matrix:
 Charge =  0 Multiplicity = 2

                         Standard orientation:
 ---------------------------------------------------------------------
 Center     Atomic      Atomic             Coordinates (Angstroms)
 Number     Number       Type             X           Y           Z
 ---------------------------------------------------------------------
      1          8           0        2.648715    1.771249   -0.246546
      2          1           0        1.823611    2.230860   -0.015499
      3          6           0       -3.191936    1.031874    0.403227
      4          1           0       -4.072249    1.578137    0.649913
      5          6           0       -2.202687    0.416087    0.125596
      6          6           0       -1.033175   -0.373232   -0.227612
      7          8           0       -1.079258   -1.475441   -0.693731
      8          8           0        0.095925    0.298933    0.036688
      9          6           0        1.317146   -0.376242   -0.285465
     10          6           0        1.770604   -1.296840    0.816676
     11          1           0        2.071652    0.462066   -0.400794
     12          1           0        1.228271   -0.857495   -1.259893
     13          1           0        2.753587   -1.701891    0.571895
     14          1           0        1.842539   -0.752660    1.759298
     15          1           0        1.069819   -2.126833    0.929261
 ---------------------------------------------------------------------

 SCF Done:  E(UM062X) =  -419.952515335     A.U. after   18 cycles

 The electronic state is 2-A.
 Alpha  occ. eigenvalues --  -19.72092 -19.70135 -19.67498 -10.74100 -10.62922
 Alpha  occ. eigenvalues --  -10.59437 -10.59113 -10.55311  -1.29294  -1.20011
 Alpha  occ. eigenvalues --   -1.15180  -0.92176  -0.88633  -0.79632  -0.72332
 Alpha  occ. eigenvalues --   -0.66167  -0.62413  -0.60411  -0.58709  -0.57413
 Alpha  occ. eigenvalues --   -0.54407  -0.50720  -0.50044  -0.47580  -0.45503
 Alpha  occ. eigenvalues --   -0.42805  -0.40952  -0.40258  -0.38294  -0.37589
 Alpha  occ. eigenvalues --   -0.37194
 Alpha virt. eigenvalues --   -0.02617   0.01777   0.02294   0.03353   0.03582
 Alpha virt. eigenvalues --    0.04226   0.04877   0.06310   0.07741   0.07959
 Alpha virt. eigenvalues --    0.08299   0.08724   0.09795   0.11130   0.12313

  Beta  occ. eigenvalues --  -19.72097 -19.68644 -19.67495 -10.74089 -10.62607
  Beta  occ. eigenvalues --  -10.59437 -10.59113 -10.55317  -1.29245  -1.19935
  Beta  occ. eigenvalues --   -1.09204  -0.91823  -0.88274  -0.79483  -0.71615
  Beta  occ. eigenvalues --   -0.65862  -0.62184  -0.59552  -0.57944  -0.55662
  Beta  occ. eigenvalues --   -0.51825  -0.50471  -0.47846  -0.46294  -0.42743
  Beta  occ. eigenvalues --   -0.40393  -0.39676  -0.39263  -0.38283  -0.37462
  Beta virt. eigenvalues --   -0.11188  -0.02590   0.01839   0.02404   0.03442
  Beta virt. eigenvalues --    0.03640   0.04368   0.04952   0.06351   0.07811
  Beta virt. eigenvalues --    0.08065   0.08372   0.08787   0.10064   0.11166

 Mulliken charges and spin densities:
               1          2
     1  O   -0.429323   0.826789
     2  H    0.410964  -0.028345
     3  C    0.240535   0.006268
     4  H    0.349056  -0.000015
     5  C    0.134351   0.000905
     6  C   -0.468455  -0.004790
     7  O   -0.330444   0.002410
     8  O   -0.267866  -0.008047
     9  C   -0.306472   0.269609
    10  C   -0.510599  -0.015453
    11  H    0.247800  -0.062834
    12  H    0.246479  -0.003183
    13  H    0.221557   0.000657
    14  H    0.227807   0.002324
    15  H    0.234610   0.013706
 Sum of Mulliken charges =  -0.00000   1.00000

 Dipole moment (field-independent basis, Debye):
    X=             -1.4548    Y=              1.2747    Z=              1.2109  Tot=              2.2820
 Quadrupole moment (field-independent basis, Debye-Ang):
   XX=            -46.6945   YY=            -48.1053   ZZ=            -48.7007
   XY=            -11.3783   XZ=             -1.8043   YZ=             -0.5695

  Exact polarizability:  89.286  -1.452  78.225  -4.538   4.768  47.343
 Approx polarizability:  88.808  -8.121  86.057  -6.944  12.194  51.507

 ******    5 imaginary frequencies (negative Signs) ******

                      1                      2                      3
                      A                      A                      A
 Frequencies --   -459.4370              -421.7187              -125.6294
 Red. masses --      1.1262                 1.8588                 8.0441
 Frc consts  --      0.1401                 0.1948                 0.0748
 IR Inten    --    116.0351               146.6401                 4.7802

                      4                      5                      6
                      A                      A                      A
 Frequencies --   -115.2348               -59.5108                20.4030
 Red. masses --      4.7344                 2.8930                 3.9476
 Frc consts  --      0.0370                 0.0060                 0.0010
 IR Inten    --     47.3636                 0.8594                 8.7565

                      7                      8                      9
                      A                      A                      A
 Frequencies --     94.5163               178.3446               247.4258
 Red. masses --      3.5703                 1.2083                 3.7048
 Frc consts  --      0.0188                 0.0226                 0.1336
 IR Inten    --     15.2643                 1.2339                 5.2447

                     10                     11                     12
                      A                      A                      A
 Frequencies --    277.4066               417.8968               549.8892
 Red. masses --      3.9310                 3.5874                 1.4559
 Frc consts  --      0.1782                 0.3691                 0.2594
 IR Inten    --      8.0272                 5.9164               146.2780

                     13                     14                     15
                      A                      A                      A
 Frequencies --    568.8704               634.3868               779.7761
 Red. masses --      4.2244                 4.0738                 2.9168
 Frc consts  --      0.8055                 0.9659                 1.0450
 IR Inten    --      1.5633                78.8966                75.0085

                     16                     17                     18
                      A                      A                      A
 Frequencies --    789.9428               814.7350               872.3724
 Red. masses --      1.3588                 1.4325                 1.9142
 Frc consts  --      0.4996                 0.5602                 0.8583
 IR Inten    --      9.4106                55.7295                20.1768

                     19                     20                     21
                      A                      A                      A
 Frequencies --    898.4083               959.9061              1133.6007
 Red. masses --      3.5310                 2.6460                 3.5540
 Frc consts  --      1.6791                 1.4365                 2.6909
 IR Inten    --     20.5908                19.7358                11.8406

                     22                     23                     24
                      A                      A                      A
 Frequencies --   1159.9259              1195.2924              1324.1779
 Red. masses --      2.1400                 1.8857                 1.9596
 Frc consts  --      1.6964                 1.5873                 2.0245
 IR Inten    --     48.7254               123.9954               281.3608

                     25                     26                     27
                      A                      A                      A
 Frequencies --   1332.1178              1405.6720              1451.9717
 Red. masses --      2.0448                 1.2790                 1.2403
 Frc consts  --      2.1379                 1.4889                 1.5406
 IR Inten    --    621.7352                 0.8957                18.1071

                     28                     29                     30
                      A                      A                      A
 Frequencies --   1498.9783              1522.8888              1531.1360
 Red. masses --      1.0997                 1.0401                 1.0528
 Frc consts  --      1.4559                 1.4212                 1.4542
 IR Inten    --    124.6240                31.3135                20.4658

                     31                     32                     33
                      A                      A                      A
 Frequencies --   1912.2115              1997.3375              2333.1236
 Red. masses --     11.5396                 1.1399                 5.5490
 Frc consts  --     24.8606                 2.6792                17.7968
 IR Inten    --    450.1605              1223.6530                77.5450

                     34                     35                     36
                      A                      A                      A
 Frequencies --   3102.5777              3163.3931              3187.6069
 Red. masses --      1.0345                 1.0844                 1.1007
 Frc consts  --      5.8670                 6.3937                 6.5896
 IR Inten    --      7.1075                 5.7622                 6.3330

                     37                     38                     39
                      A                      A                      A
 Frequencies --   3197.6483              3532.5459              3800.0837
 Red. masses --      1.1004                 1.1794                 1.0663
 Frc consts  --      6.6293                 8.6710                 9.0723
 IR Inten    --     12.5387                54.8987                16.4643

 - Thermochemistry -
 -------------------
 Temperature   298.150 Kelvin.  Pressure   1.00000 Atm.
 Atom     1 has atomic number  8 and mass  15.99491

 Molecular mass:   115.03952 amu.
 Principal axes and moments of inertia in atomic units:
                           1         2         3
     Eigenvalues --   599.367781598.859382006.48947
           X            0.99926  -0.03837   0.00282
           Y            0.03842   0.99904  -0.02120
           Z           -0.00200   0.02129   0.99977
 This molecule is an asymmetric top.
 Rotational symmetry number  1.
 Warning -- assumption of classical behavior for rotation
           may cause significant error
 Rotational temperatures (Kelvin)      0.14451     0.05417     0.04317
 Rotational constants (GHZ):           3.01107     1.12877     0.89945
    5 imaginary frequencies ignored.
 Zero-point vibrational energy     286425.3 (Joules/Mol)
                                   68.45729 (Kcal/Mol)
 Warning -- explicit consideration of   8 degrees of freedom as
           vibrations may cause significant error
 Vibrational temperatures:     29.36   135.99   256.60   355.99   399.13
          (Kelvin)            601.26   791.17   818.48   912.74  1121.92
                             1136.55  1172.22  1255.15  1292.61  1381.09
                             1631.00  1668.87  1719.76  1905.20  1916.62
                             2022.45  2089.06  2156.70  2191.10  2202.96
                             2751.25  2873.72  3356.84  4463.92  4551.42
                             4586.26  4600.70  5082.55  5467.47

 Zero-point correction=                           0.109094 (Hartree/Particle)
 Thermal correction to Energy=                    0.116411
 Thermal correction to Enthalpy=                  0.117355
 Thermal correction to Gibbs Free Energy=         0.074590
 Sum of electronic and zero-point Energies=           -419.843422
 Sum of electronic and thermal Energies=              -419.836104
 Sum of electronic and thermal Enthalpies=            -419.835160
 Sum of electronic and thermal Free Energies=         -419.877926

                     E (Thermal)             CV                S
                      KCal/Mol        Cal/Mol-Kelvin    Cal/Mol-Kelvin
 Total                   73.049             24.723             90.008
 Electronic               0.000              0.000              1.377
 Translational            0.889              2.981             40.136
 Rotational               0.889              2.981             29.043
 Vibrational             71.272             18.762             19.451
 Vibration     1          0.593              1.986              6.595
 Vibration     2          0.603              1.953              3.564
 Vibration     3          0.629              1.869              2.346
 Vibration     4          0.661              1.767              1.749
 Vibration     5          0.678              1.715              1.550
 Vibration     6          0.781              1.431              0.899
 Vibration     7          0.905              1.140              0.544
 Vibration     8          0.925              1.099              0.506

 Normal termination of Gaussian 16 at Fri Jun 20 12:43:25 2025.
