 Gaussian 16, Revision A.03,
 Gaussian 16:  ES64L-G16RevA.03 25-Dec-2016

 --------------------------
 # freq 6-311++g(d,p) m062x
 --------------------------

 -------------------
 Title Card Required
 -------------------
 Symbolic Z-matrix:
 Charge =  0 Multiplicity = 2

                         Standard orientation:
 ---------------------------------------------------------------------
 Center     Atomic      Atomic             Coordinates (Angstroms)
 Number     Number       Type             X           Y           Z
 ---------------------------------------------------------------------
      1          8           0        2.636394    1.741313   -0.247978
      2          1           0        1.837295    2.233542   -0.016643
      3          6           0       -3.192531    1.030258    0.403574
      4          1           0       -4.072559    1.577125    0.650709
      5          6           0       -2.203449    0.414426    0.125472
      6          6           0       -1.036892   -0.375552   -0.229369
      7          8           0       -1.080548   -1.477138   -0.694938
      8          8           0        0.098330    0.295087    0.037115
      9          6           0        1.309068   -0.376613   -0.279638
     10          6           0        1.773046   -1.293988    0.813617
     11          1           0        2.182312    0.713580   -0.354540
     12          1           0        1.270336   -0.803629   -1.281269
     13          1           0        2.752892   -1.704894    0.569503
     14          1           0        1.838520   -0.759184    1.761898
     15          1           0        1.062342   -2.121833    0.914812
 ---------------------------------------------------------------------

 SCF Done:  E(UM062X) =  -420.208070920     A.U. after   17 cycles

 The electronic state is 2-A.
 Alpha  occ. eigenvalues --  -19.70833 -19.65188 -19.62629 -10.72672 -10.64291
 Alpha  occ. eigenvalues --  -10.58413 -10.57932 -10.55897  -1.28047  -1.18742
 Alpha  occ. eigenvalues --   -1.11511  -0.92252  -0.88594  -0.80197  -0.71934
 Alpha  occ. eigenvalues --   -0.67127  -0.62546  -0.61036  -0.59036  -0.58257
 Alpha  occ. eigenvalues --   -0.52737  -0.51685  -0.49381  -0.48458  -0.46370
 Alpha  occ. eigenvalues --   -0.41547  -0.41291  -0.39189  -0.38555  -0.37745
 Alpha  occ. eigenvalues --   -0.32078
 Alpha virt. eigenvalues --   -0.03167  -0.00532   0.00424   0.01498   0.01808
 Alpha virt. eigenvalues --    0.02959   0.03142   0.04557   0.05822   0.05921
 Alpha virt. eigenvalues --    0.06498   0.07307   0.07768   0.09220   0.10091

  Beta  occ. eigenvalues --  -19.70801 -19.65181 -19.61933 -10.72634 -10.63566
  Beta  occ. eigenvalues --  -10.58413 -10.57932 -10.55909  -1.27825  -1.18556
  Beta  occ. eigenvalues --   -1.08869  -0.91469  -0.87855  -0.79754  -0.70691
  Beta  occ. eigenvalues --   -0.66222  -0.62266  -0.60188  -0.58270  -0.55967
  Beta  occ. eigenvalues --   -0.51712  -0.50799  -0.48391  -0.47130  -0.44142
  Beta  occ. eigenvalues --   -0.41206  -0.40873  -0.38538  -0.37871  -0.37665
  Beta virt. eigenvalues --   -0.09535  -0.03060  -0.00458   0.00491   0.01646
  Beta virt. eigenvalues --    0.01983   0.03048   0.03203   0.04784   0.05889
  Beta virt. eigenvalues --    0.05979   0.06677   0.07404   0.07811   0.09340

 Mulliken charges and spin densities:
               1          2
     1  O   -0.459462   0.322027
     2  H    0.256476  -0.002822
     3  C   -0.554219   0.001407
     4  H    0.190425   0.000061
     5  C    1.119920   0.001694
     6  C   -0.727692   0.010745
     7  O   -0.197615   0.001569
     8  O    0.014994  -0.027318
     9  C   -0.473204   0.721618
    10  C   -0.332538  -0.029241
    11  H    0.344315  -0.039054
    12  H    0.238221  -0.013649
    13  H    0.187451   0.002384
    14  H    0.195632   0.007840
    15  H    0.197297   0.042737
 Sum of Mulliken charges =  -0.00000   1.00000

 Dipole moment (field-independent basis, Debye):
    X=             -2.1351    Y=             -0.0688    Z=              1.3099  Tot=              2.5059
 Quadrupole moment (field-independent basis, Debye-Ang):
   XX=            -47.7078   YY=            -49.4709   ZZ=            -47.8948
   XY=            -14.6923   XZ=             -1.6112   YZ=             -0.2457

  Exact polarizability:  92.984  -4.079  79.502  -4.226   3.597  51.612
 Approx polarizability:  95.892  -8.000  93.874  -6.896   9.781  61.073

 ******    1 imaginary frequencies (negative Signs) ******

                      1                      2                      3
                      A                      A                      A
 Frequencies --  -1161.9350                42.9689                81.3852
 Red. masses --      1.1583                 6.9500                 4.4974
 Frc consts  --      0.9214                 0.0076                 0.0176
 IR Inten    --    243.2500                 4.4643                 1.4215

                      4                      5                      6
                      A                      A                      A
 Frequencies --    112.5881               155.3084               183.8691
 Red. masses --      4.7360                 3.4492                 1.4636
 Frc consts  --      0.0354                 0.0490                 0.0292
 IR Inten    --      1.9015                 3.5150                 2.9208

                      7                      8                      9
                      A                      A                      A
 Frequencies --    206.8860               222.9890               272.0128
 Red. masses --      1.9110                 1.1484                 4.9141
 Frc consts  --      0.0482                 0.0336                 0.2142
 IR Inten    --     10.9735                87.6287                 1.5626

                     10                     11                     12
                      A                      A                      A
 Frequencies --    294.3152               427.6590               540.2433
 Red. masses --      5.2887                 3.6099                 5.1756
 Frc consts  --      0.2699                 0.3890                 0.8900
 IR Inten    --     10.3260                 5.4626                 0.3562

                     13                     14                     15
                      A                      A                      A
 Frequencies --    606.9695               638.6851               745.5790
 Red. masses --      5.3012                 2.2669                 1.3115
 Frc consts  --      1.1507                 0.5448                 0.4295
 IR Inten    --     10.6972                 1.4922                42.4951

                     16                     17                     18
                      A                      A                      A
 Frequencies --    763.8268               773.6887               780.3932
 Red. masses --      1.2920                 2.6747                 1.7762
 Frc consts  --      0.4441                 0.9433                 0.6373
 IR Inten    --     75.6237                 8.2298                63.9279

                     19                     20                     21
                      A                      A                      A
 Frequencies --    829.6306               897.5868               953.0844
 Red. masses --      1.2141                 3.0407                 3.5301
 Frc consts  --      0.4924                 1.4434                 1.8893
 IR Inten    --      8.7421                11.2887                 1.2145

                     22                     23                     24
                      A                      A                      A
 Frequencies --   1020.0064              1101.2121              1130.0977
 Red. masses --      1.1253                 3.8905                 2.1570
 Frc consts  --      0.6898                 2.7797                 1.6231
 IR Inten    --     60.8175                59.8862                53.5147

                     25                     26                     27
                      A                      A                      A
 Frequencies --   1199.4907              1259.6600              1366.3917
 Red. masses --      1.6636                 8.2735                 1.2338
 Frc consts  --      1.4103                 7.7348                 1.3572
 IR Inten    --     92.7636               773.0999                 6.8335

                     28                     29                     30
                      A                      A                      A
 Frequencies --   1408.3280              1477.5217              1479.9965
 Red. masses --      1.3304                 1.0410                 1.0516
 Frc consts  --      1.5546                 1.3390                 1.3572
 IR Inten    --     17.8574                10.3681                 3.4054

                     31                     32                     33
                      A                      A                      A
 Frequencies --   1654.3219              1846.1596              2269.5779
 Red. masses --      1.0448                12.7692                 5.7421
 Frc consts  --      1.6847                25.6420                17.4266
 IR Inten    --     50.3687               334.4625                85.9909

                     34                     35                     36
                      A                      A                      A
 Frequencies --   3049.6993              3132.0859              3143.5938
 Red. masses --      1.0411                 1.0929                 1.0876
 Frc consts  --      5.7049                 6.3170                 6.3323
 IR Inten    --      0.4460                 3.0375                 7.1756

                     37                     38                     39
                      A                      A                      A
 Frequencies --   3167.3437              3488.2906              3851.9941
 Red. masses --      1.1020                 1.1715                 1.0658
 Frc consts  --      6.5136                 8.3987                 9.3176
 IR Inten    --      6.0961                63.4139                46.6298

 - Thermochemistry -
 -------------------
 Temperature   298.150 Kelvin.  Pressure   1.00000 Atm.
 Atom     1 has atomic number  8 and mass  15.99491

 Molecular mass:   115.03952 amu.
 Principal axes and moments of inertia in atomic units:
                           1         2         3
     Eigenvalues --   593.889761597.122841999.64664
           X            0.99936  -0.03578   0.00266
           Y            0.03583   0.99911  -0.02216
           Z           -0.00187   0.02224   0.99975
 This molecule is an asymmetric top.
 Rotational symmetry number  1.
 Warning -- assumption of classical behavior for rotation
           may cause significant error
 Rotational temperatures (Kelvin)      0.14584     0.05423     0.04331
 Rotational constants (GHZ):           3.03885     1.13000     0.90253
    1 imaginary frequencies ignored.
 Zero-point vibrational energy     278583.0 (Joules/Mol)
                                   66.58293 (Kcal/Mol)
 Warning -- explicit consideration of  12 degrees of freedom as
           vibrations may cause significant error
 Vibrational temperatures:     61.82   117.10   161.99   223.45   264.55
          (Kelvin)            297.66   320.83   391.37   423.45   615.31
                              777.29   873.29   918.93  1072.72  1098.98
                             1113.17  1122.81  1193.65  1291.43  1371.28
                             1467.56  1584.40  1625.96  1725.80  1812.37
                             1965.93  2026.27  2125.82  2129.38  2380.20
                             2656.21  3265.42  4387.84  4506.37  4522.93
                             4557.10  5018.87  5542.16

 Zero-point correction=                           0.106107 (Hartree/Particle)
 Thermal correction to Energy=                    0.115892
 Thermal correction to Enthalpy=                  0.116836
 Thermal correction to Gibbs Free Energy=         0.069956
 Sum of electronic and zero-point Energies=           -420.101964
 Sum of electronic and thermal Energies=              -420.092179
 Sum of electronic and thermal Enthalpies=            -420.091235
 Sum of electronic and thermal Free Energies=         -420.138115

                     E (Thermal)             CV                S
                      KCal/Mol        Cal/Mol-Kelvin    Cal/Mol-Kelvin
 Total                   72.723             33.275             98.668
 Electronic               0.000              0.000              1.377
 Translational            0.889              2.981             40.136
 Rotational               0.889              2.981             29.030
 Vibrational             70.946             27.314             28.125
 Vibration     1          0.595              1.980              5.117
 Vibration     2          0.600              1.962              3.857
 Vibration     3          0.607              1.939              3.224
 Vibration     4          0.620              1.897              2.606
 Vibration     5          0.631              1.862              2.289
 Vibration     6          0.641              1.830              2.071
 Vibration     7          0.649              1.806              1.935
 Vibration     8          0.675              1.725              1.583
 Vibration     9          0.689              1.684              1.449
 Vibration    10          0.789              1.410              0.866
 Vibration    11          0.895              1.161              0.565
 Vibration    12          0.966              1.017              0.438

 1\1\GINC-AJ\Freq\UM062X\6-311++G(d,p)\C5H7O3(2)\AAYUSH\16-Aug-2025\0\\
 # freq 6-311++g(d,p) m062x\\Title Card Required\\0,2\O,2.69395,1.73646
 6,-0.230021\H,1.894367,2.228038,0.001035\C,-3.134204,1.019925,0.422413
 \H,-4.014771,1.566064,0.669237\C,-2.144515,0.404911,0.144661\C,-0.9771
 8,-0.384121,-0.209724\O,-1.019747,-1.486066,-0.674543\O,0.157378,0.287
 853,0.056227\C,1.368777,-0.38283,-0.260154\C,1.833762,-1.298991,0.8336
 92\H,2.240906,0.708199,-0.335855\H,1.330411,-0.810565,-1.261492\H,2.81
 4009,-1.709066,0.589789\H,1.898756,-0.763478,1.781605\H,1.123907,-2.12

 Normal termination of Gaussian 16 at Sat Aug 16 14:46:09 2025.
