 Gaussian 16, Revision A.03,
 Gaussian 16:  ES64L-G16RevA.03 25-Dec-2016

 --------------------------
 # ccsd(t)/6-311++g(d,p) sp
 --------------------------

 -------------------
 Title Card Required
 -------------------
 Symbolic Z-matrix:
 Charge =  0 Multiplicity = 2

                         Standard orientation:
 ---------------------------------------------------------------------
 Center     Atomic      Atomic             Coordinates (Angstroms)
 Number     Number       Type             X           Y           Z
 ---------------------------------------------------------------------
      1          8           0        2.639895    1.754715   -0.248431
      2          1           0        1.827764    2.232681   -0.017301
      3          6           0       -3.192859    1.028698    0.403122
      4          1           0       -4.073435    1.574679    0.649904
      5          6           0       -2.203194    0.413640    0.125404
      6          6           0       -1.034642   -0.375281   -0.228502
      7          8           0       -1.078418   -1.477363   -0.693909
      8          8           0        0.096804    0.297058    0.036930
      9          6           0        1.316256   -0.369762   -0.281605
     10          6           0        1.773668   -1.292569    0.814987
     11          1           0        2.103355    0.565782   -0.368768
     12          1           0        1.256803   -0.821400   -1.272267
     13          1           0        2.755225   -1.700135    0.570724
     14          1           0        1.841050   -0.754001    1.760921
     15          1           0        1.067613   -2.121241    0.919602
 ---------------------------------------------------------------------

 SCF Done:  E(UHF) =  -417.963746293     A.U. after   33 cycles
 E2 =    -0.1282244054D+01 EUMP2 =    -0.41924599034738D+03
 CCSD(T)= -0.41934848862D+03

 The electronic state is 2-A.
 Alpha  occ. eigenvalues --  -20.62670 -20.62662 -20.57315 -11.42745 -11.31529
 Alpha  occ. eigenvalues --  -11.27548 -11.26771 -11.23094  -1.49560  -1.39852
 Alpha  occ. eigenvalues --   -1.38906  -1.08917  -1.05033  -0.93598  -0.85112
 Alpha  occ. eigenvalues --   -0.77853  -0.74387  -0.72695  -0.70090  -0.67856
 Alpha  occ. eigenvalues --   -0.66597  -0.60827  -0.59312  -0.56071  -0.55430
 Alpha  occ. eigenvalues --   -0.54218  -0.49912  -0.48735  -0.44145  -0.43476
 Alpha  occ. eigenvalues --   -0.43380
 Alpha virt. eigenvalues --    0.03450   0.04800   0.05975   0.06275   0.07684
 Alpha virt. eigenvalues --    0.08057   0.08858   0.09991   0.11081   0.11769
 Alpha virt. eigenvalues --    0.12037   0.13743   0.14531   0.15530   0.16420

  Beta  occ. eigenvalues --  -20.62713 -20.59092 -20.57313 -11.42703 -11.30226
  Beta  occ. eigenvalues --  -11.27544 -11.26775 -11.23165  -1.49448  -1.39432
  Beta  occ. eigenvalues --   -1.26565  -1.08445  -1.03730  -0.93321  -0.83110
  Beta  occ. eigenvalues --   -0.77316  -0.73627  -0.70586  -0.67492  -0.65849
  Beta  occ. eigenvalues --   -0.61426  -0.59011  -0.55850  -0.54585  -0.51196
  Beta  occ. eigenvalues --   -0.50443  -0.48970  -0.46929  -0.43468  -0.43411
  Beta virt. eigenvalues --    0.03421   0.04438   0.05236   0.06245   0.07017
  Beta virt. eigenvalues --    0.07741   0.08085   0.09109   0.10124   0.11368
  Beta virt. eigenvalues --    0.12002   0.12086   0.13788   0.14554   0.15604

 Mulliken charges and spin densities:
               1          2
     1  O   -0.298527   0.796816
     2  H    0.267008  -0.027844
     3  C   -0.615528   0.002242
     4  H    0.212815  -0.000138
     5  C    1.278372  -0.002701
     6  C   -0.744248   0.005366
     7  O   -0.278594   0.000129
     8  O   -0.063028  -0.030330
     9  C   -0.390895   0.453203
    10  C   -0.304778  -0.041541
    11  H    0.251558  -0.163268
    12  H    0.203440  -0.019646
    13  H    0.149527   0.001756
    14  H    0.157557   0.005707
    15  H    0.175321   0.020248
 Sum of Mulliken charges =  -0.00000   1.00000

 Dipole moment (field-independent basis, Debye):
    X=             -1.2196    Y=              1.7196    Z=              1.2557  Tot=              2.4539
 Quadrupole moment (field-independent basis, Debye-Ang):
   XX=            -44.8944   YY=            -47.7275   ZZ=            -48.4386
   XY=            -10.9548   XZ=             -2.2384   YZ=             -0.4448

 3-0=-419.2714787\MP4SDQ=-419.2942354\CCSD=-419.2939062\CCSD(T)=-419.34
 Normal termination of Gaussian 16 at Sat Jul  5 15:17:26 2025.
