 Gaussian 16, Revision A.03,
 Gaussian 16:  ES64L-G16RevA.03 25-Dec-2016

 --------------------------
 # ccsd(t)/6-311++g(d,p) sp
 --------------------------

 -------------------
 Title Card Required
 -------------------
 Symbolic Z-matrix:
 Charge =  0 Multiplicity = 2

                         Standard orientation:
 ---------------------------------------------------------------------
 Center     Atomic      Atomic             Coordinates (Angstroms)
 Number     Number       Type             X           Y           Z
 ---------------------------------------------------------------------
      1          8           0        2.637235    1.745486   -0.248111
      2          1           0        1.833754    2.232992   -0.016831
      3          6           0       -3.192710    1.029449    0.403457
      4          1           0       -4.072968    1.575947    0.650497
      5          6           0       -2.203378    0.413972    0.125460
      6          6           0       -1.036131   -0.375558   -0.229120
      7          8           0       -1.079691   -1.477285   -0.694663
      8          8           0        0.097825    0.295727    0.037076
      9          6           0        1.311750   -0.373663   -0.280219
     10          6           0        1.773444   -1.293310    0.813990
     11          1           0        2.154493    0.664781   -0.358275
     12          1           0        1.266577   -0.808592   -1.278533
     13          1           0        2.753837   -1.703084    0.569814
     14          1           0        1.839386   -0.757412    1.761550
     15          1           0        1.064126   -2.121399    0.915958
 ---------------------------------------------------------------------

 SCF Done:  E(UHF) =  -417.959454453     A.U. after   29 cycles
 E2 =    -0.1293994870D+01 EUMP2 =    -0.41925344932306D+03
 CCSD(T)= -0.41935191038D+03

 The electronic state is 2-A.
 Alpha  occ. eigenvalues --  -20.63749 -20.58914 -20.58099 -11.43604 -11.33853
 Alpha  occ. eigenvalues --  -11.28040 -11.27207 -11.24231  -1.50594  -1.40503
 Alpha  occ. eigenvalues --   -1.35681  -1.09796  -1.06089  -0.94578  -0.85857
 Alpha  occ. eigenvalues --   -0.79080  -0.74542  -0.72592  -0.70372  -0.68781
 Alpha  occ. eigenvalues --   -0.63664  -0.60839  -0.60076  -0.57141  -0.55178
 Alpha  occ. eigenvalues --   -0.51942  -0.50599  -0.49721  -0.43950  -0.43928
 Alpha  occ. eigenvalues --   -0.42902
 Alpha virt. eigenvalues --    0.03367   0.04644   0.06005   0.06404   0.07225
 Alpha virt. eigenvalues --    0.07842   0.08846   0.09818   0.11188   0.11644
 Alpha virt. eigenvalues --    0.11744   0.13517   0.14193   0.15307   0.16224

  Beta  occ. eigenvalues --  -20.63788 -20.58099 -20.56310 -11.43518 -11.31793
  Beta  occ. eigenvalues --  -11.28034 -11.27212 -11.24339  -1.50342  -1.40283
  Beta  occ. eigenvalues --   -1.27172  -1.08895  -1.04142  -0.94050  -0.83078
  Beta  occ. eigenvalues --   -0.78013  -0.74035  -0.71346  -0.68266  -0.64869
  Beta  occ. eigenvalues --   -0.61432  -0.59458  -0.56689  -0.55451  -0.51401
  Beta  occ. eigenvalues --   -0.49873  -0.48974  -0.48131  -0.43920  -0.43874
  Beta virt. eigenvalues --    0.03356   0.04387   0.05129   0.06059   0.06820
  Beta virt. eigenvalues --    0.07340   0.07855   0.09042   0.09935   0.11521
  Beta virt. eigenvalues --    0.11749   0.11861   0.13551   0.14235   0.15344

 Mulliken charges and spin densities:
               1          2
     1  O   -0.424849   0.537784
     2  H    0.259944  -0.018221
     3  C   -0.607532   0.003580
     4  H    0.215316  -0.000187
     5  C    1.285351  -0.005805
     6  C   -0.749860   0.010609
     7  O   -0.275719  -0.000523
     8  O   -0.045859  -0.052080
     9  C   -0.381338   0.762937
    10  C   -0.302844  -0.073656
    11  H    0.298415  -0.183083
    12  H    0.218694  -0.032977
    13  H    0.157549   0.003618
    14  H    0.170348   0.008887
    15  H    0.182383   0.039117
 Sum of Mulliken charges =  -0.00000   1.00000

 Dipole moment (field-independent basis, Debye):
    X=             -2.0258    Y=              0.5565    Z=              1.3213  Tot=              2.4818
 Quadrupole moment (field-independent basis, Debye-Ang):
   XX=            -46.9232   YY=            -49.4138   ZZ=            -48.0980
   XY=            -14.2213   XZ=             -2.0275   YZ=             -0.3021

 =-419.2751206\MP4SDQ=-419.2982402\CCSD=-419.2966211\CCSD(T)=-419.35191
 Normal termination of Gaussian 16 at Fri Jul  4 14:53:54 2025.
