 Gaussian 16, Revision A.03,
 Gaussian 16:  ES64L-G16RevA.03 25-Dec-2016

 --------------------------
 # ccsd(t)/6-311++g(d,p) sp
 --------------------------

 -------------------
 Title Card Required
 -------------------
 Symbolic Z-matrix:
 Charge =  0 Multiplicity = 2

                         Standard orientation:
 ---------------------------------------------------------------------
 Center     Atomic      Atomic             Coordinates (Angstroms)
 Number     Number       Type             X           Y           Z
 ---------------------------------------------------------------------
      1          8           0        2.636779    1.743371   -0.248051
      2          1           0        1.835470    2.233218   -0.016744
      3          6           0       -3.192628    1.029824    0.403516
      4          1           0       -4.072776    1.576498    0.650603
      5          6           0       -2.203415    0.414178    0.125466
      6          6           0       -1.036508   -0.375566   -0.229246
      7          8           0       -1.080103   -1.477222   -0.694801
      8          8           0        0.098074    0.295407    0.037097
      9          6           0        1.310452   -0.375060   -0.279926
     10          6           0        1.773263   -1.293628    0.813802
     11          1           0        2.168252    0.689268   -0.356312
     12          1           0        1.268491   -0.806071   -1.279909
     13          1           0        2.753382   -1.703963    0.569657
     14          1           0        1.838959   -0.758285    1.761723
     15          1           0        1.063238   -2.121595    0.915354
 ---------------------------------------------------------------------

 SCF Done:  E(UHF) =  -417.961317229     A.U. after   29 cycles
 E2 =    -0.1295553197D+01 EUMP2 =    -0.41925687042559D+03
 CCSD(T)= -0.41935395715D+03

 The electronic state is 2-A.
 Alpha  occ. eigenvalues --  -20.63992 -20.58270 -20.57907 -11.43793 -11.34188
 Alpha  occ. eigenvalues --  -11.28147 -11.27301 -11.24474  -1.50820  -1.40701
 Alpha  occ. eigenvalues --   -1.34869  -1.09997  -1.06298  -0.94790  -0.86025
 Alpha  occ. eigenvalues --   -0.79349  -0.74610  -0.72651  -0.70359  -0.69007
 Alpha  occ. eigenvalues --   -0.63265  -0.60839  -0.59961  -0.57362  -0.55358
 Alpha  occ. eigenvalues --   -0.51129  -0.50699  -0.49926  -0.44045  -0.44023
 Alpha  occ. eigenvalues --   -0.42617
 Alpha virt. eigenvalues --    0.03346   0.04597   0.05962   0.06474   0.07123
 Alpha virt. eigenvalues --    0.07792   0.08849   0.09776   0.11203   0.11614
 Alpha virt. eigenvalues --    0.11695   0.13465   0.14116   0.15254   0.16179

  Beta  occ. eigenvalues --  -20.64025 -20.58269 -20.55624 -11.43697 -11.31979
  Beta  occ. eigenvalues --  -11.28141 -11.27307 -11.24589  -1.50532  -1.40464
  Beta  occ. eigenvalues --   -1.27541  -1.08993  -1.04232  -0.94202  -0.83077
  Beta  occ. eigenvalues --   -0.78152  -0.74125  -0.71511  -0.68432  -0.64824
  Beta  occ. eigenvalues --   -0.61494  -0.59516  -0.56862  -0.55658  -0.51787
  Beta  occ. eigenvalues --   -0.50120  -0.48910  -0.48239  -0.44018  -0.43975
  Beta virt. eigenvalues --    0.03338   0.04407   0.05215   0.06015   0.06826
  Beta virt. eigenvalues --    0.07268   0.07805   0.09034   0.09896   0.11532
  Beta virt. eigenvalues --    0.11707   0.11840   0.13505   0.14164   0.15286

 Mulliken charges and spin densities:
               1          2
     1  O   -0.457764   0.459122
     2  H    0.258194  -0.015422
     3  C   -0.605890   0.003746
     4  H    0.215863  -0.000192
     5  C    1.287248  -0.006265
     6  C   -0.751709   0.011650
     7  O   -0.274935  -0.000656
     8  O   -0.042044  -0.056012
     9  C   -0.382119   0.825916
    10  C   -0.302026  -0.080002
    11  H    0.317480  -0.163126
    12  H    0.221498  -0.035892
    13  H    0.159210   0.004064
    14  H    0.172963   0.009506
    15  H    0.184030   0.043562
 Sum of Mulliken charges =  -0.00000   1.00000

 Dipole moment (field-independent basis, Debye):
    X=             -2.1991    Y=              0.2991    Z=              1.3309  Tot=              2.5878
 Quadrupole moment (field-independent basis, Debye-Ang):
   XX=            -47.3632   YY=            -49.8251   ZZ=            -48.0232
   XY=            -14.9557   XZ=             -1.9955   YZ=             -0.2739

 PMP3-0=-419.2772231\MP4SDQ=-419.3007081\CCSD=-419.2986937\CCSD(T)=-419
 Normal termination of Gaussian 16 at Sat Jul  5 21:59:56 2025.
