 Gaussian 16, Revision A.03,
 Gaussian 16:  ES64L-G16RevA.03 25-Dec-2016

 --------------------------
 # freq 6-311++g(d,p) m062x
 --------------------------

 -------------------
 Title Card Required
 -------------------
 Symbolic Z-matrix:
 Charge =  0 Multiplicity = 2

                         Standard orientation:
 ---------------------------------------------------------------------
 Center     Atomic      Atomic             Coordinates (Angstroms)
 Number     Number       Type             X           Y           Z
 ---------------------------------------------------------------------
      1          8           0        2.663924    1.793259   -0.242922
      2          1           0        1.822515    2.224295   -0.011876
      3          6           0       -3.189487    1.040319    0.403417
      4          1           0       -4.068786    1.588250    0.649843
      5          6           0       -2.201524    0.422299    0.126133
      6          6           0       -1.033008   -0.369110   -0.226452
      7          8           0       -1.083556   -1.471440   -0.692857
      8          8           0        0.097954    0.299669    0.035289
      9          6           0        1.311813   -0.397357   -0.292652
     10          6           0        1.764293   -1.306459    0.820448
     11          1           0        2.065889    0.392036   -0.454074
     12          1           0        1.184772   -0.913603   -1.244276
     13          1           0        2.746931   -1.713066    0.575476
     14          1           0        1.843317   -0.752147    1.756714
     15          1           0        1.066259   -2.135820    0.946741
 ---------------------------------------------------------------------

 SCF Done:  E(UM062X) =  -420.200963879     A.U. after   21 cycles

 The electronic state is 2-A.
 Alpha  occ. eigenvalues --  -19.69410 -19.68480 -19.64065 -10.71502 -10.61240
 Alpha  occ. eigenvalues --  -10.57694 -10.57268 -10.54210  -1.26625  -1.17378
 Alpha  occ. eigenvalues --   -1.14596  -0.91198  -0.87683  -0.78739  -0.71482
 Alpha  occ. eigenvalues --   -0.65633  -0.61960  -0.59965  -0.57879  -0.57053
 Alpha  occ. eigenvalues --   -0.55286  -0.50150  -0.49995  -0.47211  -0.45326
 Alpha  occ. eigenvalues --   -0.43678  -0.40823  -0.40215  -0.38274  -0.37857
 Alpha  occ. eigenvalues --   -0.36954
 Alpha virt. eigenvalues --   -0.02267  -0.00591   0.00653   0.01347   0.01963
 Alpha virt. eigenvalues --    0.03360   0.03555   0.04709   0.06012   0.06119
 Alpha virt. eigenvalues --    0.06640   0.07417   0.08181   0.09561   0.10357

  Beta  occ. eigenvalues --  -19.69417 -19.66976 -19.64062 -10.71496 -10.61030
  Beta  occ. eigenvalues --  -10.57694 -10.57269 -10.54213  -1.26590  -1.17313
  Beta  occ. eigenvalues --   -1.07609  -0.90933  -0.87425  -0.78636  -0.70862
  Beta  occ. eigenvalues --   -0.65454  -0.61735  -0.59318  -0.57269  -0.55087
  Beta  occ. eigenvalues --   -0.52591  -0.49927  -0.47508  -0.45982  -0.42437
  Beta  occ. eigenvalues --   -0.40361  -0.40189  -0.39375  -0.37852  -0.36942
  Beta virt. eigenvalues --   -0.10751  -0.02251  -0.00411   0.00709   0.01600
  Beta virt. eigenvalues --    0.02046   0.03387   0.03578   0.04882   0.06088
  Beta virt. eigenvalues --    0.06175   0.06701   0.07539   0.08220   0.09744

 Mulliken charges and spin densities:
               1          2
     1  O   -0.263030   0.874429
     2  H    0.262700  -0.018282
     3  C   -0.580289  -0.000098
     4  H    0.185991  -0.000032
     5  C    1.126435   0.003576
     6  C   -0.722496   0.000509
     7  O   -0.202134   0.001015
     8  O   -0.005717  -0.003658
     9  C   -0.476387   0.164776
    10  C   -0.338911   0.002280
    11  H    0.257120  -0.033553
    12  H    0.219004   0.001062
    13  H    0.175506  -0.000508
    14  H    0.175810   0.000739
    15  H    0.186398   0.007744
 Sum of Mulliken charges =  -0.00000   1.00000

 Dipole moment (field-independent basis, Debye):
    X=             -0.9674    Y=              1.4641    Z=              1.1512  Tot=              2.0988
 Quadrupole moment (field-independent basis, Debye-Ang):
   XX=            -45.0273   YY=            -47.2216   ZZ=            -48.3804
   XY=            -10.3097   XZ=             -2.0375   YZ=             -0.3291

  Exact polarizability:  91.207  -5.158  77.111  -4.044   4.204  51.232
 Approx polarizability:  93.779  -9.930  88.650  -6.542  10.574  60.432

 ******    2 imaginary frequencies (negative Signs) ******

                      1                      2                      3
                      A                      A                      A
 Frequencies --   -215.9901              -104.7973                37.0964
 Red. masses --      2.4932                 4.0323                 5.7248
 Frc consts  --      0.0685                 0.0261                 0.0046
 IR Inten    --     23.5638                 0.7409                12.0992

                      4                      5                      6
                      A                      A                      A
 Frequencies --     56.4327                95.3128               148.9646
 Red. masses --      4.6590                 4.6925                 3.6504
 Frc consts  --      0.0087                 0.0251                 0.0477
 IR Inten    --      4.8926                 5.3058                 9.7905

                      7                      8                      9
                      A                      A                      A
 Frequencies --    218.1876               225.5480               269.9953
 Red. masses --      1.0854                 1.2315                 4.1300
 Frc consts  --      0.0304                 0.0369                 0.1774
 IR Inten    --    107.7942                 1.6267                 2.8869

                     10                     11                     12
                      A                      A                      A
 Frequencies --    323.6026               420.0023               560.2405
 Red. masses --      3.1155                 3.7842                 3.8265
 Frc consts  --      0.1922                 0.3933                 0.7076
 IR Inten    --     11.4524                 2.5679                 3.4590

                     13                     14                     15
                      A                      A                      A
 Frequencies --    597.7878               633.6923               742.1208
 Red. masses --      3.0562                 1.5397                 1.3124
 Frc consts  --      0.6435                 0.3643                 0.4258
 IR Inten    --     24.2093               169.5164                37.1117

                     16                     17                     18
                      A                      A                      A
 Frequencies --    756.2593               772.9491               786.1331
 Red. masses --      1.2743                 1.4102                 6.1454
 Frc consts  --      0.4294                 0.4964                 2.2377
 IR Inten    --     13.1093                23.6371                38.2705

                     19                     20                     21
                      A                      A                      A
 Frequencies --    894.2204               936.5219              1088.8500
 Red. masses --      3.2073                 2.7944                 3.6637
 Frc consts  --      1.5111                 1.4440                 2.5592
 IR Inten    --     11.9490                 4.5674                51.5117

                     22                     23                     24
                      A                      A                      A
 Frequencies --   1129.2526              1173.1706              1274.1546
 Red. masses --      2.0858                 1.8595                 3.7799
 Frc consts  --      1.5671                 1.5079                 3.6156
 IR Inten    --     34.0890                38.0827               579.0656

                     25                     26                     27
                      A                      A                      A
 Frequencies --   1315.3283              1383.4973              1418.8751
 Red. masses --      1.3592                 1.2310                 1.3509
 Frc consts  --      1.3855                 1.3882                 1.6024
 IR Inten    --    218.6867                 4.0171                13.2575

                     28                     29                     30
                      A                      A                      A
 Frequencies --   1464.5759              1488.9309              1503.5376
 Red. masses --      1.1047                 1.0402                 1.0591
 Frc consts  --      1.3961                 1.3587                 1.4106
 IR Inten    --     25.6864                12.1638                11.2612

                     31                     32                     33
                      A                      A                      A
 Frequencies --   1845.5509              2269.4923              2572.7615
 Red. masses --     12.3002                 5.7450                 1.0967
 Frc consts  --     24.6840                17.4339                 4.2771
 IR Inten    --    346.2865                74.8790               762.0512

                     34                     35                     36
                      A                      A                      A
 Frequencies --   3072.3580              3131.2616              3152.9495
 Red. masses --      1.0346                 1.0867                 1.1026
 Frc consts  --      5.7540                 6.2777                 6.4579
 IR Inten    --      6.5827                 3.9435                 8.2601

                     37                     38                     39
                      A                      A                      A
 Frequencies --   3158.3443              3489.9151              3774.2269
 Red. masses --      1.1024                 1.1711                 1.0670
 Frc consts  --      6.4788                 8.4039                 8.9550
 IR Inten    --     10.2856                62.1932                34.3855

 - Thermochemistry -
 -------------------
 Temperature   298.150 Kelvin.  Pressure   1.00000 Atm.
 Atom     1 has atomic number  8 and mass  15.99491

 Molecular mass:   115.03952 amu.
 Principal axes and moments of inertia in atomic units:
                           1         2         3
     Eigenvalues --   606.533351601.328982015.34571
           X            0.99922  -0.03947   0.00275
           Y            0.03952   0.99901  -0.02055
           Z           -0.00194   0.02065   0.99978
 This molecule is an asymmetric top.
 Rotational symmetry number  1.
 Warning -- assumption of classical behavior for rotation
           may cause significant error
 Rotational temperatures (Kelvin)      0.14280     0.05409     0.04298
 Rotational constants (GHZ):           2.97550     1.12703     0.89550
    2 imaginary frequencies ignored.
 Zero-point vibrational energy     288193.0 (Joules/Mol)
                                   68.87977 (Kcal/Mol)
 Warning -- explicit consideration of  11 degrees of freedom as
           vibrations may cause significant error
 Vibrational temperatures:     53.37    81.19   137.13   214.33   313.92
          (Kelvin)            324.51   388.46   465.59   604.29   806.06
                              860.08   911.74  1067.75  1088.09  1112.10
                             1131.07  1286.58  1347.45  1566.61  1624.74
                             1687.93  1833.22  1892.46  1990.54  2041.44
                             2107.20  2142.24  2163.26  2655.34  3265.29
                             3701.63  4420.44  4505.19  4536.39  4544.15
                             5021.21  5430.27

 Zero-point correction=                           0.109767 (Hartree/Particle)
 Thermal correction to Energy=                    0.118936
 Thermal correction to Enthalpy=                  0.119880
 Thermal correction to Gibbs Free Energy=         0.073625
 Sum of electronic and zero-point Energies=           -420.091197
 Sum of electronic and thermal Energies=              -420.082028
 Sum of electronic and thermal Enthalpies=            -420.081084
 Sum of electronic and thermal Free Energies=         -420.127339

                     E (Thermal)             CV                S
                      KCal/Mol        Cal/Mol-Kelvin    Cal/Mol-Kelvin
 Total                   74.633             30.641             97.352
 Electronic               0.000              0.000              1.377
 Translational            0.889              2.981             40.136
 Rotational               0.889              2.981             29.061
 Vibrational             72.856             24.679             26.779
 Vibration     1          0.594              1.982              5.408
 Vibration     2          0.596              1.975              4.578
 Vibration     3          0.603              1.953              3.548
 Vibration     4          0.618              1.904              2.685
 Vibration     5          0.646              1.813              1.974
 Vibration     6          0.650              1.802              1.914
 Vibration     7          0.674              1.728              1.596
 Vibration     8          0.708              1.628              1.292
 Vibration     9          0.783              1.427              0.892
 Vibration    10          0.916              1.117              0.523
 Vibration    11          0.956              1.036              0.453

 1\1\GINC-AJ\Freq\UM062X\6-311++G(d,p)\C5H7O3(2)\AAYUSH\16-Aug-2025\0\\
 # freq 6-311++g(d,p) m062x\\Title Card Required\\0,2\O,2.716442,1.7895
 47,-0.22383\H,1.873832,2.218231,0.007216\C,-3.134843,1.020259,0.422509
 \H,-4.015669,1.565731,0.668935\C,-2.145157,0.405001,0.145225\C,-0.9744
 35,-0.383141,-0.20736\O,-1.021903,-1.485608,-0.673765\O,0.154655,0.288
 795,0.054381\C,1.370456,-0.404838,-0.27356\C,1.825474,-1.312672,0.8395
 4\H,2.122324,0.386659,-0.434982\H,1.244857,-0.921436,-1.225184\H,2.809
 244,-1.716532,0.594568\H,1.902949,-0.758141,1.775806\H,1.129759,-2.143

 Normal termination of Gaussian 16 at Sat Aug 16 15:24:01 2025.
