 Gaussian 16, Revision A.03,
 Gaussian 16:  ES64L-G16RevA.03 25-Dec-2016

 -------------------
 # freq 6-31+g m062x
 -------------------

 -------------------
 Title Card Required
 -------------------
 Symbolic Z-matrix:
 Charge =  0 Multiplicity = 2

                         Standard orientation:
 ---------------------------------------------------------------------
 Center     Atomic      Atomic             Coordinates (Angstroms)
 Number     Number       Type             X           Y           Z
 ---------------------------------------------------------------------
      1          8           0        2.636394    1.741313   -0.247978
      2          1           0        1.837295    2.233542   -0.016643
      3          6           0       -3.192531    1.030258    0.403574
      4          1           0       -4.072559    1.577125    0.650709
      5          6           0       -2.203449    0.414426    0.125472
      6          6           0       -1.036892   -0.375552   -0.229369
      7          8           0       -1.080548   -1.477138   -0.694938
      8          8           0        0.098330    0.295087    0.037115
      9          6           0        1.309068   -0.376613   -0.279638
     10          6           0        1.773046   -1.293988    0.813617
     11          1           0        2.182312    0.713580   -0.354540
     12          1           0        1.270336   -0.803629   -1.281269
     13          1           0        2.752892   -1.704894    0.569503
     14          1           0        1.838520   -0.759184    1.761898
     15          1           0        1.062342   -2.121833    0.914812
 ---------------------------------------------------------------------

 SCF Done:  E(UM062X) =  -419.953713392     A.U. after   18 cycles

 The electronic state is 2-A.
 Alpha  occ. eigenvalues --  -19.73383 -19.68522 -19.65270 -10.75156 -10.65492
 Alpha  occ. eigenvalues --  -10.60071 -10.59716 -10.56728  -1.30549  -1.21265
 Alpha  occ. eigenvalues --   -1.13169  -0.93059  -0.89403  -0.80881  -0.72656
 Alpha  occ. eigenvalues --   -0.67550  -0.62919  -0.61333  -0.59841  -0.58566
 Alpha  occ. eigenvalues --   -0.52840  -0.52164  -0.49378  -0.48400  -0.46281
 Alpha  occ. eigenvalues --   -0.41651  -0.41345  -0.39193  -0.38912  -0.38212
 Alpha  occ. eigenvalues --   -0.32297
 Alpha virt. eigenvalues --   -0.03451   0.01584   0.02099   0.03008   0.03139
 Alpha virt. eigenvalues --    0.04053   0.04750   0.05999   0.07461   0.07775
 Alpha virt. eigenvalues --    0.08008   0.08504   0.09733   0.10652   0.12069

  Beta  occ. eigenvalues --  -19.73353 -19.68515 -19.64499 -10.75114 -10.64757
  Beta  occ. eigenvalues --  -10.60070 -10.59716 -10.56746  -1.30360  -1.21056
  Beta  occ. eigenvalues --   -1.10542  -0.92313  -0.88649  -0.80452  -0.71531
  Beta  occ. eigenvalues --   -0.66586  -0.62670  -0.60379  -0.58773  -0.56788
  Beta  occ. eigenvalues --   -0.51772  -0.51235  -0.48582  -0.47144  -0.43680
  Beta  occ. eigenvalues --   -0.41275  -0.40747  -0.38894  -0.38188  -0.37690
  Beta virt. eigenvalues --   -0.10158  -0.03340   0.01596   0.02127   0.03097
  Beta virt. eigenvalues --    0.03228   0.04079   0.04806   0.06018   0.07479
  Beta virt. eigenvalues --    0.07787   0.08069   0.08541   0.09905   0.10684

 Mulliken charges and spin densities:
               1          2
     1  O   -0.628176   0.360983
     2  H    0.413434  -0.008516
     3  C    0.233812   0.010562
     4  H    0.352027  -0.000025
     5  C    0.139142   0.004174
     6  C   -0.466400  -0.000609
     7  O   -0.324011   0.005104
     8  O   -0.265340  -0.028284
     9  C   -0.251327   0.737074
    10  C   -0.516815  -0.048564
    11  H    0.345041  -0.065957
    12  H    0.250659  -0.020194
    13  H    0.232359   0.001960
    14  H    0.240736   0.009283
    15  H    0.244859   0.043010
 Sum of Mulliken charges =  -0.00000   1.00000

 Dipole moment (field-independent basis, Debye):
    X=             -2.5262    Y=             -0.1180    Z=              1.3335  Tot=              2.8590
 Quadrupole moment (field-independent basis, Debye-Ang):
   XX=            -49.4290   YY=            -50.2465   ZZ=            -48.3366
   XY=            -15.4665   XZ=             -1.4647   YZ=             -0.4504

  Exact polarizability:  89.621  -2.752  77.201  -4.475   4.484  47.611
 Approx polarizability:  90.178  -7.467  89.017  -7.161  11.687  51.910

 ******    4 imaginary frequencies (negative Signs) ******

                      1                      2                      3
                      A                      A                      A
 Frequencies --  -1101.4524              -462.8361              -116.0442
 Red. masses --      1.1854                 1.0462                 7.8824
 Frc consts  --      0.8473                 0.1320                 0.0625
 IR Inten    --    471.4848               118.3710                 2.7685

                      4                      5                      6
                      A                      A                      A
 Frequencies --     -8.9061                44.7717               106.5366
 Red. masses --      4.9491                 3.8213                 2.9166
 Frc consts  --      0.0002                 0.0045                 0.0195
 IR Inten    --      5.1787                 7.4376                15.0113

                      7                      8                      9
                      A                      A                      A
 Frequencies --    137.1645               164.3427               256.8484
 Red. masses --      1.5749                 2.0545                 4.4571
 Frc consts  --      0.0175                 0.0327                 0.1732
 IR Inten    --      4.4775                 3.6289                 1.1001

                     10                     11                     12
                      A                      A                      A
 Frequencies --    271.9312               427.0341               541.6783
 Red. masses --      5.0109                 3.5225                 5.0431
 Frc consts  --      0.2183                 0.3785                 0.8718
 IR Inten    --     14.8402                 9.7005                 1.0392

                     13                     14                     15
                      A                      A                      A
 Frequencies --    603.8284               640.5552               667.2453
 Red. masses --      1.8918                 2.5510                 1.8046
 Frc consts  --      0.4064                 0.6167                 0.4734
 IR Inten    --     40.7004                 4.7779               110.2720

                     16                     17                     18
                      A                      A                      A
 Frequencies --    776.7846               818.4967               829.6987
 Red. masses --      3.2670                 1.4360                 1.2453
 Frc consts  --      1.1615                 0.5668                 0.5051
 IR Inten    --     69.2174                53.3276                 9.8353

                     19                     20                     21
                      A                      A                      A
 Frequencies --    876.2840               896.1585               968.2647
 Red. masses --      1.8589                 3.8881                 2.8727
 Frc consts  --      0.8410                 1.8397                 1.5868
 IR Inten    --     23.2506                16.1954                 6.3887

                     22                     23                     24
                      A                      A                      A
 Frequencies --   1039.5671              1138.5862              1161.3249
 Red. masses --      1.1360                 3.6878                 2.1015
 Frc consts  --      0.7233                 2.8167                 1.6699
 IR Inten    --     90.2422                10.4227                43.6073

                     25                     26                     27
                      A                      A                      A
 Frequencies --   1223.0431              1309.2558              1395.3069
 Red. masses --      1.6416                 9.4627                 1.2980
 Frc consts  --      1.4467                 9.5569                 1.4889
 IR Inten    --     63.7503               782.7642                 5.3676

                     28                     29                     30
                      A                      A                      A
 Frequencies --   1445.1011              1510.6157              1514.5896
 Red. masses --      1.2380                 1.0417                 1.0519
 Frc consts  --      1.5232                 1.4005                 1.4218
 IR Inten    --     22.9260                13.9206                 8.2212

                     31                     32                     33
                      A                      A                      A
 Frequencies --   1728.1623              1911.7587              2333.0243
 Red. masses --      1.0509                12.8284                 5.5470
 Frc consts  --      1.8491                27.6241                17.7888
 IR Inten    --    120.2074               304.3034                86.8435

                     34                     35                     36
                      A                      A                      A
 Frequencies --   3081.0097              3168.6121              3181.0742
 Red. masses --      1.0403                 1.0917                 1.0867
 Frc consts  --      5.8180                 6.4579                 6.4790
 IR Inten    --      0.8101                 4.0848                 8.0957

                     37                     38                     39
                      A                      A                      A
 Frequencies --   3206.0449              3531.2286              3870.2676
 Red. masses --      1.1001                 1.1797                 1.0643
 Frc consts  --      6.6625                 8.6669                 9.3932
 IR Inten    --      7.5116                56.0363                31.8977

 - Thermochemistry -
 -------------------
 Temperature   298.150 Kelvin.  Pressure   1.00000 Atm.
 Atom     1 has atomic number  8 and mass  15.99491

 Molecular mass:   115.03952 amu.
 Principal axes and moments of inertia in atomic units:
                           1         2         3
     Eigenvalues --   593.889761597.122841999.64664
           X            0.99936  -0.03578   0.00266
           Y            0.03583   0.99911  -0.02216
           Z           -0.00187   0.02224   0.99975
 This molecule is an asymmetric top.
 Rotational symmetry number  1.
 Warning -- assumption of classical behavior for rotation
           may cause significant error
 Rotational temperatures (Kelvin)      0.14584     0.05423     0.04331
 Rotational constants (GHZ):           3.03885     1.13000     0.90253
    4 imaginary frequencies ignored.
 Zero-point vibrational energy     279783.8 (Joules/Mol)
                                   66.86993 (Kcal/Mol)
 Warning -- explicit consideration of   9 degrees of freedom as
           vibrations may cause significant error
 Vibrational temperatures:     64.42   153.28   197.35   236.45   369.55
          (Kelvin)            391.25   614.41   779.35   868.77   921.62
                              960.02  1117.62  1177.63  1193.75  1260.78
                             1289.37  1393.12  1495.71  1638.17  1670.89
                             1759.69  1883.73  2007.54  2079.18  2173.44
                             2179.16  2486.44  2750.59  3356.70  4432.89
                             4558.93  4576.86  4612.78  5080.65  5568.45

 Zero-point correction=                           0.106564 (Hartree/Particle)
 Thermal correction to Energy=                    0.114594
 Thermal correction to Enthalpy=                  0.115538
 Thermal correction to Gibbs Free Energy=         0.072093
 Sum of electronic and zero-point Energies=           -419.847149
 Sum of electronic and thermal Energies=              -419.839119
 Sum of electronic and thermal Enthalpies=            -419.838175
 Sum of electronic and thermal Free Energies=         -419.881620

                     E (Thermal)             CV                S
                      KCal/Mol        Cal/Mol-Kelvin    Cal/Mol-Kelvin
 Total                   71.909             27.507             91.438
 Electronic               0.000              0.000              1.377
 Translational            0.889              2.981             40.136
 Rotational               0.889              2.981             29.030
 Vibrational             70.131             21.546             20.895
 Vibration     1          0.595              1.979              5.036
 Vibration     2          0.605              1.944              3.331
 Vibration     3          0.614              1.916              2.843
 Vibration     4          0.623              1.886              2.499
 Vibration     5          0.666              1.751              1.683
 Vibration     6          0.675              1.725              1.584
 Vibration     7          0.789              1.411              0.868
 Vibration     8          0.897              1.158              0.562
 Vibration     9          0.962              1.024              0.443

 Normal termination of Gaussian 16 at Fri Jun 20 12:47:24 2025.
