 Gaussian 16, Revision A.03,
 Gaussian 16:  ES64L-G16RevA.03 25-Dec-2016

 --------------------------
 # ccsd(t)/6-311++g(d,p) sp
 --------------------------

 -------------------
 Title Card Required
 -------------------
 Symbolic Z-matrix:
 Charge =  0 Multiplicity = 2

                         Standard orientation:
 ---------------------------------------------------------------------
 Center     Atomic      Atomic             Coordinates (Angstroms)
 Number     Number       Type             X           Y           Z
 ---------------------------------------------------------------------
      1          8           0        2.656184    1.782296   -0.244867
      2          1           0        1.822947    2.228135   -0.013856
      3          6           0       -3.190786    1.035859    0.403319
      4          1           0       -4.070619    1.582893    0.649895
      5          6           0       -2.202169    0.418984    0.125826
      6          6           0       -1.032954   -0.371278   -0.227009
      7          8           0       -1.081151   -1.473540   -0.693371
      8          8           0        0.096591    0.299576    0.036162
      9          6           0        1.314816   -0.386110   -0.288834
     10          6           0        1.767499   -1.301506    0.818438
     11          1           0        2.067631    0.422862   -0.427118
     12          1           0        1.206418   -0.885463   -1.251875
     13          1           0        2.750594   -1.706643    0.573409
     14          1           0        1.842936   -0.752546    1.758101
     15          1           0        1.068669   -2.131593    0.937635
 ---------------------------------------------------------------------

 SCF Done:  E(UHF) =  -417.980141768     A.U. after   35 cycles
 E2 =    -0.1269406490D+01 EUMP2 =    -0.41924954825866D+03
 CCSD(T)= -0.41935106526D+03

 The electronic state is 2-A.
 Alpha  occ. eigenvalues --  -20.64262 -20.62219 -20.56899 -11.42334 -11.29579
 Alpha  occ. eigenvalues --  -11.27279 -11.26541 -11.22525  -1.49033  -1.40526
 Alpha  occ. eigenvalues --   -1.38866  -1.08511  -1.04569  -0.93030  -0.84854
 Alpha  occ. eigenvalues --   -0.77325  -0.74040  -0.72245  -0.69682  -0.68590
 Alpha  occ. eigenvalues --   -0.67013  -0.61059  -0.58851  -0.56920  -0.55410
 Alpha  occ. eigenvalues --   -0.53849  -0.49574  -0.48628  -0.46262  -0.43229
 Alpha  occ. eigenvalues --   -0.43153
 Alpha virt. eigenvalues --    0.03486   0.04820   0.05863   0.06321   0.07928
 Alpha virt. eigenvalues --    0.08148   0.08893   0.10062   0.10957   0.11839
 Alpha virt. eigenvalues --    0.12194   0.13856   0.14682   0.15628   0.16545

  Beta  occ. eigenvalues --  -20.62255 -20.60248 -20.56896 -11.42323 -11.28985
  Beta  occ. eigenvalues --  -11.27278 -11.26543 -11.22557  -1.49002  -1.38946
  Beta  occ. eigenvalues --   -1.25483  -1.08276  -1.03914  -0.92908  -0.83626
  Beta  occ. eigenvalues --   -0.77129  -0.73458  -0.70287  -0.67117  -0.65920
  Beta  occ. eigenvalues --   -0.62285  -0.58748  -0.55478  -0.54271  -0.52027
  Beta  occ. eigenvalues --   -0.50234  -0.48906  -0.47076  -0.43225  -0.43156
  Beta virt. eigenvalues --    0.03458   0.04588   0.05360   0.06304   0.07572
  Beta virt. eigenvalues --    0.07968   0.08201   0.09291   0.10211   0.11130
  Beta virt. eigenvalues --    0.12159   0.12236   0.13965   0.14696   0.15743

 Mulliken charges and spin densities:
               1          2
     1  O   -0.235922   0.938634
     2  H    0.268135  -0.033911
     3  C   -0.631824   0.000488
     4  H    0.210720  -0.000063
     5  C    1.286966   0.000976
     6  C   -0.746161   0.000193
     7  O   -0.278826   0.000743
     8  O   -0.076071  -0.008776
     9  C   -0.396791   0.181847
    10  C   -0.304095  -0.009914
    11  H    0.243852  -0.073519
    12  H    0.193885  -0.006233
    13  H    0.144494   0.000197
    14  H    0.149754   0.002526
    15  H    0.171885   0.006812
 Sum of Mulliken charges =  -0.00000   1.00000

 Dipole moment (field-independent basis, Debye):
    X=             -0.7989    Y=              2.2348    Z=              1.1981  Tot=              2.6585
 Quadrupole moment (field-independent basis, Debye-Ang):
   XX=            -43.9924   YY=            -46.9861   ZZ=            -48.6181
   XY=             -9.4964   XZ=             -2.4168   YZ=             -0.4862

 3-0=-419.2765416\MP4SDQ=-419.2992232\CCSD=-419.2980969\CCSD(T)=-419.35
 Normal termination of Gaussian 16 at Wed Aug 20 11:13:36 2025.
