 Gaussian 16, Revision A.03,
 Gaussian 16:  ES64L-G16RevA.03 25-Dec-2016

 --------------------------
 # ccsd(t)/6-311++g(d,p) sp
 --------------------------

 -------------------
 Title Card Required
 -------------------
 Symbolic Z-matrix:
 Charge =  0 Multiplicity = 2

                         Standard orientation:
 ---------------------------------------------------------------------
 Center     Atomic      Atomic             Coordinates (Angstroms)
 Number     Number       Type             X           Y           Z
 ---------------------------------------------------------------------
      1          8           0        2.651146    1.774934   -0.246019
      2          1           0        1.823337    2.230090   -0.014992
      3          6           0       -3.191577    1.033124    0.403256
      4          1           0       -4.071742    1.579621    0.649910
      5          6           0       -2.202528    0.416993    0.125664
      6          6           0       -1.033059   -0.372613   -0.227407
      7          8           0       -1.079822   -1.474838   -0.693628
      8          8           0        0.096051    0.299208    0.036549
      9          6           0        1.316493   -0.379296   -0.286532
     10          6           0        1.769597   -1.298332    0.817226
     11          1           0        2.069849    0.447658   -0.409412
     12          1           0        1.221027   -0.866731   -1.257172
     13          1           0        2.752686   -1.703253    0.572335
     14          1           0        1.842692   -0.752627    1.758914
     15          1           0        1.069601   -2.128443    0.931954
 ---------------------------------------------------------------------

 SCF Done:  E(UHF) =  -417.977645528     A.U. after   33 cycles
 E2 =    -0.1270978295D+01 EUMP2 =    -0.41924862382264D+03
 CCSD(T)= -0.41935042165D+03

 The electronic state is 2-A.
 Alpha  occ. eigenvalues --  -20.64161 -20.62227 -20.56925 -11.42354 -11.29744
 Alpha  occ. eigenvalues --  -11.27294 -11.26554 -11.22556  -1.49069  -1.40537
 Alpha  occ. eigenvalues --   -1.38901  -1.08541  -1.04597  -0.93085  -0.84896
 Alpha  occ. eigenvalues --   -0.77336  -0.74130  -0.72392  -0.69723  -0.68504
 Alpha  occ. eigenvalues --   -0.67037  -0.60965  -0.58889  -0.56843  -0.55440
 Alpha  occ. eigenvalues --   -0.53855  -0.49593  -0.48542  -0.45971  -0.43243
 Alpha  occ. eigenvalues --   -0.43168
 Alpha virt. eigenvalues --    0.03483   0.04818   0.05865   0.06323   0.07914
 Alpha virt. eigenvalues --    0.08145   0.08885   0.10061   0.10982   0.11835
 Alpha virt. eigenvalues --    0.12187   0.13849   0.14677   0.15623   0.16526

  Beta  occ. eigenvalues --  -20.62266 -20.60182 -20.56922 -11.42340 -11.29067
  Beta  occ. eigenvalues --  -11.27293 -11.26556 -11.22593  -1.49030  -1.38987
  Beta  occ. eigenvalues --   -1.25697  -1.08278  -1.03861  -0.92946  -0.83546
  Beta  occ. eigenvalues --   -0.77107  -0.73461  -0.70298  -0.67145  -0.66010
  Beta  occ. eigenvalues --   -0.62130  -0.58768  -0.55484  -0.54281  -0.52011
  Beta  occ. eigenvalues --   -0.50242  -0.48859  -0.47025  -0.43238  -0.43171
  Beta virt. eigenvalues --    0.03454   0.04563   0.05355   0.06306   0.07496
  Beta virt. eigenvalues --    0.07955   0.08198   0.09252   0.10212   0.11182
  Beta virt. eigenvalues --    0.12147   0.12229   0.13948   0.14692   0.15736

 Mulliken charges and spin densities:
               1          2
     1  O   -0.241633   0.924084
     2  H    0.268239  -0.033274
     3  C   -0.627193   0.000680
     4  H    0.211025  -0.000071
     5  C    1.281846   0.000555
     6  C   -0.744979   0.000835
     7  O   -0.279248   0.000678
     8  O   -0.075706  -0.011168
     9  C   -0.395000   0.211360
    10  C   -0.305737  -0.013573
    11  H    0.246673  -0.083720
    12  H    0.194067  -0.007861
    13  H    0.145017   0.000379
    14  H    0.150301   0.002909
    15  H    0.172329   0.008188
 Sum of Mulliken charges =  -0.00000   1.00000

 Dipole moment (field-independent basis, Debye):
    X=             -0.8208    Y=              2.2189    Z=              1.2053  Tot=              2.6552
 Quadrupole moment (field-independent basis, Debye-Ang):
   XX=            -44.0080   YY=            -47.0263   ZZ=            -48.6058
   XY=             -9.5436   XZ=             -2.3969   YZ=             -0.4955

 P3-0=-419.2754485\MP4SDQ=-419.2981781\CCSD=-419.2972253\CCSD(T)=-419.3
 Normal termination of Gaussian 16 at Tue Aug 19 21:40:01 2025.
