 Gaussian 16, Revision A.03,
 Gaussian 16:  ES64L-G16RevA.03 25-Dec-2016

 --------------------------
 # freq 6-311++g(d,p) m062x
 --------------------------

 -------------------
 Title Card Required
 -------------------
 Symbolic Z-matrix:
 Charge =  0 Multiplicity = 2

                         Standard orientation:
 ---------------------------------------------------------------------
 Center     Atomic      Atomic             Coordinates (Angstroms)
 Number     Number       Type             X           Y           Z
 ---------------------------------------------------------------------
      1          8           0        2.658748    1.785958   -0.244246
      2          1           0        1.822782    2.226956   -0.013229
      3          6           0       -3.190366    1.037307    0.403352
      4          1           0       -4.070023    1.584631    0.649883
      5          6           0       -2.201967    0.420050    0.125919
      6          6           0       -1.032950   -0.370572   -0.226818
      7          8           0       -1.081899   -1.472855   -0.693217
      8          8           0        0.096981    0.299670    0.035912
      9          6           0        1.313849   -0.389762   -0.290058
     10          6           0        1.766434   -1.303141    0.819087
     11          1           0        2.067023    0.412011   -0.436143
     12          1           0        1.199101   -0.894907   -1.249290
     13          1           0        2.749434   -1.708622    0.574040
     14          1           0        1.843054   -0.752458    1.757664
     15          1           0        1.067992   -2.133085    0.940607
 ---------------------------------------------------------------------

 SCF Done:  E(UM062X) =  -420.200397959     A.U. after   21 cycles

 The electronic state is 2-A.
 Alpha  occ. eigenvalues --  -19.69458 -19.68246 -19.64111 -10.71548 -10.61413
 Alpha  occ. eigenvalues --  -10.57719 -10.57292 -10.54287  -1.26689  -1.17446
 Alpha  occ. eigenvalues --   -1.14448  -0.91268  -0.87738  -0.78823  -0.71557
 Alpha  occ. eigenvalues --   -0.65683  -0.62005  -0.60067  -0.57967  -0.57099
 Alpha  occ. eigenvalues --   -0.55147  -0.50186  -0.50032  -0.47254  -0.45357
 Alpha  occ. eigenvalues --   -0.43488  -0.40805  -0.40234  -0.38036  -0.37882
 Alpha  occ. eigenvalues --   -0.36982
 Alpha virt. eigenvalues --   -0.02299  -0.00581   0.00647   0.01353   0.01953
 Alpha virt. eigenvalues --    0.03346   0.03541   0.04699   0.06016   0.06109
 Alpha virt. eigenvalues --    0.06634   0.07420   0.08168   0.09546   0.10337

  Beta  occ. eigenvalues --  -19.69464 -19.66760 -19.64108 -10.71542 -10.61181
  Beta  occ. eigenvalues --  -10.57719 -10.57292 -10.54290  -1.26648  -1.17378
  Beta  occ. eigenvalues --   -1.07688  -0.90970  -0.87455  -0.78705  -0.70881
  Beta  occ. eigenvalues --   -0.65480  -0.61755  -0.59362  -0.57322  -0.55165
  Beta  occ. eigenvalues --   -0.52457  -0.49999  -0.47542  -0.46040  -0.42505
  Beta  occ. eigenvalues --   -0.40297  -0.40141  -0.39398  -0.37877  -0.36969
  Beta virt. eigenvalues --   -0.10856  -0.02281  -0.00408   0.00703   0.01604
  Beta virt. eigenvalues --    0.02037   0.03376   0.03566   0.04873   0.06097
  Beta virt. eigenvalues --    0.06164   0.06702   0.07541   0.08207   0.09729

 Mulliken charges and spin densities:
               1          2
     1  O   -0.271149   0.855645
     2  H    0.261763  -0.018152
     3  C   -0.576167  -0.000072
     4  H    0.186271  -0.000033
     5  C    1.121759   0.003725
     6  C   -0.721691   0.001105
     7  O   -0.202190   0.001000
     8  O   -0.005565  -0.004247
     9  C   -0.477573   0.183513
    10  C   -0.340189   0.001492
    11  H    0.264800  -0.034224
    12  H    0.219862   0.000612
    13  H    0.176231  -0.000396
    14  H    0.176639   0.000997
    15  H    0.187200   0.009035
 Sum of Mulliken charges =  -0.00000   1.00000

 Dipole moment (field-independent basis, Debye):
    X=             -1.0094    Y=              1.4071    Z=              1.1618  Tot=              2.0853
 Quadrupole moment (field-independent basis, Debye-Ang):
   XX=            -45.0967   YY=            -47.3109   ZZ=            -48.3571
   XY=            -10.4608   XZ=             -2.0101   YZ=             -0.3388

  Exact polarizability:  91.891  -4.129  78.623  -4.145   4.057  51.255
 Approx polarizability:  94.120  -9.372  89.665  -6.588  10.499  60.464

 ******    3 imaginary frequencies (negative Signs) ******

                      1                      2                      3
                      A                      A                      A
 Frequencies --   -299.4030              -100.3485               -28.8123
 Red. masses --      2.5118                 3.7204                 5.6444
 Frc consts  --      0.1327                 0.0221                 0.0028
 IR Inten    --     68.2056                 0.6481                11.0815

                      4                      5                      6
                      A                      A                      A
 Frequencies --     58.2215                92.1054               149.4897
 Red. masses --      4.4875                 4.4379                 3.6159
 Frc consts  --      0.0090                 0.0222                 0.0476
 IR Inten    --      4.5537                 2.9722                10.2379

                      7                      8                      9
                      A                      A                      A
 Frequencies --    215.4794               224.8315               269.6324
 Red. masses --      1.0909                 1.2337                 4.0813
 Frc consts  --      0.0298                 0.0367                 0.1748
 IR Inten    --    107.0443                 1.3714                 3.2703

                     10                     11                     12
                      A                      A                      A
 Frequencies --    314.0513               419.3881               559.9955
 Red. masses --      3.3038                 3.7568                 3.9948
 Frc consts  --      0.1920                 0.3893                 0.7381
 IR Inten    --     11.1967                 2.5962                 2.3246

                     13                     14                     15
                      A                      A                      A
 Frequencies --    600.7378               652.2286               742.2052
 Red. masses --      4.3697                 1.3464                 1.3132
 Frc consts  --      0.9291                 0.3374                 0.4262
 IR Inten    --      8.5212               172.5330                36.6441

                     16                     17                     18
                      A                      A                      A
 Frequencies --    759.3264               773.0696               785.7116
 Red. masses --      1.2721                 1.4195                 5.9084
 Frc consts  --      0.4321                 0.4998                 2.1490
 IR Inten    --     17.9156                23.3411                38.5092

                     19                     20                     21
                      A                      A                      A
 Frequencies --    894.5422               937.5847              1089.9475
 Red. masses --      3.1867                 2.7900                 3.6649
 Frc consts  --      1.5024                 1.4450                 2.5652
 IR Inten    --     13.0461                 7.1481                57.3662

                     22                     23                     24
                      A                      A                      A
 Frequencies --   1129.2471              1170.9485              1275.3695
 Red. masses --      2.0837                 1.8741                 3.8895
 Frc consts  --      1.5656                 1.5140                 3.7275
 IR Inten    --     38.7097                49.8387               579.3497

                     25                     26                     27
                      A                      A                      A
 Frequencies --   1309.8699              1380.9602              1417.0917
 Red. masses --      1.3575                 1.2279                 1.3366
 Frc consts  --      1.3723                 1.3796                 1.5814
 IR Inten    --    244.7760                 2.9545                13.9111

                     28                     29                     30
                      A                      A                      A
 Frequencies --   1455.4921              1488.2988              1501.9066
 Red. masses --      1.1166                 1.0396                 1.0552
 Frc consts  --      1.3937                 1.3568                 1.4024
 IR Inten    --     40.0205                12.5112                10.2222

                     31                     32                     33
                      A                      A                      A
 Frequencies --   1845.9370              2269.4453              2414.2597
 Red. masses --     12.3685                 5.7366                 1.1059
 Frc consts  --     24.8313                17.4079                 3.7977
 IR Inten    --    354.1654                75.6437               972.2502

                     34                     35                     36
                      A                      A                      A
 Frequencies --   3072.0563              3131.0226              3152.5838
 Red. masses --      1.0346                 1.0864                 1.1028
 Frc consts  --      5.7528                 6.2750                 6.4578
 IR Inten    --      6.1591                 4.2419                 6.6839

                     37                     38                     39
                      A                      A                      A
 Frequencies --   3158.4546              3489.8591              3776.8729
 Red. masses --      1.1021                 1.1711                 1.0670
 Frc consts  --      6.4776                 8.4037                 8.9674
 IR Inten    --     10.5368                62.2137                35.0809

 - Thermochemistry -
 -------------------
 Temperature   298.150 Kelvin.  Pressure   1.00000 Atm.
 Atom     1 has atomic number  8 and mass  15.99491

 Molecular mass:   115.03952 amu.
 Principal axes and moments of inertia in atomic units:
                           1         2         3
     Eigenvalues --   604.080061600.477272012.32309
           X            0.99923  -0.03912   0.00279
           Y            0.03917   0.99902  -0.02076
           Z           -0.00197   0.02085   0.99978
 This molecule is an asymmetric top.
 Rotational symmetry number  1.
 Warning -- assumption of classical behavior for rotation
           may cause significant error
 Rotational temperatures (Kelvin)      0.14338     0.05412     0.04304
 Rotational constants (GHZ):           2.98759     1.12763     0.89684
    3 imaginary frequencies ignored.
 Zero-point vibrational energy     286973.5 (Joules/Mol)
                                   68.58831 (Kcal/Mol)
 Warning -- explicit consideration of  10 degrees of freedom as
           vibrations may cause significant error
 Vibrational temperatures:     83.77   132.52   215.08   310.03   323.48
          (Kelvin)            387.94   451.85   603.41   805.71   864.33
                              938.41  1067.87  1092.50  1112.27  1130.46
                             1287.05  1348.98  1568.19  1624.73  1684.73
                             1834.97  1884.61  1986.89  2038.88  2094.13
                             2141.33  2160.91  2655.89  3265.23  3473.58
                             4420.00  4504.84  4535.86  4544.31  5021.13
                             5434.08

 Zero-point correction=                           0.109302 (Hartree/Particle)
 Thermal correction to Energy=                    0.117618
 Thermal correction to Enthalpy=                  0.118562
 Thermal correction to Gibbs Free Energy=         0.074857
 Sum of electronic and zero-point Energies=           -420.091096
 Sum of electronic and thermal Energies=              -420.082780
 Sum of electronic and thermal Enthalpies=            -420.081836
 Sum of electronic and thermal Free Energies=         -420.125541

                     E (Thermal)             CV                S
                      KCal/Mol        Cal/Mol-Kelvin    Cal/Mol-Kelvin
 Total                   73.806             28.644             91.985
 Electronic               0.000              0.000              1.377
 Translational            0.889              2.981             40.136
 Rotational               0.889              2.981             29.055
 Vibrational             72.029             22.682             21.417
 Vibration     1          0.596              1.974              4.517
 Vibration     2          0.602              1.955              3.615
 Vibration     3          0.618              1.903              2.679
 Vibration     4          0.645              1.817              1.997
 Vibration     5          0.649              1.803              1.920
 Vibration     6          0.674              1.729              1.599
 Vibration     7          0.702              1.647              1.341
 Vibration     8          0.782              1.428              0.894
 Vibration     9          0.916              1.118              0.524
 Vibration    10          0.959              1.030              0.448

 1\1\GINC-AJ\Freq\UM062X\6-311++G(d,p)\C5H7O3(2)\AAYUSH\23-Jun-2025\0\\
 # freq 6-311++g(d,p) m062x\\Title Card Required\\0,2\O,2.658748,1.7859
 58,-0.244246\H,1.822782,2.226956,-0.013229\C,-3.190366,1.037307,0.4033
 52\H,-4.070023,1.584631,0.649883\C,-2.201967,0.42005,0.125919\C,-1.032
 95,-0.370572,-0.226818\O,-1.081899,-1.472855,-0.693217\O,0.096981,0.29
 967,0.035912\C,1.313849,-0.389762,-0.290058\C,1.766434,-1.303141,0.819
 087\H,2.067023,0.412011,-0.436143\H,1.199101,-0.894907,-1.24929\H,2.74
 9434,-1.708622,0.57404\H,1.843054,-0.752458,1.757664\H,1.067992,-2.133

 Normal termination of Gaussian 16 at Mon Jun 23 01:02:21 2025.
