 Gaussian 16, Revision A.03,
 Gaussian 16:  ES64L-G16RevA.03 25-Dec-2016

 --------------------------
 # ccsd(t)/6-311++g(d,p) sp
 --------------------------

 -------------------
 Title Card Required
 -------------------
 Symbolic Z-matrix:
 Charge =  0 Multiplicity = 2

                         Standard orientation:
 ---------------------------------------------------------------------
 Center     Atomic      Atomic             Coordinates (Angstroms)
 Number     Number       Type             X           Y           Z
 ---------------------------------------------------------------------
      1          8           0        2.646384    1.767565   -0.247045
      2          1           0        1.824024    2.231546   -0.015979
      3          6           0       -3.192259    1.030735    0.403197
      4          1           0       -4.072701    1.576804    0.649912
      5          6           0       -2.202831    0.415257    0.125536
      6          6           0       -1.033344   -0.373819   -0.227818
      7          8           0       -1.078786   -1.476010   -0.693810
      8          8           0        0.095898    0.298594    0.036791
      9          6           0        1.317678   -0.373474   -0.284468
     10          6           0        1.771554   -1.295463    0.816172
     11          1           0        2.073854    0.478039   -0.392242
     12          1           0        1.235555   -0.848240   -1.262703
     13          1           0        2.754361   -1.700794    0.571517
     14          1           0        1.842338   -0.752738    1.759675
     15          1           0        1.069817   -2.125224    0.926641
 ---------------------------------------------------------------------

 SCF Done:  E(UHF) =  -417.974364955     A.U. after   33 cycles
 E2 =    -0.1273222456D+01 EUMP2 =    -0.41924758741127D+03
 CCSD(T)= -0.41934972949D+03

 The electronic state is 2-A.
 Alpha  occ. eigenvalues --  -20.63975 -20.62263 -20.56976 -11.42400 -11.30029
 Alpha  occ. eigenvalues --  -11.27328 -11.26582 -11.22623  -1.49133  -1.40482
 Alpha  occ. eigenvalues --   -1.38954  -1.08592  -1.04644  -0.93168  -0.84939
 Alpha  occ. eigenvalues --   -0.77382  -0.74235  -0.72531  -0.69782  -0.68341
 Alpha  occ. eigenvalues --   -0.67074  -0.60870  -0.58947  -0.56688  -0.55508
 Alpha  occ. eigenvalues --   -0.53887  -0.49632  -0.48484  -0.45549  -0.43274
 Alpha  occ. eigenvalues --   -0.43199
 Alpha virt. eigenvalues --    0.03478   0.04817   0.05874   0.06320   0.07883
 Alpha virt. eigenvalues --    0.08137   0.08878   0.10054   0.11010   0.11827
 Alpha virt. eigenvalues --    0.12170   0.13835   0.14662   0.15612   0.16503

  Beta  occ. eigenvalues --  -20.62305 -20.60053 -20.56973 -11.42381 -11.29232
  Beta  occ. eigenvalues --  -11.27326 -11.26584 -11.22666  -1.49082  -1.39054
  Beta  occ. eigenvalues --   -1.25951  -1.08292  -1.03796  -0.93005  -0.83437
  Beta  occ. eigenvalues --   -0.77103  -0.73477  -0.70325  -0.67193  -0.66071
  Beta  occ. eigenvalues --   -0.61930  -0.58802  -0.55518  -0.54310  -0.51945
  Beta  occ. eigenvalues --   -0.50258  -0.48819  -0.46966  -0.43269  -0.43203
  Beta virt. eigenvalues --    0.03448   0.04534   0.05342   0.06304   0.07391
  Beta virt. eigenvalues --    0.07926   0.08186   0.09210   0.10204   0.11238
  Beta virt. eigenvalues --    0.12125   0.12213   0.13921   0.14678   0.15720

 Mulliken charges and spin densities:
               1          2
     1  O   -0.250408   0.902504
     2  H    0.268312  -0.032313
     3  C   -0.622758   0.000979
     4  H    0.211417  -0.000085
     5  C    1.277842  -0.000082
     6  C   -0.743916   0.001747
     7  O   -0.279498   0.000573
     8  O   -0.074322  -0.014709
     9  C   -0.393190   0.255045
    10  C   -0.306822  -0.018873
    11  H    0.248342  -0.098950
    12  H    0.195029  -0.010173
    13  H    0.145785   0.000634
    14  H    0.151294   0.003451
    15  H    0.172893   0.010252
 Sum of Mulliken charges =  -0.00000   1.00000

 Dipole moment (field-independent basis, Debye):
    X=             -0.8707    Y=              2.1689    Z=              1.2151  Tot=              2.6342
 Quadrupole moment (field-independent basis, Debye-Ang):
   XX=            -44.0901   YY=            -47.1096   ZZ=            -48.5826
   XY=             -9.6889   XZ=             -2.3684   YZ=             -0.4982

 3-0=-419.2741692\MP4SDQ=-419.2969503\CCSD=-419.2962186\CCSD(T)=-419.34
 Normal termination of Gaussian 16 at Tue Aug 19 20:05:50 2025.
