 Gaussian 16, Revision A.03,
 Gaussian 16:  ES64L-G16RevA.03 25-Dec-2016

 --------------------------
 # ccsd(t)/6-311++g(d,p) sp
 --------------------------

 -------------------
 Title Card Required
 -------------------
 Symbolic Z-matrix:
 Charge =  0 Multiplicity = 2

                         Standard orientation:
 ---------------------------------------------------------------------
 Center     Atomic      Atomic             Coordinates (Angstroms)
 Number     Number       Type             X           Y           Z
 ---------------------------------------------------------------------
      1          8           0        2.637761    1.747665   -0.248159
      2          1           0        1.832142    2.232849   -0.016904
      3          6           0       -3.192775    1.029138    0.403399
      4          1           0       -4.073132    1.575474    0.650390
      5          6           0       -2.203338    0.413810    0.125454
      6          6           0       -1.035760   -0.375526   -0.228990
      7          8           0       -1.079312   -1.477324   -0.694523
      8          8           0        0.097579    0.296047    0.037053
      9          6           0        1.312969   -0.372421   -0.280527
     10          6           0        1.773584   -1.293040    0.814185
     11          1           0        2.141078    0.640152   -0.360446
     12          1           0        1.264536   -0.811258   -1.277120
     13          1           0        2.754252   -1.702261    0.569979
     14          1           0        1.839804   -0.756568    1.761378
     15          1           0        1.065004   -2.121256    0.916634
 ---------------------------------------------------------------------

 SCF Done:  E(UHF) =  -417.958831419     A.U. after   30 cycles
 E2 =    -0.1291583387D+01 EUMP2 =    -0.41925041480604D+03
 CCSD(T)= -0.41935031792D+03

 The electronic state is 2-A.
 Alpha  occ. eigenvalues --  -20.63459 -20.60003 -20.57894 -11.43376 -11.33355
 Alpha  occ. eigenvalues --  -11.27911 -11.27093 -11.23933  -1.50321  -1.40270
 Alpha  occ. eigenvalues --   -1.36644  -1.09555  -1.05822  -0.94320  -0.85644
 Alpha  occ. eigenvalues --   -0.78757  -0.74473  -0.72575  -0.70369  -0.68512
 Alpha  occ. eigenvalues --   -0.64320  -0.60901  -0.59961  -0.56866  -0.54951
 Alpha  occ. eigenvalues --   -0.52908  -0.50429  -0.49462  -0.43844  -0.43812
 Alpha  occ. eigenvalues --   -0.43148
 Alpha virt. eigenvalues --    0.03391   0.04697   0.06046   0.06325   0.07346
 Alpha virt. eigenvalues --    0.07901   0.08845   0.09865   0.11164   0.11676
 Alpha virt. eigenvalues --    0.11815   0.13578   0.14284   0.15369   0.16278

  Beta  occ. eigenvalues --  -20.63504 -20.57893 -20.57093 -11.43302 -11.31471
  Beta  occ. eigenvalues --  -11.27906 -11.27098 -11.24033  -1.50108  -1.40062
  Beta  occ. eigenvalues --   -1.26942  -1.08774  -1.04018  -0.93861  -0.83061
  Beta  occ. eigenvalues --   -0.77831  -0.73926  -0.71143  -0.68061  -0.65070
  Beta  occ. eigenvalues --   -0.61383  -0.59362  -0.56472  -0.55211  -0.51080
  Beta  occ. eigenvalues --   -0.49613  -0.49516  -0.47687  -0.43802  -0.43754
  Beta virt. eigenvalues --    0.03375   0.04378   0.05114   0.06111   0.06829
  Beta virt. eigenvalues --    0.07440   0.07915   0.09054   0.09983   0.11489
  Beta virt. eigenvalues --    0.11811   0.11906   0.13608   0.14320   0.15412

 Mulliken charges and spin densities:
               1          2
     1  O   -0.388691   0.615730
     2  H    0.262039  -0.021021
     3  C   -0.609537   0.003352
     4  H    0.214670  -0.000180
     5  C    1.283521  -0.005205
     6  C   -0.748079   0.009385
     7  O   -0.276540  -0.000374
     8  O   -0.049996  -0.047341
     9  C   -0.382660   0.690002
    10  C   -0.303319  -0.066366
    11  H    0.280479  -0.193669
    12  H    0.215078  -0.029847
    13  H    0.155487   0.003147
    14  H    0.167140   0.008166
    15  H    0.180410   0.034221
 Sum of Mulliken charges =  -0.00000   1.00000

 Dipole moment (field-independent basis, Debye):
    X=             -1.8159    Y=              0.8656    Z=              1.3070  Tot=              2.3990
 Quadrupole moment (field-independent basis, Debye-Ang):
   XX=            -46.3909   YY=            -48.9438   ZZ=            -48.1871
   XY=            -13.3483   XZ=             -2.0744   YZ=             -0.3377

 0=-419.2734095\MP4SDQ=-419.2962549\CCSD=-419.2950929\CCSD(T)=-419.3503
 Normal termination of Gaussian 16 at Sat Jul  5 17:28:09 2025.
