 Gaussian 16, Revision A.03,
 Gaussian 16:  ES64L-G16RevA.03 25-Dec-2016

 -------------------
 # freq 6-31+g m062x
 -------------------

 -------------------
 Title Card Required
 -------------------
 Symbolic Z-matrix:
 Charge =  0 Multiplicity = 2

                         Standard orientation:
 ---------------------------------------------------------------------
 Center     Atomic      Atomic             Coordinates (Angstroms)
 Number     Number       Type             X           Y           Z
 ---------------------------------------------------------------------
      1          8           0        2.646384    1.767565   -0.247045
      2          1           0        1.824024    2.231546   -0.015979
      3          6           0       -3.192259    1.030735    0.403197
      4          1           0       -4.072701    1.576804    0.649912
      5          6           0       -2.202831    0.415257    0.125536
      6          6           0       -1.033344   -0.373819   -0.227818
      7          8           0       -1.078786   -1.476010   -0.693810
      8          8           0        0.095898    0.298594    0.036791
      9          6           0        1.317678   -0.373474   -0.284468
     10          6           0        1.771554   -1.295463    0.816172
     11          1           0        2.073854    0.478039   -0.392242
     12          1           0        1.235555   -0.848240   -1.262703
     13          1           0        2.754361   -1.700794    0.571517
     14          1           0        1.842338   -0.752738    1.759675
     15          1           0        1.069817   -2.125224    0.926641
 ---------------------------------------------------------------------

 SCF Done:  E(UM062X) =  -419.952028845     A.U. after   21 cycles

 The electronic state is 2-A.
 Alpha  occ. eigenvalues --  -19.72163 -19.69870 -19.67561 -10.74164 -10.63130
 Alpha  occ. eigenvalues --  -10.59476 -10.59150 -10.55405  -1.29372  -1.20095
 Alpha  occ. eigenvalues --   -1.15006  -0.92244  -0.88688  -0.79722  -0.72385
 Alpha  occ. eigenvalues --   -0.66246  -0.62457  -0.60493  -0.58792  -0.57478
 Alpha  occ. eigenvalues --   -0.54212  -0.50821  -0.50044  -0.47652  -0.45558
 Alpha  occ. eigenvalues --   -0.42582  -0.40980  -0.40307  -0.38332  -0.37591
 Alpha  occ. eigenvalues --   -0.36944
 Alpha virt. eigenvalues --   -0.02667   0.01767   0.02285   0.03331   0.03557
 Alpha virt. eigenvalues --    0.04218   0.04866   0.06292   0.07726   0.07949
 Alpha virt. eigenvalues --    0.08279   0.08708   0.09786   0.11103   0.12298

  Beta  occ. eigenvalues --  -19.72166 -19.68406 -19.67558 -10.74152 -10.62792
  Beta  occ. eigenvalues --  -10.59476 -10.59151 -10.55411  -1.29316  -1.20012
  Beta  occ. eigenvalues --   -1.09248  -0.91863  -0.88306  -0.79558  -0.71631
  Beta  occ. eigenvalues --   -0.65911  -0.62216  -0.59605  -0.57999  -0.55708
  Beta  occ. eigenvalues --   -0.51721  -0.50548  -0.47897  -0.46358  -0.42806
  Beta  occ. eigenvalues --   -0.40436  -0.39666  -0.39165  -0.38321  -0.37503
  Beta virt. eigenvalues --   -0.11255  -0.02638   0.01826   0.02393   0.03422
  Beta virt. eigenvalues --    0.03615   0.04357   0.04943   0.06334   0.07794
  Beta virt. eigenvalues --    0.08053   0.08353   0.08770   0.10054   0.11138

 Mulliken charges and spin densities:
               1          2
     1  O   -0.437999   0.806485
     2  H    0.410508  -0.027611
     3  C    0.240692   0.006620
     4  H    0.349225  -0.000016
     5  C    0.133661   0.000866
     6  C   -0.467585  -0.004553
     7  O   -0.330227   0.002527
     8  O   -0.267365  -0.009207
     9  C   -0.302638   0.292774
    10  C   -0.511613  -0.016968
    11  H    0.249983  -0.065624
    12  H    0.247144  -0.003781
    13  H    0.222323   0.000695
    14  H    0.228596   0.002643
    15  H    0.235297   0.015150
 Sum of Mulliken charges =  -0.00000   1.00000

 Dipole moment (field-independent basis, Debye):
    X=             -1.5196    Y=              1.1915    Z=              1.2211  Tot=              2.2847
 Quadrupole moment (field-independent basis, Debye-Ang):
   XX=            -46.8395   YY=            -48.2284   ZZ=            -48.6776
   XY=            -11.6097   XZ=             -1.7760   YZ=             -0.5664

  Exact polarizability:  89.830  -0.748  79.249  -4.607   4.657  47.366
 Approx polarizability:  89.172  -7.627  86.951  -6.986  12.119  51.539

 ******    5 imaginary frequencies (negative Signs) ******

                      1                      2                      3
                      A                      A                      A
 Frequencies --   -524.6850              -452.3201              -125.5437
 Red. masses --      1.8738                 1.0882                 6.8639
 Frc consts  --      0.3039                 0.1312                 0.0637
 IR Inten    --    249.7184               161.0311                22.7299

                      4                      5                      6
                      A                      A                      A
 Frequencies --   -118.3805               -42.0482                20.3624
 Red. masses --      5.4333                 2.7461                 3.9204
 Frc consts  --      0.0449                 0.0029                 0.0010
 IR Inten    --     25.8779                 0.5522                 8.7470

                      7                      8                      9
                      A                      A                      A
 Frequencies --     94.9294               177.6846               247.6280
 Red. masses --      3.4490                 1.2168                 3.7381
 Frc consts  --      0.0183                 0.0226                 0.1351
 IR Inten    --     13.9159                 1.2994                 5.3781

                     10                     11                     12
                      A                      A                      A
 Frequencies --    275.0045               418.0656               563.8536
 Red. masses --      4.0497                 3.5910                 1.9844
 Frc consts  --      0.1804                 0.3698                 0.3717
 IR Inten    --      7.3399                 5.6973                78.7476

                     13                     14                     15
                      A                      A                      A
 Frequencies --    569.7835               638.0739               779.7168
 Red. masses --      2.6598                 3.5491                 3.0447
 Frc consts  --      0.5088                 0.8514                 1.0906
 IR Inten    --     38.3680                93.5776                72.8868

                     16                     17                     18
                      A                      A                      A
 Frequencies --    793.9591               814.9652               872.4419
 Red. masses --      1.3390                 1.4327                 1.9078
 Frc consts  --      0.4973                 0.5606                 0.8556
 IR Inten    --     15.9202                57.4504                20.6867

                     19                     20                     21
                      A                      A                      A
 Frequencies --    898.8200               960.6745              1132.9989
 Red. masses --      3.4916                 2.6589                 3.4453
 Frc consts  --      1.6620                 1.4458                 2.6058
 IR Inten    --     21.6421                24.6072                15.5013

                     22                     23                     24
                      A                      A                      A
 Frequencies --   1160.1505              1190.9492              1320.0955
 Red. masses --      2.1678                 1.9368                 1.2800
 Frc consts  --      1.7191                 1.6186                 1.3143
 IR Inten    --     61.7983               188.7877               391.2076

                     25                     26                     27
                      A                      A                      A
 Frequencies --   1325.5495              1402.9183              1450.5648
 Red. masses --      4.7438                 1.2765                 1.2297
 Frc consts  --      4.9110                 1.4803                 1.5245
 IR Inten    --    622.4313                 0.7356                22.1975

                     28                     29                     30
                      A                      A                      A
 Frequencies --   1483.8964              1521.8119              1529.1519
 Red. masses --      1.0993                 1.0401                 1.0489
 Frc consts  --      1.4262                 1.4192                 1.4451
 IR Inten    --    236.9098                29.4106                14.8303

                     31                     32                     33
                      A                      A                      A
 Frequencies --   1808.1410              1914.2734              2333.1560
 Red. masses --      1.1704                11.3401                 5.5499
 Frc consts  --      2.2545                24.4835                17.8000
 IR Inten    --   1279.2917               223.5048                78.0963

                     34                     35                     36
                      A                      A                      A
 Frequencies --   3101.9668              3163.5540              3186.5845
 Red. masses --      1.0346                 1.0845                 1.1005
 Frc consts  --      5.8652                 6.3947                 6.5838
 IR Inten    --      6.5364                 5.9232                 5.6793

                     37                     38                     39
                      A                      A                      A
 Frequencies --   3198.4439              3532.4430              3803.2919
 Red. masses --      1.1005                 1.1794                 1.0662
 Frc consts  --      6.6329                 8.6707                 9.0871
 IR Inten    --     12.0582                54.9601                17.4816

 - Thermochemistry -
 -------------------
 Temperature   298.150 Kelvin.  Pressure   1.00000 Atm.
 Atom     1 has atomic number  8 and mass  15.99491

 Molecular mass:   115.03952 amu.
 Principal axes and moments of inertia in atomic units:
                           1         2         3
     Eigenvalues --   598.276421598.488992005.13015
           X            0.99927  -0.03816   0.00281
           Y            0.03821   0.99904  -0.02129
           Z           -0.00200   0.02138   0.99977
 This molecule is an asymmetric top.
 Rotational symmetry number  1.
 Warning -- assumption of classical behavior for rotation
           may cause significant error
 Rotational temperatures (Kelvin)      0.14477     0.05418     0.04320
 Rotational constants (GHZ):           3.01657     1.12903     0.90006
    5 imaginary frequencies ignored.
 Zero-point vibrational energy     285225.1 (Joules/Mol)
                                   68.17042 (Kcal/Mol)
 Warning -- explicit consideration of   8 degrees of freedom as
           vibrations may cause significant error
 Vibrational temperatures:     29.30   136.58   255.65   356.28   395.67
          (Kelvin)            601.50   811.26   819.79   918.05  1121.84
                             1142.33  1172.55  1255.25  1293.20  1382.20
                             1630.13  1669.20  1713.51  1899.32  1907.17
                             2018.49  2087.04  2135.00  2189.55  2200.11
                             2601.51  2754.21  3356.89  4463.04  4551.65
                             4584.78  4601.85  5082.40  5472.09

 Zero-point correction=                           0.108636 (Hartree/Particle)
 Thermal correction to Energy=                    0.115946
 Thermal correction to Enthalpy=                  0.116891
 Thermal correction to Gibbs Free Energy=         0.074135
 Sum of electronic and zero-point Energies=           -419.843392
 Sum of electronic and thermal Energies=              -419.836083
 Sum of electronic and thermal Enthalpies=            -419.835138
 Sum of electronic and thermal Free Energies=         -419.877893

                     E (Thermal)             CV                S
                      KCal/Mol        Cal/Mol-Kelvin    Cal/Mol-Kelvin
 Total                   72.757             24.705             89.986
 Electronic               0.000              0.000              1.377
 Translational            0.889              2.981             40.136
 Rotational               0.889              2.981             29.040
 Vibrational             70.980             18.744             19.432
 Vibration     1          0.593              1.986              6.599
 Vibration     2          0.603              1.953              3.556
 Vibration     3          0.628              1.870              2.353
 Vibration     4          0.661              1.767              1.747
 Vibration     5          0.677              1.720              1.565
 Vibration     6          0.781              1.431              0.899
 Vibration     7          0.920              1.109              0.516
 Vibration     8          0.926              1.097              0.505

 Normal termination of Gaussian 16 at Fri Jun 20 12:45:50 2025.
