 Gaussian 16, Revision A.03,
 Gaussian 16:  ES64L-G16RevA.03 25-Dec-2016

 --------------------------
 # freq 6-311++g(d,p) m062x
 --------------------------

 -------------------
 Title Card Required
 -------------------
 Symbolic Z-matrix:
 Charge =  0 Multiplicity = 2

                         Standard orientation:
 ---------------------------------------------------------------------
 Center     Atomic      Atomic             Coordinates (Angstroms)
 Number     Number       Type             X           Y           Z
 ---------------------------------------------------------------------
      1          8           0        2.656184    1.782296   -0.244867
      2          1           0        1.822947    2.228135   -0.013856
      3          6           0       -3.190786    1.035859    0.403319
      4          1           0       -4.070619    1.582893    0.649895
      5          6           0       -2.202169    0.418984    0.125826
      6          6           0       -1.032954   -0.371278   -0.227009
      7          8           0       -1.081151   -1.473540   -0.693371
      8          8           0        0.096591    0.299576    0.036162
      9          6           0        1.314816   -0.386110   -0.288834
     10          6           0        1.767499   -1.301506    0.818438
     11          1           0        2.067631    0.422862   -0.427118
     12          1           0        1.206418   -0.885463   -1.251875
     13          1           0        2.750594   -1.706643    0.573409
     14          1           0        1.842936   -0.752546    1.758101
     15          1           0        1.068669   -2.131593    0.937635
 ---------------------------------------------------------------------

 SCF Done:  E(UM062X) =  -420.200128361     A.U. after   21 cycles

 The electronic state is 2-A.
 Alpha  occ. eigenvalues --  -19.69489 -19.68102 -19.64140 -10.71578 -10.61520
 Alpha  occ. eigenvalues --  -10.57736 -10.57307 -10.54335  -1.26728  -1.17487
 Alpha  occ. eigenvalues --   -1.14352  -0.91309  -0.87771  -0.78873  -0.71598
 Alpha  occ. eigenvalues --   -0.65716  -0.62032  -0.60122  -0.58015  -0.57128
 Alpha  occ. eigenvalues --   -0.55056  -0.50224  -0.50039  -0.47284  -0.45381
 Alpha  occ. eigenvalues --   -0.43369  -0.40804  -0.40250  -0.37913  -0.37876
 Alpha  occ. eigenvalues --   -0.36999
 Alpha virt. eigenvalues --   -0.02320  -0.00575   0.00644   0.01357   0.01947
 Alpha virt. eigenvalues --    0.03338   0.03532   0.04694   0.06018   0.06101
 Alpha virt. eigenvalues --    0.06629   0.07420   0.08159   0.09537   0.10326

  Beta  occ. eigenvalues --  -19.69494 -19.66627 -19.64137 -10.71571 -10.61275
  Beta  occ. eigenvalues --  -10.57736 -10.57308 -10.54338  -1.26683  -1.17416
  Beta  occ. eigenvalues --   -1.07728  -0.90992  -0.87473  -0.78746  -0.70892
  Beta  occ. eigenvalues --   -0.65499  -0.61769  -0.59389  -0.57354  -0.55200
  Beta  occ. eigenvalues --   -0.52380  -0.50041  -0.47566  -0.46075  -0.42546
  Beta  occ. eigenvalues --   -0.40297  -0.40076  -0.39410  -0.37894  -0.36987
  Beta virt. eigenvalues --   -0.10917  -0.02300  -0.00407   0.00700   0.01607
  Beta virt. eigenvalues --    0.02032   0.03370   0.03557   0.04868   0.06100
  Beta virt. eigenvalues --    0.06156   0.06701   0.07541   0.08199   0.09719

 Mulliken charges and spin densities:
               1          2
     1  O   -0.276121   0.844397
     2  H    0.261232  -0.018053
     3  C   -0.574073  -0.000051
     4  H    0.186434  -0.000032
     5  C    1.119528   0.003781
     6  C   -0.721307   0.001465
     7  O   -0.202196   0.000995
     8  O   -0.005406  -0.004590
     9  C   -0.478052   0.194570
    10  C   -0.340800   0.000994
    11  H    0.268890  -0.034452
    12  H    0.220410   0.000354
    13  H    0.176659  -0.000335
    14  H    0.177148   0.001156
    15  H    0.187655   0.009803
 Sum of Mulliken charges =  -0.00000   1.00000

 Dipole moment (field-independent basis, Debye):
    X=             -1.0374    Y=              1.3694    Z=              1.1680  Tot=              2.0775
 Quadrupole moment (field-independent basis, Debye-Ang):
   XX=            -45.1479   YY=            -47.3679   ZZ=            -48.3424
   XY=            -10.5624   XZ=             -1.9939   YZ=             -0.3422

  Exact polarizability:  92.278  -3.562  79.451  -4.202   3.974  51.267
 Approx polarizability:  94.322  -9.054  90.242  -6.614  10.453  60.483

 ******    3 imaginary frequencies (negative Signs) ******

                      1                      2                      3
                      A                      A                      A
 Frequencies --   -346.7214               -95.2865               -31.6268
 Red. masses --      2.4605                 3.6644                 5.5620
 Frc consts  --      0.1743                 0.0196                 0.0033
 IR Inten    --    105.2746                 0.6891                 9.9282

                      4                      5                      6
                      A                      A                      A
 Frequencies --     59.4797                91.3849               149.8732
 Red. masses --      4.3930                 4.3758                 3.5848
 Frc consts  --      0.0092                 0.0215                 0.0474
 IR Inten    --      4.5664                 2.5871                10.4430

                      7                      8                      9
                      A                      A                      A
 Frequencies --    213.9115               224.3846               269.4657
 Red. masses --      1.0939                 1.2374                 4.0588
 Frc consts  --      0.0295                 0.0367                 0.1736
 IR Inten    --    106.5370                 1.3260                 3.4803

                     10                     11                     12
                      A                      A                      A
 Frequencies --    309.9361               419.1358               559.7509
 Red. masses --      3.3905                 3.7426                 4.0554
 Frc consts  --      0.1919                 0.3874                 0.7486
 IR Inten    --     10.9947                 2.6639                 2.1132

                     13                     14                     15
                      A                      A                      A
 Frequencies --    601.5991               662.9057               742.2836
 Red. masses --      4.9052                 1.3149                 1.3137
 Frc consts  --      1.0460                 0.3404                 0.4265
 IR Inten    --      6.3359               165.5090                36.3628

                     16                     17                     18
                      A                      A                      A
 Frequencies --    761.4739               773.1646               785.4712
 Red. masses --      1.2693                 1.4246                 5.7525
 Frc consts  --      0.4336                 0.5018                 2.0911
 IR Inten    --     21.3085                23.3484                38.6000

                     19                     20                     21
                      A                      A                      A
 Frequencies --    894.7614               938.1998              1090.3379
 Red. masses --      3.1698                 2.7919                 3.6606
 Frc consts  --      1.4952                 1.4479                 2.5640
 IR Inten    --     13.8619                 9.0746                62.0079

                     22                     23                     24
                      A                      A                      A
 Frequencies --   1129.1449              1169.5389              1276.0225
 Red. masses --      2.0829                 1.8848                 3.9638
 Frc consts  --      1.5646                 1.5190                 3.8026
 IR Inten    --     42.2106                58.2425               579.7209

                     25                     26                     27
                      A                      A                      A
 Frequencies --   1305.9924              1379.4613              1415.7715
 Red. masses --      1.3572                 1.2260                 1.3231
 Frc consts  --      1.3639                 1.3745                 1.5626
 IR Inten    --    263.0729                 2.3760                14.9096

                     28                     29                     30
                      A                      A                      A
 Frequencies --   1449.6474              1487.9457              1500.9662
 Red. masses --      1.1263                 1.0395                 1.0534
 Frc consts  --      1.3946                 1.3559                 1.3982
 IR Inten    --     51.1175                12.6464                 9.7166

                     31                     32                     33
                      A                      A                      A
 Frequencies --   1846.1296              2269.3378              2318.5962
 Red. masses --     12.4069                 5.6602                 1.1149
 Frc consts  --     24.9137                17.1744                 3.5314
 IR Inten    --    360.2440                79.2770              1074.5310

                     34                     35                     36
                      A                      A                      A
 Frequencies --   3071.8562              3131.0586              3152.2535
 Red. masses --      1.0346                 1.0863                 1.1029
 Frc consts  --      5.7520                 6.2746                 6.4567
 IR Inten    --      5.9032                 4.3842                 5.9004

                     37                     38                     39
                      A                      A                      A
 Frequencies --   3158.6672              3489.8104              3778.4924
 Red. masses --      1.1020                 1.1711                 1.0670
 Frc consts  --      6.4779                 8.4036                 8.9750
 IR Inten    --     10.6157                62.2316                35.4826

 - Thermochemistry -
 -------------------
 Temperature   298.150 Kelvin.  Pressure   1.00000 Atm.
 Atom     1 has atomic number  8 and mass  15.99491

 Molecular mass:   115.03952 amu.
 Principal axes and moments of inertia in atomic units:
                           1         2         3
     Eigenvalues --   602.869981600.060542010.83107
           X            0.99924  -0.03895   0.00280
           Y            0.03900   0.99902  -0.02087
           Z           -0.00198   0.02096   0.99978
 This molecule is an asymmetric top.
 Rotational symmetry number  1.
 Warning -- assumption of classical behavior for rotation
           may cause significant error
 Rotational temperatures (Kelvin)      0.14367     0.05413     0.04307
 Rotational constants (GHZ):           2.99358     1.12792     0.89751
    3 imaginary frequencies ignored.
 Zero-point vibrational energy     286375.3 (Joules/Mol)
                                   68.44534 (Kcal/Mol)
 Warning -- explicit consideration of  10 degrees of freedom as
           vibrations may cause significant error
 Vibrational temperatures:     85.58   131.48   215.63   307.77   322.84
          (Kelvin)            387.70   445.93   603.04   805.36   865.57
                              953.77  1067.98  1095.59  1112.41  1130.12
                             1287.36  1349.86  1568.75  1624.59  1682.71
                             1835.91  1879.03  1984.74  2036.98  2085.72
                             2140.82  2159.56  2656.17  3265.07  3335.94
                             4419.72  4504.90  4535.39  4544.62  5021.06
                             5436.41

 Zero-point correction=                           0.109075 (Hartree/Particle)
 Thermal correction to Energy=                    0.117391
 Thermal correction to Enthalpy=                  0.118335
 Thermal correction to Gibbs Free Energy=         0.074635
 Sum of electronic and zero-point Energies=           -420.091054
 Sum of electronic and thermal Energies=              -420.082738
 Sum of electronic and thermal Enthalpies=            -420.081793
 Sum of electronic and thermal Free Energies=         -420.125493

                     E (Thermal)             CV                S
                      KCal/Mol        Cal/Mol-Kelvin    Cal/Mol-Kelvin
 Total                   73.664             28.634             91.974
 Electronic               0.000              0.000              1.377
 Translational            0.889              2.981             40.136
 Rotational               0.889              2.981             29.052
 Vibrational             71.886             22.672             21.409
 Vibration     1          0.597              1.974              4.474
 Vibration     2          0.602              1.955              3.630
 Vibration     3          0.618              1.903              2.674
 Vibration     4          0.644              1.820              2.010
 Vibration     5          0.649              1.804              1.923
 Vibration     6          0.674              1.729              1.600
 Vibration     7          0.699              1.655              1.363
 Vibration     8          0.782              1.429              0.895
 Vibration     9          0.915              1.118              0.524
 Vibration    10          0.960              1.028              0.447

 1\1\GINC-AJ\Freq\UM062X\6-311++G(d,p)\C5H7O3(2)\AAYUSH\16-Aug-2025\0\\
 # freq 6-311++g(d,p) m062x\\Title Card Required\\0,2\O,2.711117,1.7758
 83,-0.225709\H,1.877174,2.220399,0.005302\C,-3.134661,1.020169,0.42247
 7\H,-4.015361,1.565806,0.669053\C,-2.145066,0.404863,0.144984\C,-0.974
 599,-0.383542,-0.207851\O,-1.021046,-1.485879,-0.674213\O,0.15388,0.28
 9103,0.05532\C,1.373192,-0.394649,-0.269676\C,1.827327,-1.309325,0.837
 596\H,2.124722,0.415517,-0.40796\H,1.265586,-0.894173,-1.232717\H,2.81
 1064,-1.712902,0.592567\H,1.901893,-0.760246,1.777259\H,1.129815,-2.14

 Normal termination of Gaussian 16 at Sat Aug 16 15:17:20 2025.
