 Gaussian 16, Revision A.03,
 Gaussian 16:  ES64L-G16RevA.03 25-Dec-2016

 --------------------------
 # ccsd(t)/6-311++g(d,p) sp
 --------------------------

 -------------------
 Title Card Required
 -------------------
 Symbolic Z-matrix:
 Charge =  0 Multiplicity = 2

                         Standard orientation:
 ---------------------------------------------------------------------
 Center     Atomic      Atomic             Coordinates (Angstroms)
 Number     Number       Type             X           Y           Z
 ---------------------------------------------------------------------
      1          8           0        2.635860    1.737400   -0.247790
      2          1           0        1.841429    2.234649   -0.016403
      3          6           0       -3.192285    1.031336    0.403686
      4          1           0       -4.072032    1.578641    0.650914
      5          6           0       -2.203507    0.415066    0.125481
      6          6           0       -1.037712   -0.375447   -0.229613
      7          8           0       -1.081550   -1.476898   -0.695200
      8          8           0        0.098900    0.294432    0.037144
      9          6           0        1.305888   -0.380319   -0.279040
     10          6           0        1.772513   -1.294799    0.813255
     11          1           0        2.211512    0.761186   -0.351657
     12          1           0        1.274124   -0.798576   -1.284086
     13          1           0        2.751792   -1.706926    0.569203
     14          1           0        1.837582   -0.761067    1.762268
     15          1           0        1.060526   -2.122400    0.913915
 ---------------------------------------------------------------------

 SCF Done:  E(UHF) =  -417.971788847     A.U. after   29 cycles
 E2 =    -0.1295171457D+01 EUMP2 =    -0.41926696030313D+03
 CCSD(T)= -0.41936150431D+03

 The electronic state is 2-A.
 Alpha  occ. eigenvalues --  -20.64316 -20.58501 -20.55926 -11.44051 -11.34255
 Alpha  occ. eigenvalues --  -11.28295 -11.27430 -11.24766  -1.51123  -1.40974
 Alpha  occ. eigenvalues --   -1.33992  -1.10234  -1.06526  -0.95052  -0.86132
 Alpha  occ. eigenvalues --   -0.79707  -0.74708  -0.72820  -0.70535  -0.69317
 Alpha  occ. eigenvalues --   -0.63035  -0.60971  -0.59265  -0.57649  -0.55571
 Alpha  occ. eigenvalues --   -0.50945  -0.50252  -0.49620  -0.44177  -0.44154
 Alpha  occ. eigenvalues --   -0.41794
 Alpha virt. eigenvalues --    0.03315   0.04529   0.05895   0.06561   0.06984
 Alpha virt. eigenvalues --    0.07724   0.08855   0.09717   0.11205   0.11557
 Alpha virt. eigenvalues --    0.11661   0.13393   0.14009   0.15174   0.16121

  Beta  occ. eigenvalues --  -20.64337 -20.58501 -20.54490 -11.43931 -11.31738
  Beta  occ. eigenvalues --  -11.28287 -11.27436 -11.24901  -1.50759  -1.40696
  Beta  occ. eigenvalues --   -1.29490  -1.09100  -1.04207  -0.94370  -0.82892
  Beta  occ. eigenvalues --   -0.78236  -0.74236  -0.71705  -0.68619  -0.65793
  Beta  occ. eigenvalues --   -0.61653  -0.59500  -0.57066  -0.56031  -0.53343
  Beta  occ. eigenvalues --   -0.50589  -0.49654  -0.47980  -0.44150  -0.44112
  Beta virt. eigenvalues --    0.03314   0.04461   0.05836   0.05969   0.06861
  Beta virt. eigenvalues --    0.07321   0.07741   0.09025   0.09862   0.11520
  Beta virt. eigenvalues --    0.11670   0.11903   0.13466   0.14072   0.15202

 Mulliken charges and spin densities:
               1          2
     1  O   -0.517203   0.264334
     2  H    0.256674  -0.008589
     3  C   -0.603932   0.004272
     4  H    0.216705  -0.000220
     5  C    1.293724  -0.007326
     6  C   -0.757018   0.013720
     7  O   -0.273093  -0.001090
     8  O   -0.032840  -0.064737
     9  C   -0.390977   0.959315
    10  C   -0.298096  -0.095141
    11  H    0.358752  -0.089864
    12  H    0.223972  -0.044008
    13  H    0.161037   0.005245
    14  H    0.176341   0.010917
    15  H    0.185954   0.053173
 Sum of Mulliken charges =  -0.00000   1.00000

 Dipole moment (field-independent basis, Debye):
    X=             -2.4287    Y=             -0.0398    Z=              1.3322  Tot=              2.7703
 Quadrupole moment (field-independent basis, Debye-Ang):
   XX=            -47.9376   YY=            -50.4630   ZZ=            -47.9034
   XY=            -15.9827   XZ=             -1.9881   YZ=             -0.2409

 -0=-419.2850622\MP4SDQ=-419.3093188\CCSD=-419.3067555\CCSD(T)=-419.361
 Normal termination of Gaussian 16 at Tue Aug 19 11:28:33 2025.
