 Gaussian 16, Revision A.03,
 Gaussian 16:  ES64L-G16RevA.03 25-Dec-2016

 --------------------------
 # ccsd(t)/6-311++g(d,p) sp
 --------------------------

 -------------------
 Title Card Required
 -------------------
 Symbolic Z-matrix:
 Charge =  0 Multiplicity = 2

                         Standard orientation:
 ---------------------------------------------------------------------
 Center     Atomic      Atomic             Coordinates (Angstroms)
 Number     Number       Type             X           Y           Z
 ---------------------------------------------------------------------
      1          8           0        2.638365    1.749913   -0.248191
      2          1           0        1.830620    2.232773   -0.016963
      3          6           0       -3.192825    1.028892    0.403340
      4          1           0       -4.073269    1.575080    0.650283
      5          6           0       -2.203295    0.413691    0.125449
      6          6           0       -1.035391   -0.375469   -0.228855
      7          8           0       -1.078968   -1.477340   -0.694382
      8          8           0        0.097334    0.296372    0.037027
      9          6           0        1.314129   -0.371330   -0.280858
     10          6           0        1.773678   -1.292830    0.814388
     11          1           0        2.128001    0.615442   -0.362839
     12          1           0        1.262312   -0.814145   -1.275653
     13          1           0        2.754628   -1.701498    0.570150
     14          1           0        1.840216   -0.755753    1.761204
     15          1           0        1.065872   -2.121180    0.917398
 ---------------------------------------------------------------------

 SCF Done:  E(UHF) =  -417.959471708     A.U. after   29 cycles
 E2 =    -0.1288603140D+01 EUMP2 =    -0.41924807484831D+03
 CCSD(T)= -0.41934923322D+03

 The electronic state is 2-A.
 Alpha  occ. eigenvalues --  -20.63160 -20.61051 -20.57680 -11.43140 -11.32754
 Alpha  occ. eigenvalues --  -11.27777 -11.26974 -11.23622  -1.50038  -1.40041
 Alpha  occ. eigenvalues --   -1.37603  -1.09310  -1.05532  -0.94052  -0.85427
 Alpha  occ. eigenvalues --   -0.78420  -0.74422  -0.72612  -0.70313  -0.68239
 Alpha  occ. eigenvalues --   -0.65138  -0.60915  -0.59739  -0.56570  -0.54724
 Alpha  occ. eigenvalues --   -0.53850  -0.50240  -0.49188  -0.43772  -0.43689
 Alpha  occ. eigenvalues --   -0.43346
 Alpha virt. eigenvalues --    0.03415   0.04744   0.06060   0.06266   0.07472
 Alpha virt. eigenvalues --    0.07960   0.08847   0.09914   0.11135   0.11709
 Alpha virt. eigenvalues --    0.11895   0.13640   0.14377   0.15431   0.16333

  Beta  occ. eigenvalues --  -20.63208 -20.57871 -20.57679 -11.43078 -11.31064
  Beta  occ. eigenvalues --  -11.27772 -11.26979 -11.23713  -1.49863  -1.39829
  Beta  occ. eigenvalues --   -1.26801  -1.08649  -1.03891  -0.93661  -0.83050
  Beta  occ. eigenvalues --   -0.77636  -0.73813  -0.70931  -0.67846  -0.65352
  Beta  occ. eigenvalues --   -0.61356  -0.59240  -0.56242  -0.54968  -0.50819
  Beta  occ. eigenvalues --   -0.50147  -0.49349  -0.47304  -0.43679  -0.43627
  Beta virt. eigenvalues --    0.03393   0.04387   0.05143   0.06163   0.06862
  Beta virt. eigenvalues --    0.07550   0.07978   0.09069   0.10035   0.11447
  Beta virt. eigenvalues --    0.11880   0.11964   0.13671   0.14408   0.15483

 Mulliken charges and spin densities:
               1          2
     1  O   -0.353602   0.686901
     2  H    0.264091  -0.023627
     3  C   -0.611663   0.003041
     4  H    0.213996  -0.000169
     5  C    1.281727  -0.004452
     6  C   -0.746490   0.008041
     7  O   -0.277326  -0.000209
     8  O   -0.054330  -0.041886
     9  C   -0.385504   0.610423
    10  C   -0.303644  -0.058266
    11  H    0.266251  -0.192547
    12  H    0.211070  -0.026496
    13  H    0.153300   0.002665
    14  H    0.163710   0.007364
    15  H    0.178415   0.029218
 Sum of Mulliken charges =  -0.00000   1.00000

 Dipole moment (field-independent basis, Debye):
    X=             -1.5959    Y=              1.1857    Z=              1.2899  Tot=              2.3699
 Quadrupole moment (field-independent basis, Debye-Ang):
   XX=            -45.8348   YY=            -48.4755   ZZ=            -48.2803
   XY=            -12.4491   XZ=             -2.1302   YZ=             -0.3764

 419.2721805\MP4SDQ=-419.2948985\CCSD=-419.2941565\CCSD(T)=-419.3492332
 Normal termination of Gaussian 16 at Fri Jul  4 16:27:12 2025.
