 Gaussian 16, Revision A.03,
 Gaussian 16:  ES64L-G16RevA.03 25-Dec-2016

 --------------------------
 # freq 6-311++g(d,p) m062x
 --------------------------

 -------------------
 Title Card Required
 -------------------
 Symbolic Z-matrix:
 Charge =  0 Multiplicity = 2

                         Standard orientation:
 ---------------------------------------------------------------------
 Center     Atomic      Atomic             Coordinates (Angstroms)
 Number     Number       Type             X           Y           Z
 ---------------------------------------------------------------------
      1          8           0        2.661338    1.789629   -0.243601
      2          1           0        1.822660    2.225712   -0.012583
      3          6           0       -3.189932    1.038794    0.403382
      4          1           0       -4.069409    1.586419    0.649863
      5          6           0       -2.201753    0.421153    0.126021
      6          6           0       -1.032966   -0.369854   -0.226631
      7          8           0       -1.082702   -1.472160   -0.693043
      8          8           0        0.097431    0.299697    0.035619
      9          6           0        1.312885   -0.393481   -0.291341
     10          6           0        1.765361   -1.304800    0.819756
     11          1           0        2.066068    0.401374   -0.444957
     12          1           0        1.192008   -0.904133   -1.246783
     13          1           0        2.748217   -1.710756    0.574726
     14          1           0        1.843173   -0.752337    1.757206
     15          1           0        1.067183   -2.134484    0.943606
 ---------------------------------------------------------------------

 SCF Done:  E(UM062X) =  -420.200677475     A.U. after   21 cycles

 The electronic state is 2-A.
 Alpha  occ. eigenvalues --  -19.69430 -19.68377 -19.64085 -10.71521 -10.61311
 Alpha  occ. eigenvalues --  -10.57704 -10.57278 -10.54244  -1.26652  -1.17408
 Alpha  occ. eigenvalues --   -1.14534  -0.91231  -0.87709  -0.78777  -0.71520
 Alpha  occ. eigenvalues --   -0.65654  -0.61980  -0.60014  -0.57922  -0.57072
 Alpha  occ. eigenvalues --   -0.55228  -0.50160  -0.50017  -0.47228  -0.45339
 Alpha  occ. eigenvalues --   -0.43596  -0.40813  -0.40221  -0.38170  -0.37867
 Alpha  occ. eigenvalues --   -0.36966
 Alpha virt. eigenvalues --   -0.02280  -0.00587   0.00651   0.01349   0.01959
 Alpha virt. eigenvalues --    0.03354   0.03550   0.04704   0.06014   0.06115
 Alpha virt. eigenvalues --    0.06638   0.07419   0.08176   0.09554   0.10348

  Beta  occ. eigenvalues --  -19.69436 -19.66880 -19.64082 -10.71516 -10.61091
  Beta  occ. eigenvalues --  -10.57704 -10.57278 -10.54246  -1.26615  -1.17342
  Beta  occ. eigenvalues --   -1.07648  -0.90950  -0.87439  -0.78667  -0.70874
  Beta  occ. eigenvalues --   -0.65464  -0.61744  -0.59338  -0.57292  -0.55128
  Beta  occ. eigenvalues --   -0.52531  -0.49960  -0.47522  -0.46008  -0.42470
  Beta  occ. eigenvalues --   -0.40321  -0.40178  -0.39386  -0.37862  -0.36953
  Beta virt. eigenvalues --   -0.10798  -0.02263  -0.00410   0.00706   0.01601
  Beta virt. eigenvalues --    0.02042   0.03383   0.03574   0.04878   0.06093
  Beta virt. eigenvalues --    0.06170   0.06702   0.07541   0.08215   0.09738

 Mulliken charges and spin densities:
               1          2
     1  O   -0.266616   0.866039
     2  H    0.262268  -0.018229
     3  C   -0.578223  -0.000089
     4  H    0.186119  -0.000032
     5  C    1.124001   0.003655
     6  C   -0.722089   0.000776
     7  O   -0.202172   0.001006
     8  O   -0.005770  -0.003912
     9  C   -0.476785   0.173112
    10  C   -0.339632   0.001950
    11  H    0.260777  -0.033844
    12  H    0.219345   0.000851
    13  H    0.175832  -0.000457
    14  H    0.176166   0.000854
    15  H    0.186778   0.008321
 Sum of Mulliken charges =  -0.00000   1.00000

 Dipole moment (field-independent basis, Debye):
    X=             -0.9845    Y=              1.4407    Z=              1.1561  Tot=              2.0932
 Quadrupole moment (field-independent basis, Debye-Ang):
   XX=            -45.0534   YY=            -47.2594   ZZ=            -48.3699
   XY=            -10.3712   XZ=             -2.0250   YZ=             -0.3346

  Exact polarizability:  91.510  -4.693  77.794  -4.089   4.138  51.242
 Approx polarizability:  93.925  -9.682  89.101  -6.563  10.540  60.445

 ******    3 imaginary frequencies (negative Signs) ******

                      1                      2                      3
                      A                      A                      A
 Frequencies --   -253.1473              -104.0871                -8.8372
 Red. masses --      2.5122                 3.8381                 5.7472
 Frc consts  --      0.0949                 0.0245                 0.0003
 IR Inten    --     40.6618                 0.6311                12.2308

                      4                      5                      6
                      A                      A                      A
 Frequencies --     56.8184                93.1579               149.0642
 Red. masses --      4.5914                 4.5312                 3.6419
 Frc consts  --      0.0087                 0.0232                 0.0477
 IR Inten    --      4.6120                 3.7673                10.0513

                      7                      8                      9
                      A                      A                      A
 Frequencies --    216.5840               225.1888               269.7970
 Red. masses --      1.0885                 1.2317                 4.1026
 Frc consts  --      0.0301                 0.0368                 0.1759
 IR Inten    --    107.5397                 1.4105                 3.0701

                     10                     11                     12
                      A                      A                      A
 Frequencies --    318.6228               419.6699               560.1482
 Red. masses --      3.2055                 3.7707                 3.9174
 Frc consts  --      0.1917                 0.3913                 0.7242
 IR Inten    --     11.3562                 2.5605                 2.7501

                     13                     14                     15
                      A                      A                      A
 Frequencies --    599.3950               641.9014               742.1485
 Red. masses --      3.6997                 1.4173                 1.3127
 Frc consts  --      0.7831                 0.3441                 0.4260
 IR Inten    --     14.1064               174.4600                36.8737

                     16                     17                     18
                      A                      A                      A
 Frequencies --    756.9587               772.9948               785.9373
 Red. masses --      1.2738                 1.4148                 6.0451
 Frc consts  --      0.4300                 0.4981                 2.2000
 IR Inten    --     15.0432                23.4042                38.4476

                     19                     20                     21
                      A                      A                      A
 Frequencies --    894.3240               936.9331              1089.4382
 Red. masses --      3.2030                 2.7878                 3.6660
 Frc consts  --      1.5094                 1.4419                 2.5636
 IR Inten    --     12.3965                 5.6294                53.6512

                     22                     23                     24
                      A                      A                      A
 Frequencies --   1129.3067              1172.0488              1274.5413
 Red. masses --      2.0852                 1.8655                 3.7634
 Frc consts  --      1.5668                 1.5098                 3.6019
 IR Inten    --     35.8587                42.8431               574.5451

                     25                     26                     27
                      A                      A                      A
 Frequencies --   1312.7022              1382.1742              1418.0330
 Red. masses --      1.3672                 1.2296                 1.3452
 Frc consts  --      1.3880                 1.3840                 1.5937
 IR Inten    --    234.4511                 3.4738                13.5356

                     28                     29                     30
                      A                      A                      A
 Frequencies --   1460.4708              1488.6444              1502.7708
 Red. masses --      1.1099                 1.0399                 1.0571
 Frc consts  --      1.3948                 1.3578                 1.4065
 IR Inten    --     31.3599                12.3093                10.7133

                     31                     32                     33
                      A                      A                      A
 Frequencies --   1845.7521              2269.4773              2506.9878
 Red. masses --     12.3317                 5.7432                 1.1004
 Frc consts  --     24.7526                17.4285                 4.0750
 IR Inten    --    349.5116                75.1178               859.9715

                     34                     35                     36
                      A                      A                      A
 Frequencies --   3072.2628              3131.5187              3152.8887
 Red. masses --      1.0346                 1.0866                 1.1027
 Frc consts  --      5.7536                 6.2781                 6.4583
 IR Inten    --      6.3995                 4.0218                 7.5830

                     37                     38                     39
                      A                      A                      A
 Frequencies --   3158.4118              3489.8922              3775.5176
 Red. masses --      1.1022                 1.1711                 1.0670
 Frc consts  --      6.4781                 8.4038                 8.9610
 IR Inten    --     10.4304                62.1985                34.7046

 - Thermochemistry -
 -------------------
 Temperature   298.150 Kelvin.  Pressure   1.00000 Atm.
 Atom     1 has atomic number  8 and mass  15.99491

 Molecular mass:   115.03952 amu.
 Principal axes and moments of inertia in atomic units:
                           1         2         3
     Eigenvalues --   605.302821600.901632013.83232
           X            0.99922  -0.03930   0.00277
           Y            0.03935   0.99901  -0.02065
           Z           -0.00196   0.02075   0.99978
 This molecule is an asymmetric top.
 Rotational symmetry number  1.
 Warning -- assumption of classical behavior for rotation
           may cause significant error
 Rotational temperatures (Kelvin)      0.14309     0.05410     0.04301
 Rotational constants (GHZ):           2.98155     1.12733     0.89617
    3 imaginary frequencies ignored.
 Zero-point vibrational energy     287537.3 (Joules/Mol)
                                   68.72307 (Kcal/Mol)
 Warning -- explicit consideration of  10 degrees of freedom as
           vibrations may cause significant error
 Vibrational temperatures:     81.75   134.03   214.47   311.62   324.00
          (Kelvin)            388.18   458.43   603.81   805.93   862.40
                              923.55  1067.79  1089.09  1112.17  1130.79
                             1286.73  1348.04  1567.46  1624.82  1686.32
                             1833.78  1888.69  1988.64  2040.23  2101.29
                             2141.83  2162.15  2655.63  3265.27  3607.00
                             4420.30  4505.56  4536.30  4544.25  5021.18
                             5432.13

 Zero-point correction=                           0.109517 (Hartree/Particle)
 Thermal correction to Energy=                    0.117832
 Thermal correction to Enthalpy=                  0.118776
 Thermal correction to Gibbs Free Energy=         0.075064
 Sum of electronic and zero-point Energies=           -420.091160
 Sum of electronic and thermal Energies=              -420.082846
 Sum of electronic and thermal Enthalpies=            -420.081901
 Sum of electronic and thermal Free Energies=         -420.125614

                     E (Thermal)             CV                S
                      KCal/Mol        Cal/Mol-Kelvin    Cal/Mol-Kelvin
 Total                   73.941             28.656             92.000
 Electronic               0.000              0.000              1.377
 Translational            0.889              2.981             40.136
 Rotational               0.889              2.981             29.058
 Vibrational             72.163             22.695             21.429
 Vibration     1          0.596              1.975              4.565
 Vibration     2          0.602              1.954              3.593
 Vibration     3          0.618              1.904              2.684
 Vibration     4          0.645              1.816              1.987
 Vibration     5          0.650              1.803              1.917
 Vibration     6          0.674              1.729              1.598
 Vibration     7          0.705              1.638              1.317
 Vibration     8          0.782              1.427              0.893
 Vibration     9          0.916              1.118              0.524
 Vibration    10          0.957              1.033              0.451

 1\1\GINC-AJ\Freq\UM062X\6-311++G(d,p)\C5H7O3(2)\AAYUSH\16-Aug-2025\0\\
 # freq 6-311++g(d,p) m062x\\Title Card Required\\0,2\O,2.714688,1.7849
 72,-0.224487\H,1.874976,2.21906,0.006531\C,-3.13478,1.020229,0.422496\
 H,-4.015557,1.565762,0.668977\C,-2.145136,0.404939,0.145135\C,-0.97447
 2,-0.383287,-0.207517\O,-1.021587,-1.485708,-0.673929\O,0.15433,0.2889
 49,0.054733\C,1.371429,-0.401338,-0.272227\C,1.82607,-1.311579,0.83887
 \H,2.12272,0.395305,-0.425843\H,1.251766,-0.912276,-1.227669\H,2.80988
 8,-1.715197,0.59384\H,1.902568,-0.758932,1.77632\H,1.129866,-2.14292,0

 Normal termination of Gaussian 16 at Sat Aug 16 15:21:49 2025.
