 Gaussian 16, Revision A.03,
 Gaussian 16:  ES64L-G16RevA.03 25-Dec-2016

 --------------------------
 # freq 6-311++g(d,p) m062x
 --------------------------

 -------------------
 Title Card Required
 -------------------
 Symbolic Z-matrix:
 Charge =  0 Multiplicity = 2

                         Standard orientation:
 ---------------------------------------------------------------------
 Center     Atomic      Atomic             Coordinates (Angstroms)
 Number     Number       Type             X           Y           Z
 ---------------------------------------------------------------------
      1          8           0        2.653641    1.778614   -0.245456
      2          1           0        1.823115    2.229160   -0.014436
      3          6           0       -3.191192    1.034461    0.403288
      4          1           0       -4.071195    1.581217    0.649905
      5          6           0       -2.202355    0.417964    0.125741
      6          6           0       -1.032990   -0.371957   -0.227206
      7          8           0       -1.080456   -1.474199   -0.693510
      8          8           0        0.096281    0.299425    0.036375
      9          6           0        1.315682   -0.382629   -0.287654
     10          6           0        1.768559   -1.299893    0.817816
     11          1           0        2.068742    0.434872   -0.418290
     12          1           0        1.213659   -0.876157   -1.254482
     13          1           0        2.751680   -1.704852    0.572842
     14          1           0        1.842824   -0.752591    1.758515
     15          1           0        1.069215   -2.130048    0.934771
 ---------------------------------------------------------------------

 SCF Done:  E(UM062X) =  -420.199873247     A.U. after   21 cycles

 The electronic state is 2-A.
 Alpha  occ. eigenvalues --  -19.69529 -19.67927 -19.64177 -10.71615 -10.61655
 Alpha  occ. eigenvalues --  -10.57758 -10.57328 -10.54395  -1.26777  -1.17537
 Alpha  occ. eigenvalues --   -1.14232  -0.91356  -0.87808  -0.78932  -0.71642
 Alpha  occ. eigenvalues --   -0.65758  -0.62063  -0.60181  -0.58066  -0.57164
 Alpha  occ. eigenvalues --   -0.54940  -0.50277  -0.50041  -0.47324  -0.45411
 Alpha  occ. eigenvalues --   -0.43224  -0.40808  -0.40274  -0.37924  -0.37710
 Alpha  occ. eigenvalues --   -0.37020
 Alpha virt. eigenvalues --   -0.02348  -0.00568   0.00639   0.01363   0.01939
 Alpha virt. eigenvalues --    0.03327   0.03518   0.04688   0.06019   0.06092
 Alpha virt. eigenvalues --    0.06623   0.07419   0.08146   0.09526   0.10313

  Beta  occ. eigenvalues --  -19.69534 -19.66466 -19.64173 -10.71608 -10.61394
  Beta  occ. eigenvalues --  -10.57758 -10.57328 -10.54398  -1.26728  -1.17463
  Beta  occ. eigenvalues --   -1.07767  -0.91018  -0.87494  -0.78795  -0.70902
  Beta  occ. eigenvalues --   -0.65525  -0.61786  -0.59421  -0.57392  -0.55231
  Beta  occ. eigenvalues --   -0.52292  -0.50090  -0.47598  -0.46118  -0.42593
  Beta  occ. eigenvalues --   -0.40313  -0.39990  -0.39419  -0.37916  -0.37011
  Beta virt. eigenvalues --   -0.10984  -0.02326  -0.00405   0.00695   0.01612
  Beta virt. eigenvalues --    0.02025   0.03361   0.03545   0.04863   0.06103
  Beta virt. eigenvalues --    0.06147   0.06700   0.07539   0.08187   0.09707

 Mulliken charges and spin densities:
               1          2
     1  O   -0.282150   0.830934
     2  H    0.260635  -0.017908
     3  C   -0.571989  -0.000021
     4  H    0.186621  -0.000032
     5  C    1.117489   0.003827
     6  C   -0.720942   0.001890
     7  O   -0.202171   0.000993
     8  O   -0.005062  -0.005003
     9  C   -0.478664   0.207777
    10  C   -0.341293   0.000365
    11  H    0.273314  -0.034683
    12  H    0.221116   0.000064
    13  H    0.177160  -0.000267
    14  H    0.177777   0.001347
    15  H    0.188159   0.010716
 Sum of Mulliken charges =  -0.00000   1.00000

 Dipole moment (field-independent basis, Debye):
    X=             -1.0736    Y=              1.3211    Z=              1.1752  Tot=              2.0686
 Quadrupole moment (field-independent basis, Debye-Ang):
   XX=            -45.2179   YY=            -47.4393   ZZ=            -48.3250
   XY=            -10.6941   XZ=             -1.9751   YZ=             -0.3441

  Exact polarizability:  92.721  -2.932  80.369  -4.266   3.880  51.282
 Approx polarizability:  94.565  -8.686  90.912  -6.645  10.399  60.506

 ******    3 imaginary frequencies (negative Signs) ******

                      1                      2                      3
                      A                      A                      A
 Frequencies --   -399.8158               -86.6482               -27.6330
 Red. masses --      2.3807                 3.7003                 5.5117
 Frc consts  --      0.2242                 0.0164                 0.0025
 IR Inten    --    162.0146                 0.8409                 8.6443

                      4                      5                      6
                      A                      A                      A
 Frequencies --     61.5234                91.1339               150.6362
 Red. masses --      4.2275                 4.3114                 3.5363
 Frc consts  --      0.0094                 0.0211                 0.0473
 IR Inten    --      4.5422                 2.3711                10.5955

                      7                      8                      9
                      A                      A                      A
 Frequencies --    212.6780               223.9056               269.3704
 Red. masses --      1.0967                 1.2418                 4.0510
 Frc consts  --      0.0292                 0.0367                 0.1732
 IR Inten    --    105.8764                 1.3624                 3.6705

                     10                     11                     12
                      A                      A                      A
 Frequencies --    306.6907               418.9528               559.4823
 Red. masses --      3.4714                 3.7277                 4.1096
 Frc consts  --      0.1924                 0.3855                 0.7579
 IR Inten    --     10.8015                 2.7779                 2.0400

                     13                     14                     15
                      A                      A                      A
 Frequencies --    602.3319               674.7395               742.3854
 Red. masses --      5.3628                 1.3043                 1.3143
 Frc consts  --      1.1463                 0.3499                 0.4268
 IR Inten    --      5.7080               153.5404                36.0185

                     16                     17                     18
                      A                      A                      A
 Frequencies --    765.0349               773.3004               785.2049
 Red. masses --      1.2679                 1.4261                 5.5462
 Frc consts  --      0.4372                 0.5024                 2.0147
 IR Inten    --     25.7599                24.1692                38.4774

                     19                     20                     21
                      A                      A                      A
 Frequencies --    895.0727               939.0011              1090.5449
 Red. masses --      3.1432                 2.8009                 3.6491
 Frc consts  --      1.4837                 1.4551                 2.5570
 IR Inten    --     14.9829                11.7413                69.4884

                     22                     23                     24
                      A                      A                      A
 Frequencies --   1128.9197              1167.9506              1276.8926
 Red. masses --      2.0825                 1.8999                 4.1859
 Frc consts  --      1.5637                 1.5270                 4.0211
 IR Inten    --     47.5553                70.2704               589.2025

                     25                     26                     27
                      A                      A                      A
 Frequencies --   1301.2828              1377.9347              1413.8833
 Red. masses --      1.3447                 1.2232                 1.2997
 Frc consts  --      1.3416                 1.3684                 1.5309
 IR Inten    --    280.4911                 1.7763                17.8177

                     28                     29                     30
                      A                      A                      A
 Frequencies --   1443.0397              1487.5500              1499.9153
 Red. masses --      1.1425                 1.0394                 1.0517
 Frc consts  --      1.4017                 1.3551                 1.3940
 IR Inten    --     65.8889                12.8324                 9.2875

                     31                     32                     33
                      A                      A                      A
 Frequencies --   1846.2791              2200.9544              2269.6530
 Red. masses --     12.4415                 1.1215                 5.7040
 Frc consts  --     24.9872                 3.2008                17.3120
 IR Inten    --    370.4809              1165.1761                77.7988

                     34                     35                     36
                      A                      A                      A
 Frequencies --   3071.5532              3130.7697              3151.7003
 Red. masses --      1.0346                 1.0862                 1.1028
 Frc consts  --      5.7510                 6.2727                 6.4542
 IR Inten    --      5.5928                 4.5828                 5.1157

                     37                     38                     39
                      A                      A                      A
 Frequencies --   3158.9659              3489.7600              3780.2764
 Red. masses --      1.1020                 1.1712                 1.0669
 Frc consts  --      6.4790                 8.4035                 8.9833
 IR Inten    --     10.5736                62.2601                35.9816

 - Thermochemistry -
 -------------------
 Temperature   298.150 Kelvin.  Pressure   1.00000 Atm.
 Atom     1 has atomic number  8 and mass  15.99491

 Molecular mass:   115.03952 amu.
 Principal axes and moments of inertia in atomic units:
                           1         2         3
     Eigenvalues --   601.675831599.649672009.35408
           X            0.99924  -0.03876   0.00281
           Y            0.03881   0.99903  -0.02098
           Z           -0.00199   0.02107   0.99978
 This molecule is an asymmetric top.
 Rotational symmetry number  1.
 Warning -- assumption of classical behavior for rotation
           may cause significant error
 Rotational temperatures (Kelvin)      0.14395     0.05415     0.04311
 Rotational constants (GHZ):           2.99952     1.12821     0.89817
    3 imaginary frequencies ignored.
 Zero-point vibrational energy     285663.9 (Joules/Mol)
                                   68.27530 (Kcal/Mol)
 Warning -- explicit consideration of  10 degrees of freedom as
           vibrations may cause significant error
 Vibrational temperatures:     88.52   131.12   216.73   306.00   322.15
          (Kelvin)            387.56   441.26   602.78   804.97   866.62
                              970.80  1068.13  1100.71  1112.61  1129.73
                             1287.81  1351.01  1569.05  1624.26  1680.42
                             1837.16  1872.26  1982.54  2034.26  2076.21
                             2140.25  2158.04  2656.38  3166.68  3265.52
                             4419.28  4504.48  4534.59  4545.05  5020.99
                             5438.97

 Zero-point correction=                           0.108804 (Hartree/Particle)
 Thermal correction to Energy=                    0.117115
 Thermal correction to Enthalpy=                  0.118060
 Thermal correction to Gibbs Free Energy=         0.074388
 Sum of electronic and zero-point Energies=           -420.091070
 Sum of electronic and thermal Energies=              -420.082758
 Sum of electronic and thermal Enthalpies=            -420.081814
 Sum of electronic and thermal Free Energies=         -420.125485

                     E (Thermal)             CV                S
                      KCal/Mol        Cal/Mol-Kelvin    Cal/Mol-Kelvin
 Total                   73.491             28.618             91.914
 Electronic               0.000              0.000              1.377
 Translational            0.889              2.981             40.136
 Rotational               0.889              2.981             29.049
 Vibrational             71.714             22.657             21.352
 Vibration     1          0.597              1.973              4.408
 Vibration     2          0.602              1.955              3.636
 Vibration     3          0.618              1.902              2.664
 Vibration     4          0.644              1.822              2.021
 Vibration     5          0.649              1.805              1.927
 Vibration     6          0.674              1.730              1.600
 Vibration     7          0.697              1.661              1.380
 Vibration     8          0.782              1.429              0.896
 Vibration     9          0.915              1.119              0.525
 Vibration    10          0.961              1.027              0.446

 1\1\GINC-AJ\Freq\UM062X\6-311++G(d,p)\C5H7O3(2)\AAYUSH\23-Jun-2025\0\\
 # freq 6-311++g(d,p) m062x\\Title Card Required\\0,2\O,2.653641,1.7786
 14,-0.245456\H,1.823115,2.22916,-0.014436\C,-3.191192,1.034461,0.40328
 8\H,-4.071195,1.581217,0.649905\C,-2.202355,0.417964,0.125741\C,-1.032
 99,-0.371957,-0.227206\O,-1.080456,-1.474199,-0.69351\O,0.096281,0.299
 425,0.036375\C,1.315682,-0.382629,-0.287654\C,1.768559,-1.299893,0.817
 816\H,2.068742,0.434872,-0.41829\H,1.213659,-0.876157,-1.254482\H,2.75
 168,-1.704852,0.572842\H,1.842824,-0.752591,1.758515\H,1.069215,-2.130

 Normal termination of Gaussian 16 at Mon Jun 23 01:04:43 2025.
