 Gaussian 16, Revision A.03,
 Gaussian 16:  ES64L-G16RevA.03 25-Dec-2016

 --------------------------
 # freq 6-311++g(d,p) m062x
 --------------------------

 -------------------
 Title Card Required
 -------------------
 Symbolic Z-matrix:
 Charge =  0 Multiplicity = 2

                         Standard orientation:
 ---------------------------------------------------------------------
 Center     Atomic      Atomic             Coordinates (Angstroms)
 Number     Number       Type             X           Y           Z
 ---------------------------------------------------------------------
      1          8           0        2.636394    1.741313   -0.247978
      2          1           0        1.837295    2.233542   -0.016643
      3          6           0       -3.192531    1.030258    0.403574
      4          1           0       -4.072559    1.577125    0.650709
      5          6           0       -2.203449    0.414426    0.125472
      6          6           0       -1.036892   -0.375552   -0.229369
      7          8           0       -1.080548   -1.477138   -0.694938
      8          8           0        0.098330    0.295087    0.037115
      9          6           0        1.309068   -0.376613   -0.279638
     10          6           0        1.773046   -1.293988    0.813617
     11          1           0        2.182312    0.713580   -0.354540
     12          1           0        1.270336   -0.803629   -1.281269
     13          1           0        2.752892   -1.704894    0.569503
     14          1           0        1.838520   -0.759184    1.761898
     15          1           0        1.062342   -2.121833    0.914812
 ---------------------------------------------------------------------

 SCF Done:  E(UM062X) =  -420.208070988     A.U. after   17 cycles

 The electronic state is 2-A.
 Alpha  occ. eigenvalues --  -19.70833 -19.65188 -19.62629 -10.72672 -10.64291
 Alpha  occ. eigenvalues --  -10.58413 -10.57932 -10.55897  -1.28047  -1.18742
 Alpha  occ. eigenvalues --   -1.11511  -0.92252  -0.88594  -0.80197  -0.71934
 Alpha  occ. eigenvalues --   -0.67127  -0.62546  -0.61036  -0.59036  -0.58257
 Alpha  occ. eigenvalues --   -0.52737  -0.51685  -0.49381  -0.48458  -0.46370
 Alpha  occ. eigenvalues --   -0.41547  -0.41291  -0.39189  -0.38555  -0.37745
 Alpha  occ. eigenvalues --   -0.32078
 Alpha virt. eigenvalues --   -0.03167  -0.00532   0.00424   0.01498   0.01808
 Alpha virt. eigenvalues --    0.02959   0.03142   0.04557   0.05822   0.05921
 Alpha virt. eigenvalues --    0.06498   0.07307   0.07768   0.09220   0.10091

  Beta  occ. eigenvalues --  -19.70801 -19.65181 -19.61933 -10.72634 -10.63566
  Beta  occ. eigenvalues --  -10.58413 -10.57932 -10.55909  -1.27825  -1.18556
  Beta  occ. eigenvalues --   -1.08869  -0.91469  -0.87855  -0.79754  -0.70691
  Beta  occ. eigenvalues --   -0.66222  -0.62266  -0.60188  -0.58270  -0.55967
  Beta  occ. eigenvalues --   -0.51712  -0.50799  -0.48391  -0.47130  -0.44142
  Beta  occ. eigenvalues --   -0.41206  -0.40873  -0.38538  -0.37871  -0.37665
  Beta virt. eigenvalues --   -0.09535  -0.03060  -0.00458   0.00491   0.01646
  Beta virt. eigenvalues --    0.01983   0.03048   0.03203   0.04784   0.05889
  Beta virt. eigenvalues --    0.05979   0.06677   0.07404   0.07811   0.09340

 Mulliken charges and spin densities:
               1          2
     1  O   -0.459462   0.322026
     2  H    0.256476  -0.002822
     3  C   -0.554219   0.001407
     4  H    0.190425   0.000061
     5  C    1.119919   0.001694
     6  C   -0.727691   0.010745
     7  O   -0.197615   0.001569
     8  O    0.014994  -0.027318
     9  C   -0.473204   0.721619
    10  C   -0.332538  -0.029241
    11  H    0.344315  -0.039054
    12  H    0.238221  -0.013649
    13  H    0.187451   0.002384
    14  H    0.195632   0.007840
    15  H    0.197297   0.042738
 Sum of Mulliken charges =  -0.00000   1.00000

 Dipole moment (field-independent basis, Debye):
    X=             -2.1351    Y=             -0.0688    Z=              1.3099  Tot=              2.5059
 Quadrupole moment (field-independent basis, Debye-Ang):
   XX=            -47.7078   YY=            -49.4709   ZZ=            -47.8948
   XY=            -14.6923   XZ=             -1.6112   YZ=             -0.2457

  Exact polarizability:  92.984  -4.079  79.502  -4.226   3.597  51.612
 Approx polarizability:  95.892  -8.000  93.874  -6.896   9.781  61.073

 ******    1 imaginary frequencies (negative Signs) ******

                      1                      2                      3
                      A                      A                      A
 Frequencies --  -1161.9243                42.9689                81.3857
 Red. masses --      1.1583                 6.9500                 4.4974
 Frc consts  --      0.9213                 0.0076                 0.0176
 IR Inten    --    243.2465                 4.4640                 1.4217

                      4                      5                      6
                      A                      A                      A
 Frequencies --    112.5887               155.3083               183.8686
 Red. masses --      4.7360                 3.4494                 1.4635
 Frc consts  --      0.0354                 0.0490                 0.0292
 IR Inten    --      1.9017                 3.5150                 2.9201

                      7                      8                      9
                      A                      A                      A
 Frequencies --    206.8876               223.0149               272.0135
 Red. masses --      1.9116                 1.1482                 4.9141
 Frc consts  --      0.0482                 0.0336                 0.2142
 IR Inten    --     10.9551                87.6456                 1.5627

                     10                     11                     12
                      A                      A                      A
 Frequencies --    294.3157               427.6591               540.2436
 Red. masses --      5.2886                 3.6099                 5.1756
 Frc consts  --      0.2699                 0.3890                 0.8900
 IR Inten    --     10.3274                 5.4627                 0.3563

                     13                     14                     15
                      A                      A                      A
 Frequencies --    606.9699               638.6859               745.5800
 Red. masses --      5.3013                 2.2669                 1.3115
 Frc consts  --      1.1507                 0.5448                 0.4295
 IR Inten    --     10.6970                 1.4923                42.4942

                     16                     17                     18
                      A                      A                      A
 Frequencies --    763.8299               773.6895               780.3939
 Red. masses --      1.2921                 2.6745                 1.7761
 Frc consts  --      0.4441                 0.9433                 0.6373
 IR Inten    --     75.6185                 8.2342                63.9277

                     19                     20                     21
                      A                      A                      A
 Frequencies --    829.6321               897.5874               953.0844
 Red. masses --      1.2141                 3.0407                 3.5301
 Frc consts  --      0.4924                 1.4433                 1.8893
 IR Inten    --      8.7432                11.2889                 1.2145

                     22                     23                     24
                      A                      A                      A
 Frequencies --   1020.0055              1101.2132              1130.0982
 Red. masses --      1.1253                 3.8905                 2.1570
 Frc consts  --      0.6898                 2.7797                 1.6231
 IR Inten    --     60.8176                59.8873                53.5125

                     25                     26                     27
                      A                      A                      A
 Frequencies --   1199.4919              1259.6612              1366.3921
 Red. masses --      1.6637                 8.2736                 1.2338
 Frc consts  --      1.4103                 7.7348                 1.3572
 IR Inten    --     92.7629               773.1013                 6.8337

                     28                     29                     30
                      A                      A                      A
 Frequencies --   1408.3287              1477.5214              1479.9968
 Red. masses --      1.3304                 1.0410                 1.0516
 Frc consts  --      1.5546                 1.3390                 1.3572
 IR Inten    --     17.8574                10.3682                 3.4054

                     31                     32                     33
                      A                      A                      A
 Frequencies --   1654.3231              1846.1581              2269.5769
 Red. masses --      1.0448                12.7692                 5.7421
 Frc consts  --      1.6847                25.6420                17.4266
 IR Inten    --     50.3689               334.4628                85.9906

                     34                     35                     36
                      A                      A                      A
 Frequencies --   3049.7016              3132.0848              3143.5925
 Red. masses --      1.0411                 1.0929                 1.0876
 Frc consts  --      5.7049                 6.3171                 6.3323
 IR Inten    --      0.4460                 3.0371                 7.1759

                     37                     38                     39
                      A                      A                      A
 Frequencies --   3167.3425              3488.2890              3851.9833
 Red. masses --      1.1020                 1.1715                 1.0658
 Frc consts  --      6.5136                 8.3987                 9.3175
 IR Inten    --      6.0961                63.4139                46.6297

 - Thermochemistry -
 -------------------
 Temperature   298.150 Kelvin.  Pressure   1.00000 Atm.
 Atom     1 has atomic number  8 and mass  15.99491

 Molecular mass:   115.03952 amu.
 Principal axes and moments of inertia in atomic units:
                           1         2         3
     Eigenvalues --   593.889711597.122941999.64676
           X            0.99936  -0.03578   0.00266
           Y            0.03583   0.99911  -0.02216
           Z           -0.00187   0.02224   0.99975
 This molecule is an asymmetric top.
 Rotational symmetry number  1.
 Warning -- assumption of classical behavior for rotation
           may cause significant error
 Rotational temperatures (Kelvin)      0.14584     0.05423     0.04331
 Rotational constants (GHZ):           3.03885     1.13000     0.90253
    1 imaginary frequencies ignored.
 Zero-point vibrational energy     278583.2 (Joules/Mol)
                                   66.58297 (Kcal/Mol)
 Warning -- explicit consideration of  12 degrees of freedom as
           vibrations may cause significant error
 Vibrational temperatures:     61.82   117.10   161.99   223.45   264.55
          (Kelvin)            297.67   320.87   391.37   423.45   615.31
                              777.29   873.29   918.93  1072.72  1098.98
                             1113.17  1122.81  1193.66  1291.43  1371.28
                             1467.56  1584.40  1625.96  1725.80  1812.37
                             1965.93  2026.27  2125.82  2129.39  2380.20
                             2656.21  3265.41  4387.84  4506.37  4522.93
                             4557.10  5018.87  5542.14

 Zero-point correction=                           0.106107 (Hartree/Particle)
 Thermal correction to Energy=                    0.115892
 Thermal correction to Enthalpy=                  0.116836
 Thermal correction to Gibbs Free Energy=         0.069956
 Sum of electronic and zero-point Energies=           -420.101964
 Sum of electronic and thermal Energies=              -420.092179
 Sum of electronic and thermal Enthalpies=            -420.091235
 Sum of electronic and thermal Free Energies=         -420.138115

                     E (Thermal)             CV                S
                      KCal/Mol        Cal/Mol-Kelvin    Cal/Mol-Kelvin
 Total                   72.723             33.275             98.668
 Electronic               0.000              0.000              1.377
 Translational            0.889              2.981             40.136
 Rotational               0.889              2.981             29.030
 Vibrational             70.946             27.314             28.125
 Vibration     1          0.595              1.980              5.117
 Vibration     2          0.600              1.962              3.857
 Vibration     3          0.607              1.939              3.224
 Vibration     4          0.620              1.897              2.606
 Vibration     5          0.631              1.862              2.289
 Vibration     6          0.641              1.830              2.071
 Vibration     7          0.649              1.806              1.934
 Vibration     8          0.675              1.725              1.583
 Vibration     9          0.689              1.684              1.449
 Vibration    10          0.789              1.410              0.866
 Vibration    11          0.895              1.161              0.565
 Vibration    12          0.966              1.017              0.438

 1\1\GINC-AJ\Freq\UM062X\6-311++G(d,p)\C5H7O3(2)\AAYUSH\23-Jun-2025\0\\
 # freq 6-311++g(d,p) m062x\\Title Card Required\\0,2\O,2.636394,1.7413
 13,-0.247978\H,1.837295,2.233542,-0.016643\C,-3.192531,1.030258,0.4035
 74\H,-4.072559,1.577125,0.650709\C,-2.203449,0.414426,0.125472\C,-1.03
 6892,-0.375552,-0.229369\O,-1.080548,-1.477138,-0.694938\O,0.09833,0.2
 95087,0.037115\C,1.309068,-0.376613,-0.279638\C,1.773046,-1.293988,0.8
 13617\H,2.182312,0.71358,-0.35454\H,1.270336,-0.803629,-1.281269\H,2.7
 52892,-1.704894,0.569503\H,1.83852,-0.759184,1.761898\H,1.062342,-2.12

 Normal termination of Gaussian 16 at Mon Jun 23 01:49:37 2025.
