 Gaussian 16, Revision A.03,
 Gaussian 16:  ES64L-G16RevA.03 25-Dec-2016

 --------------------------
 # freq 6-311++g(d,p) m062x
 --------------------------

 -------------------
 Title Card Required
 -------------------
 Symbolic Z-matrix:
 Charge =  0 Multiplicity = 2

                         Standard orientation:
 ---------------------------------------------------------------------
 Center     Atomic      Atomic             Coordinates (Angstroms)
 Number     Number       Type             X           Y           Z
 ---------------------------------------------------------------------
      1          8           0        2.639062    1.752253   -0.248203
      2          1           0        1.829163    2.232726   -0.016998
      3          6           0       -3.192855    1.028719    0.403284
      4          1           0       -4.073375    1.574778    0.650179
      5          6           0       -2.203247    0.413623    0.125444
      6          6           0       -1.035020   -0.375382   -0.228712
      7          8           0       -1.078665   -1.477327   -0.694243
      8          8           0        0.097078    0.296704    0.036999
      9          6           0        1.315236   -0.370407   -0.281223
     10          6           0        1.773712   -1.292698    0.814602
     11          1           0        2.115329    0.590685   -0.365508
     12          1           0        1.259808   -0.817382   -1.274093
     13          1           0        2.754956   -1.700807    0.570330
     14          1           0        1.840625   -0.754972    1.761027
     15          1           0        1.066737   -2.121196    0.918275
 ---------------------------------------------------------------------

 SCF Done:  E(UM062X) =  -420.199975885     A.U. after   19 cycles

 The electronic state is 2-A.
 Alpha  occ. eigenvalues --  -19.70363 -19.64847 -19.64768 -10.72308 -10.63750
 Alpha  occ. eigenvalues --  -10.58193 -10.57729 -10.55411  -1.27619  -1.18342
 Alpha  occ. eigenvalues --   -1.12076  -0.92005  -0.88360  -0.79808  -0.71973
 Alpha  occ. eigenvalues --   -0.66644  -0.62425  -0.60760  -0.58642  -0.57823
 Alpha  occ. eigenvalues --   -0.53016  -0.51218  -0.49926  -0.48143  -0.46066
 Alpha  occ. eigenvalues --   -0.41269  -0.40940  -0.40570  -0.38343  -0.37507
 Alpha  occ. eigenvalues --   -0.34324
 Alpha virt. eigenvalues --   -0.02884  -0.00517   0.00512   0.01486   0.01801
 Alpha virt. eigenvalues --    0.03101   0.03261   0.04603   0.05912   0.05975
 Alpha virt. eigenvalues --    0.06526   0.07331   0.07896   0.09323   0.10149

  Beta  occ. eigenvalues --  -19.70347 -19.64842 -19.63655 -10.72285 -10.63240
  Beta  occ. eigenvalues --  -10.58192 -10.57729 -10.55416  -1.27478  -1.18214
  Beta  occ. eigenvalues --   -1.07886  -0.91391  -0.87821  -0.79499  -0.70910
  Beta  occ. eigenvalues --   -0.66071  -0.62114  -0.59946  -0.57991  -0.55243
  Beta  occ. eigenvalues --   -0.51496  -0.50661  -0.48176  -0.46806  -0.43321
  Beta  occ. eigenvalues --   -0.40882  -0.40251  -0.38336  -0.38128  -0.37462
  Beta virt. eigenvalues --   -0.10935  -0.02823  -0.00420   0.00569   0.01685
  Beta virt. eigenvalues --    0.01954   0.03160   0.03309   0.04810   0.05973
  Beta virt. eigenvalues --    0.06048   0.06678   0.07448   0.07946   0.09472

 Mulliken charges and spin densities:
               1          2
     1  O   -0.390159   0.572046
     2  H    0.255356  -0.010404
     3  C   -0.557756   0.000748
     4  H    0.189189   0.000010
     5  C    1.113868   0.003559
     6  C   -0.721621   0.007973
     7  O   -0.199698   0.001255
     8  O    0.007267  -0.014256
     9  C   -0.479358   0.470638
    10  C   -0.338515  -0.014067
    11  H    0.319838  -0.044901
    12  H    0.233586  -0.005987
    13  H    0.184285   0.000837
    14  H    0.189437   0.005007
    15  H    0.194282   0.027541
 Sum of Mulliken charges =  -0.00000   1.00000

 Dipole moment (field-independent basis, Debye):
    X=             -1.7749    Y=              0.3999    Z=              1.2736  Tot=              2.2209
 Quadrupole moment (field-independent basis, Debye-Ang):
   XX=            -46.8068   YY=            -48.7338   ZZ=            -48.0492
   XY=            -13.2821   XZ=             -1.7061   YZ=             -0.2832

  Exact polarizability:  95.139  -0.417  84.207  -4.559   3.301  51.494
 Approx polarizability:  97.213  -5.426  97.377  -6.950   9.795  60.900

 ******    1 imaginary frequencies (negative Signs) ******

                      1                      2                      3
                      A                      A                      A
 Frequencies --  -1700.6932                64.4139                81.5866
 Red. masses --      1.0815                 6.6311                 4.7008
 Frc consts  --      1.8430                 0.0162                 0.0184
 IR Inten    --   1427.9559                 4.5865                 0.7029

                      4                      5                      6
                      A                      A                      A
 Frequencies --    110.5174               149.0356               181.0236
 Red. masses --      4.8971                 3.2513                 2.1691
 Frc consts  --      0.0352                 0.0425                 0.0419
 IR Inten    --      1.1553                 5.4309                 7.3702

                      7                      8                      9
                      A                      A                      A
 Frequencies --    207.3834               215.4194               271.5486
 Red. masses --      1.0956                 1.4363                 4.6243
 Frc consts  --      0.0278                 0.0393                 0.2009
 IR Inten    --     87.2212                13.3134                 3.1472

                     10                     11                     12
                      A                      A                      A
 Frequencies --    287.7961               423.8665               541.6232
 Red. masses --      4.7089                 3.5875                 5.2607
 Frc consts  --      0.2298                 0.3798                 0.9093
 IR Inten    --      7.5552                 5.4680                 5.5630

                     13                     14                     15
                      A                      A                      A
 Frequencies --    596.0797               643.2980               744.5981
 Red. masses --      4.9285                 3.8092                 1.3146
 Frc consts  --      1.0318                 0.9288                 0.4294
 IR Inten    --     20.2287                 5.5650                39.3134

                     16                     17                     18
                      A                      A                      A
 Frequencies --    773.9206               780.8483               821.0432
 Red. masses --      2.1479                 2.3875                 1.2332
 Frc consts  --      0.7580                 0.8577                 0.4898
 IR Inten    --      3.4426                61.2850               132.3622

                     19                     20                     21
                      A                      A                      A
 Frequencies --    835.4175               899.7835               956.4628
 Red. masses --      1.1831                 2.6025                 3.7932
 Frc consts  --      0.4865                 1.2414                 2.0445
 IR Inten    --    115.6438                23.3064                 4.9827

                     22                     23                     24
                      A                      A                      A
 Frequencies --   1096.4953              1122.5555              1156.4585
 Red. masses --      2.8408                 2.1298                 1.7049
 Frc consts  --      2.0123                 1.5813                 1.3434
 IR Inten    --     32.7617               119.2835                12.8359

                     25                     26                     27
                      A                      A                      A
 Frequencies --   1248.6246              1274.0980              1368.9746
 Red. masses --      1.2071                 7.5199                 1.2260
 Frc consts  --      1.1088                 7.1923                 1.3537
 IR Inten    --     86.7339               698.5381                 3.1119

                     28                     29                     30
                      A                      A                      A
 Frequencies --   1410.3767              1482.1716              1484.7919
 Red. masses --      1.3241                 1.0478                 1.0390
 Frc consts  --      1.5518                 1.3562                 1.3495
 IR Inten    --     19.0358                 3.5308                 7.2931

                     31                     32                     33
                      A                      A                      A
 Frequencies --   1534.7128              1847.1247              2269.6722
 Red. masses --      1.0684                12.6567                 5.7432
 Frc consts  --      1.4827                25.4426                17.4313
 IR Inten    --     21.0625               338.8751                82.9297

                     34                     35                     36
                      A                      A                      A
 Frequencies --   3062.2272              3134.4314              3142.2780
 Red. masses --      1.0372                 1.0889                 1.0963
 Frc consts  --      5.7305                 6.3029                 6.3779
 IR Inten    --      1.4527                 5.6440                 3.6303

                     37                     38                     39
                      A                      A                      A
 Frequencies --   3165.4176              3488.7803              3816.9596
 Red. masses --      1.1024                 1.1714                 1.0667
 Frc consts  --      6.5078                 8.4004                 9.1563
 IR Inten    --      7.0291                62.9729                49.9032

 - Thermochemistry -
 -------------------
 Temperature   298.150 Kelvin.  Pressure   1.00000 Atm.
 Atom     1 has atomic number  8 and mass  15.99491

 Molecular mass:   115.03952 amu.
 Principal axes and moments of inertia in atomic units:
                           1         2         3
     Eigenvalues --   594.944161597.382892000.92826
           X            0.99931  -0.03697   0.00276
           Y            0.03703   0.99908  -0.02171
           Z           -0.00195   0.02180   0.99976
 This molecule is an asymmetric top.
 Rotational symmetry number  1.
 Warning -- assumption of classical behavior for rotation
           may cause significant error
 Rotational temperatures (Kelvin)      0.14558     0.05422     0.04329
 Rotational constants (GHZ):           3.03346     1.12981     0.90195
    1 imaginary frequencies ignored.
 Zero-point vibrational energy     279279.1 (Joules/Mol)
                                   66.74930 (Kcal/Mol)
 Warning -- explicit consideration of  12 degrees of freedom as
           vibrations may cause significant error
 Vibrational temperatures:     92.68   117.38   159.01   214.43   260.45
          (Kelvin)            298.38   309.94   390.70   414.07   609.85
                              779.27   857.63   925.56  1071.31  1113.50
                             1123.47  1181.30  1201.98  1294.59  1376.14
                             1577.61  1615.11  1663.89  1796.49  1833.14
                             1969.65  2029.22  2132.51  2136.28  2208.11
                             2657.60  3265.55  4405.86  4509.75  4521.04
                             4554.33  5019.58  5491.75

 Zero-point correction=                           0.106372 (Hartree/Particle)
 Thermal correction to Energy=                    0.116122
 Thermal correction to Enthalpy=                  0.117067
 Thermal correction to Gibbs Free Energy=         0.070487
 Sum of electronic and zero-point Energies=           -420.093604
 Sum of electronic and thermal Energies=              -420.083854
 Sum of electronic and thermal Enthalpies=            -420.082909
 Sum of electronic and thermal Free Energies=         -420.129489

                     E (Thermal)             CV                S
                      KCal/Mol        Cal/Mol-Kelvin    Cal/Mol-Kelvin
 Total                   72.868             33.080             98.035
 Electronic               0.000              0.000              1.377
 Translational            0.889              2.981             40.136
 Rotational               0.889              2.981             29.032
 Vibrational             71.090             27.119             27.490
 Vibration     1          0.597              1.971              4.317
 Vibration     2          0.600              1.962              3.852
 Vibration     3          0.606              1.941              3.260
 Vibration     4          0.618              1.904              2.685
 Vibration     5          0.630              1.866              2.318
 Vibration     6          0.641              1.829              2.067
 Vibration     7          0.645              1.818              1.997
 Vibration     8          0.675              1.726              1.586
 Vibration     9          0.685              1.696              1.487
 Vibration    10          0.786              1.418              0.879
 Vibration    11          0.897              1.158              0.562
 Vibration    12          0.954              1.040              0.456

 1\1\GINC-AJ\Freq\UM062X\6-311++G(d,p)\C5H7O3(2)\AAYUSH\16-Aug-2025\0\\
 # freq 6-311++g(d,p) m062x\\Title Card Required\\0,2\O,2.697565,1.7438
 86,-0.229319\H,1.887626,2.224335,0.001796\C,-3.134276,1.019964,0.42242
 2\H,-4.014841,1.565997,0.669213\C,-2.144617,0.404898,0.144699\C,-0.976
 324,-0.384078,-0.209306\O,-1.019877,-1.486128,-0.674597\O,0.155717,0.2
 88168,0.056241\C,1.37393,-0.378901,-0.261857\C,1.832508,-1.300913,0.83
 416\H,2.173935,0.582245,-0.346363\H,1.318526,-0.826096,-1.254629\H,2.8
 13785,-1.708986,0.58996\H,1.899388,-0.762976,1.780468\H,1.12561,-2.129

 Normal termination of Gaussian 16 at Sat Aug 16 14:57:12 2025.
