 Gaussian 16, Revision A.03,
 Gaussian 16:  ES64L-G16RevA.03 25-Dec-2016

 --------------------------
 # freq 6-311++g(d,p) m062x
 --------------------------

 -------------------
 Title Card Required
 -------------------
 Symbolic Z-matrix:
 Charge =  0 Multiplicity = 2

                         Standard orientation:
 ---------------------------------------------------------------------
 Center     Atomic      Atomic             Coordinates (Angstroms)
 Number     Number       Type             X           Y           Z
 ---------------------------------------------------------------------
      1          8           0        2.651146    1.774934   -0.246019
      2          1           0        1.823337    2.230090   -0.014992
      3          6           0       -3.191577    1.033124    0.403256
      4          1           0       -4.071742    1.579621    0.649910
      5          6           0       -2.202528    0.416993    0.125664
      6          6           0       -1.033059   -0.372613   -0.227407
      7          8           0       -1.079822   -1.474838   -0.693628
      8          8           0        0.096051    0.299208    0.036549
      9          6           0        1.316493   -0.379296   -0.286532
     10          6           0        1.769597   -1.298332    0.817226
     11          1           0        2.069849    0.447658   -0.409412
     12          1           0        1.221027   -0.866731   -1.257172
     13          1           0        2.752686   -1.703253    0.572335
     14          1           0        1.842692   -0.752627    1.758914
     15          1           0        1.069601   -2.128443    0.931954
 ---------------------------------------------------------------------

 SCF Done:  E(UM062X) =  -420.199637241     A.U. after   21 cycles

 The electronic state is 2-A.
 Alpha  occ. eigenvalues --  -19.69576 -19.67726 -19.64219 -10.71659 -10.61806
 Alpha  occ. eigenvalues --  -10.57785 -10.57353 -10.54463  -1.26832  -1.17593
 Alpha  occ. eigenvalues --   -1.14092  -0.91409  -0.87850  -0.78998  -0.71689
 Alpha  occ. eigenvalues --   -0.65809  -0.62098  -0.60243  -0.58120  -0.57206
 Alpha  occ. eigenvalues --   -0.54804  -0.50342  -0.50041  -0.47371  -0.45449
 Alpha  occ. eigenvalues --   -0.43056  -0.40820  -0.40304  -0.37950  -0.37512
 Alpha  occ. eigenvalues --   -0.37041
 Alpha virt. eigenvalues --   -0.02380  -0.00561   0.00634   0.01370   0.01929
 Alpha virt. eigenvalues --    0.03315   0.03503   0.04681   0.06020   0.06082
 Alpha virt. eigenvalues --    0.06615   0.07417   0.08132   0.09513   0.10299

  Beta  occ. eigenvalues --  -19.69580 -19.66281 -19.64216 -10.71650 -10.61529
  Beta  occ. eigenvalues --  -10.57784 -10.57353 -10.54466  -1.26778  -1.17516
  Beta  occ. eigenvalues --   -1.07805  -0.91047  -0.87519  -0.78850  -0.70914
  Beta  occ. eigenvalues --   -0.65557  -0.61807  -0.59457  -0.57435  -0.55256
  Beta  occ. eigenvalues --   -0.52197  -0.50144  -0.47636  -0.46167  -0.42648
  Beta  occ. eigenvalues --   -0.40339  -0.39901  -0.39415  -0.37942  -0.37038
  Beta virt. eigenvalues --   -0.11051  -0.02357  -0.00404   0.00689   0.01618
  Beta virt. eigenvalues --    0.02017   0.03350   0.03531   0.04857   0.06105
  Beta virt. eigenvalues --    0.06137   0.06698   0.07537   0.08174   0.09692

 Mulliken charges and spin densities:
               1          2
     1  O   -0.289068   0.815617
     2  H    0.259998  -0.017703
     3  C   -0.569894   0.000018
     4  H    0.186829  -0.000031
     5  C    1.115566   0.003861
     6  C   -0.720604   0.002372
     7  O   -0.202115   0.000992
     8  O   -0.004676  -0.005457
     9  C   -0.479028   0.222665
    10  C   -0.341770  -0.000361
    11  H    0.277920  -0.034828
    12  H    0.221920  -0.000258
    13  H    0.177716  -0.000196
    14  H    0.178494   0.001569
    15  H    0.188711   0.011742
 Sum of Mulliken charges =  -0.00000   1.00000

 Dipole moment (field-independent basis, Debye):
    X=             -1.1165    Y=              1.2645    Z=              1.1831  Tot=              2.0604
 Quadrupole moment (field-independent basis, Debye-Ang):
   XX=            -45.3036   YY=            -47.5219   ZZ=            -48.3048
   XY=            -10.8496   XZ=             -1.9541   YZ=             -0.3448

  Exact polarizability:  93.180  -2.294  81.290  -4.332   3.782  51.298
 Approx polarizability:  94.829  -8.295  91.626  -6.679  10.339  60.532

 ******    3 imaginary frequencies (negative Signs) ******

                      1                      2                      3
                      A                      A                      A
 Frequencies --   -454.7113               -74.7639               -15.5495
 Red. masses --      2.2753                 3.8411                 5.4982
 Frc consts  --      0.2772                 0.0127                 0.0008
 IR Inten    --    242.9406                 1.1176                 7.3722

                      4                      5                      6
                      A                      A                      A
 Frequencies --     64.0935                91.1486               151.6362
 Red. masses --      4.0034                 4.2342                 3.4723
 Frc consts  --      0.0097                 0.0207                 0.0470
 IR Inten    --      4.4753                 2.2890                10.7196

                      7                      8                      9
                      A                      A                      A
 Frequencies --    211.2628               223.3240               269.3339
 Red. masses --      1.0998                 1.2467                 4.0564
 Frc consts  --      0.0289                 0.0366                 0.1734
 IR Inten    --    105.1455                 1.4238                 3.8266

                     10                     11                     12
                      A                      A                      A
 Frequencies --    304.1931               418.8324               559.1934
 Red. masses --      3.5379                 3.7121                 4.1571
 Frc consts  --      0.1929                 0.3837                 0.7659
 IR Inten    --     10.6477                 2.9311                 2.0757

                     13                     14                     15
                      A                      A                      A
 Frequencies --    602.8904               686.5868               742.5195
 Red. masses --      5.7144                 1.3113                 1.3150
 Frc consts  --      1.2238                 0.3642                 0.4272
 IR Inten    --      6.0011               136.9520                35.5904

                     16                     17                     18
                      A                      A                      A
 Frequencies --    769.2534               773.5603               784.9368
 Red. masses --      1.2859                 1.4037                 5.2590
 Frc consts  --      0.4483                 0.4949                 1.9091
 IR Inten    --     28.3974                28.6690                37.9987

                     19                     20                     21
                      A                      A                      A
 Frequencies --    895.4359               939.9109              1090.4772
 Red. masses --      3.1109                 2.8138                 3.6275
 Frc consts  --      1.4696                 1.4646                 2.5415
 IR Inten    --     16.4098                15.2952                80.8308

                     22                     23                     24
                      A                      A                      A
 Frequencies --   1128.5985              1165.9898              1277.7256
 Red. masses --      2.0838                 1.9207                 4.5779
 Frc consts  --      1.5638                 1.5385                 4.4034
 IR Inten    --     55.2552                86.7149               608.5492

                     25                     26                     27
                      A                      A                      A
 Frequencies --   1295.0184              1376.2239              1410.8527
 Red. masses --      1.3247                 1.2197                 1.2595
 Frc consts  --      1.3090                 1.3611                 1.4771
 IR Inten    --    299.7824                 1.2424                26.9411

                     28                     29                     30
                      A                      A                      A
 Frequencies --   1436.0027              1487.1283              1498.7488
 Red. masses --      1.1724                 1.0394                 1.0501
 Frc consts  --      1.4244                 1.3543                 1.3897
 IR Inten    --     81.0945                13.0460                 8.8998

                     31                     32                     33
                      A                      A                      A
 Frequencies --   1846.3372              2075.2227              2269.5959
 Red. masses --     12.4257                 1.1303                 5.7412
 Frc consts  --     24.9570                 2.8679                17.4242
 IR Inten    --    390.9209              1203.1919                76.5526

                     34                     35                     36
                      A                      A                      A
 Frequencies --   3071.2158              3130.7715              3151.0761
 Red. masses --      1.0346                 1.0861                 1.1027
 Frc consts  --      5.7499                 6.2725                 6.4510
 IR Inten    --      5.2465                 4.7429                 4.4577

                     37                     38                     39
                      A                      A                      A
 Frequencies --   3159.4270              3489.6917              3782.3605
 Red. masses --      1.1020                 1.1712                 1.0669
 Frc consts  --      6.4809                 8.4033                 8.9931
 IR Inten    --     10.4300                62.2959                36.5910

 - Thermochemistry -
 -------------------
 Temperature   298.150 Kelvin.  Pressure   1.00000 Atm.
 Atom     1 has atomic number  8 and mass  15.99491

 Molecular mass:   115.03952 amu.
 Principal axes and moments of inertia in atomic units:
                           1         2         3
     Eigenvalues --   600.504221599.248822007.90340
           X            0.99925  -0.03857   0.00281
           Y            0.03862   0.99903  -0.02109
           Z           -0.00200   0.02118   0.99977
 This molecule is an asymmetric top.
 Rotational symmetry number  1.
 Warning -- assumption of classical behavior for rotation
           may cause significant error
 Rotational temperatures (Kelvin)      0.14424     0.05416     0.04314
 Rotational constants (GHZ):           3.00538     1.12849     0.89882
    3 imaginary frequencies ignored.
 Zero-point vibrational energy     284894.1 (Joules/Mol)
                                   68.09133 (Kcal/Mol)
 Warning -- explicit consideration of  10 degrees of freedom as
           vibrations may cause significant error
 Vibrational temperatures:     92.22   131.14   218.17   303.96   321.31
          (Kelvin)            387.51   437.67   602.61   804.55   867.42
                              987.85  1068.32  1106.78  1112.98  1129.35
                             1288.33  1352.32  1568.95  1623.80  1677.60
                             1838.36  1863.24  1980.08  2029.90  2066.09
                             2139.65  2156.37  2656.47  2985.78  3265.44
                             4418.79  4504.48  4533.70  4545.71  5020.89
                             5441.97

 Zero-point correction=                           0.108510 (Hartree/Particle)
 Thermal correction to Energy=                    0.116816
 Thermal correction to Enthalpy=                  0.117760
 Thermal correction to Gibbs Free Energy=         0.074128
 Sum of electronic and zero-point Energies=           -420.091127
 Sum of electronic and thermal Energies=              -420.082822
 Sum of electronic and thermal Enthalpies=            -420.081877
 Sum of electronic and thermal Free Energies=         -420.125509

                     E (Thermal)             CV                S
                      KCal/Mol        Cal/Mol-Kelvin    Cal/Mol-Kelvin
 Total                   73.303             28.603             91.831
 Electronic               0.000              0.000              1.377
 Translational            0.889              2.981             40.136
 Rotational               0.889              2.981             29.046
 Vibrational             71.525             22.642             21.272
 Vibration     1          0.597              1.971              4.327
 Vibration     2          0.602              1.955              3.635
 Vibration     3          0.619              1.901              2.652
 Vibration     4          0.643              1.824              2.033
 Vibration     5          0.649              1.806              1.932
 Vibration     6          0.674              1.730              1.600
 Vibration     7          0.695              1.666              1.394
 Vibration     8          0.782              1.429              0.896
 Vibration     9          0.915              1.120              0.525
 Vibration    10          0.961              1.026              0.445

 1\1\GINC-AJ\Freq\UM062X\6-311++G(d,p)\C5H7O3(2)\AAYUSH\23-Jun-2025\0\\
 # freq 6-311++g(d,p) m062x\\Title Card Required\\0,2\O,2.651146,1.7749
 34,-0.246019\H,1.823337,2.23009,-0.014992\C,-3.191577,1.033124,0.40325
 6\H,-4.071742,1.579621,0.64991\C,-2.202528,0.416993,0.125664\C,-1.0330
 59,-0.372613,-0.227407\O,-1.079822,-1.474838,-0.693628\O,0.096051,0.29
 9208,0.036549\C,1.316493,-0.379296,-0.286532\C,1.769597,-1.298332,0.81
 7226\H,2.069849,0.447658,-0.409412\H,1.221027,-0.866731,-1.257172\H,2.
 752686,-1.703253,0.572335\H,1.842692,-0.752627,1.758914\H,1.069601,-2.

 Normal termination of Gaussian 16 at Mon Jun 23 01:07:06 2025.
