 Gaussian 16, Revision A.03,
 Gaussian 16:  ES64L-G16RevA.03 25-Dec-2016

 --------------------------
 # freq 6-311++g(d,p) m062x
 --------------------------

 -------------------
 Title Card Required
 -------------------
 Symbolic Z-matrix:
 Charge =  0 Multiplicity = 2

                         Standard orientation:
 ---------------------------------------------------------------------
 Center     Atomic      Atomic             Coordinates (Angstroms)
 Number     Number       Type             X           Y           Z
 ---------------------------------------------------------------------
      1          8           0        2.637761    1.747665   -0.248159
      2          1           0        1.832142    2.232849   -0.016904
      3          6           0       -3.192775    1.029138    0.403399
      4          1           0       -4.073132    1.575474    0.650390
      5          6           0       -2.203338    0.413810    0.125454
      6          6           0       -1.035760   -0.375526   -0.228990
      7          8           0       -1.079312   -1.477324   -0.694523
      8          8           0        0.097579    0.296047    0.037053
      9          6           0        1.312969   -0.372421   -0.280527
     10          6           0        1.773584   -1.293040    0.814185
     11          1           0        2.141078    0.640152   -0.360446
     12          1           0        1.264536   -0.811258   -1.277120
     13          1           0        2.754252   -1.702261    0.569979
     14          1           0        1.839804   -0.756568    1.761378
     15          1           0        1.065004   -2.121256    0.916634
 ---------------------------------------------------------------------

 SCF Done:  E(UM062X) =  -420.202171425     A.U. after   18 cycles

 The electronic state is 2-A.
 Alpha  occ. eigenvalues --  -19.70596 -19.65016 -19.63837 -10.72489 -10.64100
 Alpha  occ. eigenvalues --  -10.58302 -10.57831 -10.55660  -1.27832  -1.18539
 Alpha  occ. eigenvalues --   -1.11643  -0.92136  -0.88482  -0.80006  -0.71970
 Alpha  occ. eigenvalues --   -0.66887  -0.62484  -0.60878  -0.58790  -0.58003
 Alpha  occ. eigenvalues --   -0.52758  -0.51451  -0.49715  -0.48346  -0.46232
 Alpha  occ. eigenvalues --   -0.41393  -0.41119  -0.39906  -0.38449  -0.37625
 Alpha  occ. eigenvalues --   -0.33240
 Alpha virt. eigenvalues --   -0.03023  -0.00522   0.00469   0.01502   0.01791
 Alpha virt. eigenvalues --    0.03032   0.03200   0.04580   0.05867   0.05949
 Alpha virt. eigenvalues --    0.06510   0.07312   0.07831   0.09270   0.10117

  Beta  occ. eigenvalues --  -19.70573 -19.65010 -19.62889 -10.72459 -10.63497
  Beta  occ. eigenvalues --  -10.58302 -10.57831 -10.55668  -1.27658  -1.18388
  Beta  occ. eigenvalues --   -1.08101  -0.91450  -0.87868  -0.79640  -0.70848
  Beta  occ. eigenvalues --   -0.66173  -0.62193  -0.60070  -0.58133  -0.55386
  Beta  occ. eigenvalues --   -0.51553  -0.50725  -0.48292  -0.46968  -0.43600
  Beta  occ. eigenvalues --   -0.41043  -0.40511  -0.38435  -0.37916  -0.37568
  Beta virt. eigenvalues --   -0.10516  -0.02944  -0.00437   0.00530   0.01673
  Beta virt. eigenvalues --    0.01965   0.03104   0.03255   0.04798   0.05931
  Beta virt. eigenvalues --    0.06016   0.06678   0.07422   0.07880   0.09409

 Mulliken charges and spin densities:
               1          2
     1  O   -0.422429   0.469939
     2  H    0.255539  -0.006921
     3  C   -0.555946   0.001013
     4  H    0.189784   0.000031
     5  C    1.116332   0.002950
     6  C   -0.723737   0.009256
     7  O   -0.198828   0.001418
     8  O    0.011321  -0.019581
     9  C   -0.478897   0.577198
    10  C   -0.335843  -0.020503
    11  H    0.332154  -0.047399
    12  H    0.236387  -0.009095
    13  H    0.185886   0.001450
    14  H    0.192546   0.006236
    15  H    0.195729   0.034009
 Sum of Mulliken charges =  -0.00000   1.00000

 Dipole moment (field-independent basis, Debye):
    X=             -1.9542    Y=              0.1641    Z=              1.2940  Tot=              2.3495
 Quadrupole moment (field-independent basis, Debye-Ang):
   XX=            -47.2507   YY=            -49.0875   ZZ=            -47.9803
   XY=            -13.9734   XZ=             -1.6521   YZ=             -0.2639

  Exact polarizability:  94.493  -1.640  82.697  -4.445   3.378  51.554
 Approx polarizability:  97.087  -5.917  96.924  -6.954   9.743  61.003

 ******    1 imaginary frequencies (negative Signs) ******

                      1                      2                      3
                      A                      A                      A
 Frequencies --  -1742.3001                60.5946                83.2483
 Red. masses --      1.0737                 6.6242                 4.4355
 Frc consts  --      1.9204                 0.0143                 0.0181
 IR Inten    --    771.8877                 4.4229                 0.9340

                      4                      5                      6
                      A                      A                      A
 Frequencies --    115.6496               160.2225               187.6735
 Red. masses --      4.8764                 3.4678                 1.7440
 Frc consts  --      0.0384                 0.0525                 0.0362
 IR Inten    --      1.5623                 4.6604                 4.5347

                      7                      8                      9
                      A                      A                      A
 Frequencies --    209.5777               217.1783               272.2340
 Red. masses --      1.3294                 1.3390                 4.7930
 Frc consts  --      0.0344                 0.0372                 0.2093
 IR Inten    --     30.6573                70.1272                 2.4412

                     10                     11                     12
                      A                      A                      A
 Frequencies --    286.2461               426.4576               532.4828
 Red. masses --      5.0258                 3.5972                 5.2250
 Frc consts  --      0.2426                 0.3854                 0.8729
 IR Inten    --      7.8364                 5.8245                 4.8352

                     13                     14                     15
                      A                      A                      A
 Frequencies --    591.4366               627.5502               745.0963
 Red. masses --      3.9724                 4.4985                 1.3140
 Frc consts  --      0.8187                 1.0438                 0.4298
 IR Inten    --     16.8147                 0.6869                39.2193

                     16                     17                     18
                      A                      A                      A
 Frequencies --    773.4498               780.2232               805.4547
 Red. masses --      2.7468                 1.8928                 1.2768
 Frc consts  --      0.9682                 0.6789                 0.4880
 IR Inten    --      1.2158                63.7486               104.5201

                     19                     20                     21
                      A                      A                      A
 Frequencies --    837.0820               898.9074               956.2504
 Red. masses --      1.1324                 2.6366                 3.9091
 Frc consts  --      0.4675                 1.2552                 2.1060
 IR Inten    --     43.9796                19.4472                 2.7581

                     22                     23                     24
                      A                      A                      A
 Frequencies --   1088.6268              1116.4015              1137.5496
 Red. masses --      2.0173                 2.1681                 1.8879
 Frc consts  --      1.4086                 1.5921                 1.4394
 IR Inten    --     43.2267               134.3102                 3.4585

                     25                     26                     27
                      A                      A                      A
 Frequencies --   1209.9202              1268.2868              1368.2031
 Red. masses --      1.3298                 8.0527                 1.2343
 Frc consts  --      1.1470                 7.6318                 1.3614
 IR Inten    --     92.2702               741.4533                 5.3463

                     28                     29                     30
                      A                      A                      A
 Frequencies --   1409.4777              1480.8664              1482.1584
 Red. masses --      1.3279                 1.0448                 1.0449
 Frc consts  --      1.5543                 1.3499                 1.3525
 IR Inten    --     17.6751                 8.9961                 3.3806

                     31                     32                     33
                      A                      A                      A
 Frequencies --   1567.8085              1846.6418              2269.6066
 Red. masses --      1.0474                12.7407                 5.7426
 Frc consts  --      1.5169                25.5982                17.4285
 IR Inten    --     34.4092               339.1625                84.5383

                     34                     35                     36
                      A                      A                      A
 Frequencies --   3057.4379              3134.9022              3141.3350
 Red. masses --      1.0387                 1.0927                 1.0907
 Frc consts  --      5.7208                 6.3268                 6.3414
 IR Inten    --      0.8569                 4.1429                 5.9035

                     37                     38                     39
                      A                      A                      A
 Frequencies --   3166.4533              3488.5591              3830.8226
 Red. masses --      1.1023                 1.1714                 1.0664
 Frc consts  --      6.5116                 8.3997                 9.2207
 IR Inten    --      6.4254                63.1843                50.6574

 - Thermochemistry -
 -------------------
 Temperature   298.150 Kelvin.  Pressure   1.00000 Atm.
 Atom     1 has atomic number  8 and mass  15.99491

 Molecular mass:   115.03952 amu.
 Principal axes and moments of inertia in atomic units:
                           1         2         3
     Eigenvalues --   594.405441597.236002000.26317
           X            0.99933  -0.03650   0.00272
           Y            0.03655   0.99909  -0.02189
           Z           -0.00192   0.02198   0.99976
 This molecule is an asymmetric top.
 Rotational symmetry number  1.
 Warning -- assumption of classical behavior for rotation
           may cause significant error
 Rotational temperatures (Kelvin)      0.14572     0.05423     0.04330
 Rotational constants (GHZ):           3.03621     1.12992     0.90225
    1 imaginary frequencies ignored.
 Zero-point vibrational energy     278921.7 (Joules/Mol)
                                   66.66390 (Kcal/Mol)
 Warning -- explicit consideration of  12 degrees of freedom as
           vibrations may cause significant error
 Vibrational temperatures:     87.18   119.78   166.39   230.52   270.02
          (Kelvin)            301.54   312.47   391.68   411.84   613.58
                              766.12   850.95   902.90  1072.03  1112.82
                             1122.57  1158.87  1204.37  1293.33  1375.83
                             1566.29  1606.25  1636.68  1740.81  1824.78
                             1968.54  2027.92  2130.64  2132.50  2255.73
                             2656.91  3265.46  4398.97  4510.43  4519.68
                             4555.82  5019.26  5511.70

 Zero-point correction=                           0.106236 (Hartree/Particle)
 Thermal correction to Energy=                    0.115970
 Thermal correction to Enthalpy=                  0.116914
 Thermal correction to Gibbs Free Energy=         0.070417
 Sum of electronic and zero-point Energies=           -420.095936
 Sum of electronic and thermal Energies=              -420.086202
 Sum of electronic and thermal Enthalpies=            -420.085258
 Sum of electronic and thermal Free Energies=         -420.131755

                     E (Thermal)             CV                S
                      KCal/Mol        Cal/Mol-Kelvin    Cal/Mol-Kelvin
 Total                   72.772             33.180             97.861
 Electronic               0.000              0.000              1.377
 Translational            0.889              2.981             40.136
 Rotational               0.889              2.981             29.031
 Vibrational             70.995             27.218             27.317
 Vibration     1          0.597              1.973              4.438
 Vibration     2          0.600              1.961              3.813
 Vibration     3          0.608              1.936              3.172
 Vibration     4          0.622              1.891              2.547
 Vibration     5          0.632              1.857              2.251
 Vibration     6          0.642              1.826              2.047
 Vibration     7          0.646              1.815              1.982
 Vibration     8          0.675              1.724              1.582
 Vibration     9          0.684              1.699              1.496
 Vibration    10          0.788              1.413              0.870
 Vibration    11          0.887              1.178              0.582
 Vibration    12          0.949              1.050              0.465

 1\1\GINC-AJ\Freq\UM062X\6-311++G(d,p)\C5H7O3(2)\AAYUSH\16-Aug-2025\0\\
 # freq 6-311++g(d,p) m062x\\Title Card Required\\0,2\O,2.695981,1.7405
 55,-0.229639\H,1.890175,2.225508,0.001451\C,-3.134243,1.019945,0.42241
 8\H,-4.01481,1.566026,0.669223\C,-2.144568,0.404904,0.144683\C,-0.9766
 86,-0.384104,-0.209488\O,-1.019812,-1.486106,-0.674579\O,0.156393,0.28
 8031,0.056245\C,1.37204,-0.380076,-0.261112\C,1.833064,-1.300072,0.833
 951\H,2.199739,0.632798,-0.341466\H,1.323747,-0.81933,-1.257528\H,2.81
 3888,-1.708996,0.589873\H,1.899103,-0.763195,1.780927\H,1.124821,-2.12

 Normal termination of Gaussian 16 at Sat Aug 16 14:52:45 2025.
