 Gaussian 16, Revision A.03,
 Gaussian 16:  ES64L-G16RevA.03 25-Dec-2016

 --------------------------
 # freq 6-311++g(d,p) m062x
 --------------------------

 -------------------
 Title Card Required
 -------------------
 Symbolic Z-matrix:
 Charge =  0 Multiplicity = 2

                         Standard orientation:
 ---------------------------------------------------------------------
 Center     Atomic      Atomic             Coordinates (Angstroms)
 Number     Number       Type             X           Y           Z
 ---------------------------------------------------------------------
      1          8           0        2.642657    1.760767   -0.247830
      2          1           0        1.825601    2.232326   -0.016733
      3          6           0       -3.192667    1.029321    0.403153
      4          1           0       -4.073240    1.575232    0.649911
      5          6           0       -2.203043    0.414183    0.125456
      6          6           0       -1.033921   -0.374690   -0.228189
      7          8           0       -1.078374   -1.476831   -0.693885
      8          8           0        0.096246    0.297826    0.036892
      9          6           0        1.317454   -0.370530   -0.282857
     10          6           0        1.772892   -1.293589    0.815459
     11          1           0        2.085695    0.519179   -0.378881
     12          1           0        1.247531   -0.833070   -1.267799
     13          1           0        2.755127   -1.699934    0.571026
     14          1           0        1.841766   -0.753202    1.760344
     15          1           0        1.068997   -2.122792    0.922583
 ---------------------------------------------------------------------

 SCF Done:  E(UM062X) =  -420.199073980     A.U. after   20 cycles

 The electronic state is 2-A.
 Alpha  occ. eigenvalues --  -19.69941 -19.66320 -19.64524 -10.71971 -10.62838
 Alpha  occ. eigenvalues --  -10.57983 -10.57535 -10.54931  -1.27216  -1.17964
 Alpha  occ. eigenvalues --   -1.13088  -0.91722  -0.88111  -0.79413  -0.71887
 Alpha  occ. eigenvalues --   -0.66200  -0.62287  -0.60537  -0.58399  -0.57510
 Alpha  occ. eigenvalues --   -0.53850  -0.50779  -0.50039  -0.47741  -0.45743
 Alpha  occ. eigenvalues --   -0.41892  -0.40970  -0.40588  -0.38141  -0.37284
 Alpha  occ. eigenvalues --   -0.36030
 Alpha virt. eigenvalues --   -0.02624  -0.00525   0.00583   0.01426   0.01859
 Alpha virt. eigenvalues --    0.03219   0.03383   0.04642   0.05996   0.06012
 Alpha virt. eigenvalues --    0.06565   0.07378   0.08019   0.09422   0.10219

  Beta  occ. eigenvalues --  -19.69936 -19.65007 -19.64520 -10.71957 -10.62456
  Beta  occ. eigenvalues --  -10.57982 -10.57535 -10.54935  -1.27124  -1.17866
  Beta  occ. eigenvalues --   -1.07875  -0.91229  -0.87676  -0.79189  -0.70940
  Beta  occ. eigenvalues --   -0.65811  -0.61958  -0.59699  -0.57711  -0.55257
  Beta  occ. eigenvalues --   -0.51695  -0.50458  -0.47915  -0.46489  -0.42978
  Beta  occ. eigenvalues --   -0.40586  -0.39908  -0.38823  -0.38130  -0.37245
  Beta virt. eigenvalues --   -0.11228  -0.02584  -0.00402   0.00636   0.01664
  Beta virt. eigenvalues --    0.01969   0.03263   0.03420   0.04831   0.06053
  Beta virt. eigenvalues --    0.06095   0.06682   0.07498   0.08066   0.09586

 Mulliken charges and spin densities:
               1          2
     1  O   -0.337055   0.708276
     2  H    0.256827  -0.015124
     3  C   -0.562095   0.000347
     4  H    0.188050  -0.000016
     5  C    1.111785   0.003866
     6  C   -0.720136   0.005371
     7  O   -0.201133   0.001065
     8  O    0.000139  -0.008774
     9  C   -0.479945   0.328977
    10  C   -0.341503  -0.006028
    11  H    0.300768  -0.037624
    12  H    0.227777  -0.002452
    13  H    0.181130   0.000220
    14  H    0.183694   0.003135
    15  H    0.191698   0.018760
 Sum of Mulliken charges =  -0.00000   1.00000

 Dipole moment (field-independent basis, Debye):
    X=             -1.4350    Y=              0.8458    Z=              1.2303  Tot=              2.0708
 Quadrupole moment (field-independent basis, Debye-Ang):
   XX=            -46.0050   YY=            -48.1071   ZZ=            -48.1751
   XY=            -12.0162   XZ=             -1.8245   YZ=             -0.3215

  Exact polarizability:  95.158   0.129  84.770  -4.594   3.356  51.395
 Approx polarizability:  96.358  -6.250  95.470  -6.854  10.008  60.708

 ******    1 imaginary frequencies (negative Signs) ******

                      1                      2                      3
                      A                      A                      A
 Frequencies --   -998.4770                56.1717                64.7386
 Red. masses --      1.3093                 7.6865                 5.4412
 Frc consts  --      0.7691                 0.0143                 0.0134
 IR Inten    --   1604.4254                 4.2156                 2.4966

                      4                      5                      6
                      A                      A                      A
 Frequencies --     92.9763               111.9061               163.1964
 Red. masses --      4.3734                 2.6816                 2.8593
 Frc consts  --      0.0223                 0.0198                 0.0449
 IR Inten    --      1.3401                 3.8465                10.0064

                      7                      8                      9
                      A                      A                      A
 Frequencies --    203.9392               219.5225               270.0778
 Red. masses --      1.1157                 1.2747                 4.2937
 Frc consts  --      0.0273                 0.0362                 0.1845
 IR Inten    --    101.2470                 2.1552                 3.7822

                     10                     11                     12
                      A                      A                      A
 Frequencies --    295.2275               420.0555               555.7479
 Red. masses --      4.0096                 3.6301                 4.4972
 Frc consts  --      0.2059                 0.3774                 0.8184
 IR Inten    --      8.8016                 4.1816                 3.3997

                     13                     14                     15
                      A                      A                      A
 Frequencies --    603.2565               712.6809               743.5679
 Red. masses --      6.3855                 1.7628                 1.3192
 Frc consts  --      1.3691                 0.5275                 0.4297
 IR Inten    --     13.0029                11.6664                36.1240

                     16                     17                     18
                      A                      A                      A
 Frequencies --    773.8438               782.3779               807.5359
 Red. masses --      1.6539                 3.7126                 1.1390
 Frc consts  --      0.5835                 1.3389                 0.4376
 IR Inten    --     11.1420                52.2499                67.4008

                     19                     20                     21
                      A                      A                      A
 Frequencies --    897.7700               941.8177               999.9409
 Red. masses --      2.7561                 2.3485                 2.6099
 Frc consts  --      1.3088                 1.2274                 1.5375
 IR Inten    --     36.2790               189.8981               818.5434

                     22                     23                     24
                      A                      A                      A
 Frequencies --   1108.5202              1129.8089              1185.2835
 Red. masses --      3.1159                 2.1327                 1.5244
 Frc consts  --      2.2559                 1.6039                 1.2618
 IR Inten    --    106.7595                26.7301                28.0266

                     25                     26                     27
                      A                      A                      A
 Frequencies --   1279.9512              1313.8380              1370.3377
 Red. masses --      5.8474                 1.1297                 1.2149
 Frc consts  --      5.6442                 1.1489                 1.3441
 IR Inten    --    617.5002                38.4156                 0.5882

                     28                     29                     30
                      A                      A                      A
 Frequencies --   1413.9447              1483.9708              1490.4034
 Red. masses --      1.3378                 1.0440                 1.0412
 Frc consts  --      1.5758                 1.3546                 1.3627
 IR Inten    --     25.4469                 9.1934                 4.3575

                     31                     32                     33
                      A                      A                      A
 Frequencies --   1557.5177              1847.5962              2269.6902
 Red. masses --      1.1256                12.3850                 5.7446
 Frc consts  --      1.6087                24.9093                17.4358
 IR Inten    --    101.4902               324.5215                79.5965

                     34                     35                     36
                      A                      A                      A
 Frequencies --   3067.8466              3132.3039              3146.4394
 Red. masses --      1.0354                 1.0867                 1.1007
 Frc consts  --      5.7417                 6.2818                 6.4206
 IR Inten    --      3.0975                 5.3929                 2.7962

                     37                     38                     39
                      A                      A                      A
 Frequencies --   3162.7107              3489.2546              3798.1428
 Red. masses --      1.1022                 1.1713                 1.0669
 Frc consts  --      6.4958                 8.4020                 9.0677
 IR Inten    --      8.6756                62.6104                42.8228

 - Thermochemistry -
 -------------------
 Temperature   298.150 Kelvin.  Pressure   1.00000 Atm.
 Atom     1 has atomic number  8 and mass  15.99491

 Molecular mass:   115.03952 amu.
 Principal axes and moments of inertia in atomic units:
                           1         2         3
     Eigenvalues --   596.557671597.906742002.96646
           X            0.99929  -0.03770   0.00280
           Y            0.03775   0.99906  -0.02142
           Z           -0.00199   0.02151   0.99977
 This molecule is an asymmetric top.
 Rotational symmetry number  1.
 Warning -- assumption of classical behavior for rotation
           may cause significant error
 Rotational temperatures (Kelvin)      0.14519     0.05420     0.04324
 Rotational constants (GHZ):           3.02526     1.12944     0.90103
    1 imaginary frequencies ignored.
 Zero-point vibrational energy     280906.6 (Joules/Mol)
                                   67.13828 (Kcal/Mol)
 Warning -- explicit consideration of  12 degrees of freedom as
           vibrations may cause significant error
 Vibrational temperatures:     80.82    93.14   133.77   161.01   234.80
          (Kelvin)            293.42   315.84   388.58   424.77   604.37
                              799.60   867.95  1025.39  1069.83  1113.39
                             1125.67  1161.86  1291.69  1355.07  1438.69
                             1594.91  1625.54  1705.36  1841.56  1890.32
                             1971.61  2034.35  2135.10  2144.36  2240.92
                             2658.28  3265.58  4413.95  4506.69  4527.02
                             4550.44  5020.26  5464.68

 Zero-point correction=                           0.106992 (Hartree/Particle)
 Thermal correction to Energy=                    0.116842
 Thermal correction to Enthalpy=                  0.117786
 Thermal correction to Gibbs Free Energy=         0.070462
 Sum of electronic and zero-point Energies=           -420.092082
 Sum of electronic and thermal Energies=              -420.082232
 Sum of electronic and thermal Enthalpies=            -420.081288
 Sum of electronic and thermal Free Energies=         -420.128612

                     E (Thermal)             CV                S
                      KCal/Mol        Cal/Mol-Kelvin    Cal/Mol-Kelvin
 Total                   73.319             32.721             99.601
 Electronic               0.000              0.000              1.377
 Translational            0.889              2.981             40.136
 Rotational               0.889              2.981             29.036
 Vibrational             71.542             26.760             29.052
 Vibration     1          0.596              1.975              4.587
 Vibration     2          0.597              1.971              4.307
 Vibration     3          0.602              1.954              3.596
 Vibration     4          0.607              1.940              3.236
 Vibration     5          0.623              1.888              2.512
 Vibration     6          0.640              1.834              2.097
 Vibration     7          0.647              1.811              1.963
 Vibration     8          0.674              1.728              1.596
 Vibration     9          0.689              1.683              1.444
 Vibration    10          0.783              1.427              0.892
 Vibration    11          0.911              1.127              0.532
 Vibration    12          0.962              1.025              0.444

 Optimization completed.
    -- Stationary point found.

 1\1\GINC-AJ\Freq\UM062X\6-311++G(d,p)\C5H7O3(2)\AAYUSH\16-Aug-2025\0\\
 # freq 6-311++g(d,p) m062x\\Title Card Required\\0,2\O,2.70095951,1.75
 145851,-0.22854689\H,1.88390351,2.22301751,0.00255011\C,-3.13436449,1.
 02001251,0.42243611\H,-4.01493749,1.56592351,0.66919411\C,-2.14474049,
 0.40487451,0.14473911\C,-0.97561849,-0.38399849,-0.20890589\O,-1.02007
 149,-1.48613949,-0.67460189\O,0.15454851,0.28851751,0.05617511\C,1.375
 75651,-0.37983849,-0.26357389\C,1.83119451,-1.30289749,0.83474211\H,2.
 14399751,0.50987051,-0.35959789\H,1.30583351,-0.84237849,-1.24851589\H

 Normal termination of Gaussian 16 at Sat Aug 16 15:03:54 2025.
