 Gaussian 16, Revision A.03,
 Gaussian 16:  ES64L-G16RevA.03 25-Dec-2016

 --------------------------
 # ccsd(t)/6-311++g(d,p) sp
 --------------------------

 -------------------
 Title Card Required
 -------------------
 Symbolic Z-matrix:
 Charge =  0 Multiplicity = 2

                         Standard orientation:
 ---------------------------------------------------------------------
 Center     Atomic      Atomic             Coordinates (Angstroms)
 Number     Number       Type             X           Y           Z
 ---------------------------------------------------------------------
      1          8           0        2.644266    1.763970   -0.247487
      2          1           0        1.824669    2.232085   -0.016410
      3          6           0       -3.192521    1.029816    0.403171
      4          1           0       -4.073063    1.575745    0.649913
      5          6           0       -2.202955    0.414577    0.125487
      6          6           0       -1.033586   -0.374332   -0.228017
      7          8           0       -1.078457   -1.476501   -0.693863
      8          8           0        0.095993    0.298216    0.036863
      9          6           0        1.317861   -0.371382   -0.283561
     10          6           0        1.772369   -1.294297    0.815742
     11          1           0        2.078087    0.496799   -0.384657
     12          1           0        1.242290   -0.839676   -1.265412
     13          1           0        2.754931   -1.700056    0.571213
     14          1           0        1.842090   -0.752890    1.760035
     15          1           0        1.069576   -2.123781    0.924309
 ---------------------------------------------------------------------

 SCF Done:  E(UHF) =  -417.972179654     A.U. after   33 cycles
 E2 =    -0.1274828959D+01 EUMP2 =    -0.41924700861322D+03
 CCSD(T)= -0.41934935114D+03

 The electronic state is 2-A.
 Alpha  occ. eigenvalues --  -20.63811 -20.62306 -20.57021 -11.42443 -11.30264
 Alpha  occ. eigenvalues --  -11.27358 -11.26607 -11.22684  -1.49189  -1.40398
 Alpha  occ. eigenvalues --   -1.38993  -1.08634  -1.04687  -0.93231  -0.84958
 Alpha  occ. eigenvalues --   -0.77435  -0.74289  -0.72595  -0.69828  -0.68202
 Alpha  occ. eigenvalues --   -0.67095  -0.60827  -0.58994  -0.56547  -0.55571
 Alpha  occ. eigenvalues --   -0.53924  -0.49666  -0.48481  -0.45254  -0.43301
 Alpha  occ. eigenvalues --   -0.43226
 Alpha virt. eigenvalues --    0.03474   0.04816   0.05885   0.06316   0.07856
 Alpha virt. eigenvalues --    0.08128   0.08873   0.10047   0.11025   0.11819
 Alpha virt. eigenvalues --    0.12153   0.13823   0.14646   0.15602   0.16489

  Beta  occ. eigenvalues --  -20.62351 -20.59936 -20.57019 -11.42420 -11.29381
  Beta  occ. eigenvalues --  -11.27356 -11.26610 -11.22732  -1.49129  -1.39107
  Beta  occ. eigenvalues --   -1.26101  -1.08307  -1.03759  -0.93050  -0.83361
  Beta  occ. eigenvalues --   -0.77117  -0.73494  -0.70353  -0.67232  -0.66080
  Beta  occ. eigenvalues --   -0.61802  -0.58830  -0.55557  -0.54339  -0.51868
  Beta  occ. eigenvalues --   -0.50271  -0.48811  -0.46933  -0.43296  -0.43231
  Beta virt. eigenvalues --    0.03443   0.04515   0.05329   0.06299   0.07316
  Beta virt. eigenvalues --    0.07901   0.08173   0.09186   0.10195   0.11269
  Beta virt. eigenvalues --    0.12107   0.12196   0.13900   0.14664   0.15704

 Mulliken charges and spin densities:
               1          2
     1  O   -0.257199   0.886311
     2  H    0.268283  -0.031592
     3  C   -0.620740   0.001200
     4  H    0.211668  -0.000094
     5  C    1.276748  -0.000543
     6  C   -0.743571   0.002389
     7  O   -0.279485   0.000497
     8  O   -0.072689  -0.017346
     9  C   -0.392750   0.287752
    10  C   -0.306819  -0.022759
    11  H    0.248612  -0.110473
    12  H    0.196167  -0.011829
    13  H    0.146352   0.000820
    14  H    0.152173   0.003843
    15  H    0.173249   0.011824
 Sum of Mulliken charges =  -0.00000   1.00000

 Dipole moment (field-independent basis, Debye):
    X=             -0.9168    Y=              2.1157    Z=              1.2219  Tot=              2.6096
 Quadrupole moment (field-independent basis, Debye-Ang):
   XX=            -44.1841   YY=            -47.1865   ZZ=            -48.5628
   XY=             -9.8405   XZ=             -2.3477   YZ=             -0.4947

 3-0=-419.2734162\MP4SDQ=-419.2962193\CCSD=-419.2956234\CCSD(T)=-419.34
 Normal termination of Gaussian 16 at Sat Jul  5 14:34:11 2025.
