 Gaussian 16, Revision A.03,
 Gaussian 16:  ES64L-G16RevA.03 25-Dec-2016

 -------------------
 # freq 6-31+g m062x
 -------------------

 -------------------
 Title Card Required
 -------------------
 Symbolic Z-matrix:
 Charge =  0 Multiplicity = 2

                         Standard orientation:
 ---------------------------------------------------------------------
 Center     Atomic      Atomic             Coordinates (Angstroms)
 Number     Number       Type             X           Y           Z
 ---------------------------------------------------------------------
      1          8           0        2.635860    1.737400   -0.247790
      2          1           0        1.841429    2.234649   -0.016403
      3          6           0       -3.192285    1.031336    0.403686
      4          1           0       -4.072032    1.578641    0.650914
      5          6           0       -2.203507    0.415066    0.125481
      6          6           0       -1.037712   -0.375447   -0.229613
      7          8           0       -1.081550   -1.476898   -0.695200
      8          8           0        0.098900    0.294432    0.037144
      9          6           0        1.305888   -0.380319   -0.279040
     10          6           0        1.772513   -1.294799    0.813255
     11          1           0        2.211512    0.761186   -0.351657
     12          1           0        1.274124   -0.798576   -1.284086
     13          1           0        2.751792   -1.706926    0.569203
     14          1           0        1.837582   -0.761067    1.762268
     15          1           0        1.060526   -2.122400    0.913915
 ---------------------------------------------------------------------

 SCF Done:  E(UM062X) =  -419.956336878     A.U. after   18 cycles

 The electronic state is 2-A.
 Alpha  occ. eigenvalues --  -19.73504 -19.68616 -19.64505 -10.75251 -10.65531
 Alpha  occ. eigenvalues --  -10.60130 -10.59771 -10.56832  -1.30663  -1.21381
 Alpha  occ. eigenvalues --   -1.13516  -0.93115  -0.89457  -0.80978  -0.72624
 Alpha  occ. eigenvalues --   -0.67674  -0.62965  -0.61495  -0.60087  -0.58729
 Alpha  occ. eigenvalues --   -0.53011  -0.52288  -0.49422  -0.48180  -0.46210
 Alpha  occ. eigenvalues --   -0.41725  -0.41448  -0.38976  -0.38873  -0.38274
 Alpha  occ. eigenvalues --   -0.31831
 Alpha virt. eigenvalues --   -0.03532   0.01563   0.02076   0.02980   0.03098
 Alpha virt. eigenvalues --    0.04034   0.04747   0.05971   0.07434   0.07754
 Alpha virt. eigenvalues --    0.07998   0.08495   0.09753   0.10614   0.12051

  Beta  occ. eigenvalues --  -19.73468 -19.68608 -19.63890 -10.75203 -10.64733
  Beta  occ. eigenvalues --  -10.60129 -10.59771 -10.56853  -1.30450  -1.21146
  Beta  occ. eigenvalues --   -1.11425  -0.92315  -0.88617  -0.80509  -0.71424
  Beta  occ. eigenvalues --   -0.66599  -0.62711  -0.60461  -0.58905  -0.57476
  Beta  occ. eigenvalues --   -0.51890  -0.51321  -0.48653  -0.47193  -0.43904
  Beta  occ. eigenvalues --   -0.41373  -0.40963  -0.38951  -0.38256  -0.37743
  Beta virt. eigenvalues --   -0.09383  -0.03401   0.01568   0.02092   0.03061
  Beta virt. eigenvalues --    0.03196   0.04038   0.04785   0.05981   0.07444
  Beta virt. eigenvalues --    0.07752   0.08036   0.08523   0.09903   0.10642

 Mulliken charges and spin densities:
               1          2
     1  O   -0.667694   0.268800
     2  H    0.416005  -0.005546
     3  C    0.232141   0.010382
     4  H    0.352323  -0.000027
     5  C    0.142129   0.005120
     6  C   -0.468006   0.001011
     7  O   -0.322867   0.005270
     8  O   -0.270458  -0.032090
     9  C   -0.234945   0.814093
    10  C   -0.518507  -0.054637
    11  H    0.370909  -0.048494
    12  H    0.248471  -0.024372
    13  H    0.233110   0.002270
    14  H    0.241731   0.010599
    15  H    0.245657   0.047622
 Sum of Mulliken charges =  -0.00000   1.00000

 Dipole moment (field-independent basis, Debye):
    X=             -2.6276    Y=             -0.2412    Z=              1.3367  Tot=              2.9579
 Quadrupole moment (field-independent basis, Debye-Ang):
   XX=            -49.7170   YY=            -50.4905   ZZ=            -48.2816
   XY=            -15.8925   XZ=             -1.4559   YZ=             -0.4363

  Exact polarizability:  88.144  -4.909  74.296  -4.295   4.712  47.613
 Approx polarizability:  88.972  -9.316  86.250  -7.105  11.765  51.900

 ******    4 imaginary frequencies (negative Signs) ******

                      1                      2                      3
                      A                      A                      A
 Frequencies --   -472.4940              -261.9437              -121.7677
 Red. masses --      1.0414                 3.0404                 8.1098
 Frc consts  --      0.1370                 0.1229                 0.0708
 IR Inten    --    100.9558                84.1676                 3.3079

                      4                      5                      6
                      A                      A                      A
 Frequencies --    -57.8544                40.0641                97.8161
 Red. masses --      4.3418                 3.7921                 3.1627
 Frc consts  --      0.0086                 0.0036                 0.0178
 IR Inten    --      8.3198                 6.9227                13.8757

                      7                      8                      9
                      A                      A                      A
 Frequencies --    122.9339               158.8673               255.9862
 Red. masses --      1.6912                 1.7578                 4.4361
 Frc consts  --      0.0151                 0.0261                 0.1713
 IR Inten    --      5.4555                 3.4282                 1.1096

                     10                     11                     12
                      A                      A                      A
 Frequencies --    302.3335               426.3402               525.2614
 Red. masses --      4.2498                 3.5290                 1.3647
 Frc consts  --      0.2289                 0.3779                 0.2218
 IR Inten    --     41.3382                 9.5822                66.2472

                     13                     14                     15
                      A                      A                      A
 Frequencies --    570.3490               637.0170               730.2494
 Red. masses --      3.5187                 4.3520                 1.1723
 Frc consts  --      0.6744                 1.0405                 0.3683
 IR Inten    --     30.8286                31.8417                47.5328

                     16                     17                     18
                      A                      A                      A
 Frequencies --    777.5106               818.9334               876.4014
 Red. masses --      3.1805                 1.4352                 1.7625
 Frc consts  --      1.1328                 0.5671                 0.7976
 IR Inten    --     46.5259                50.2577                50.3077

                     19                     20                     21
                      A                      A                      A
 Frequencies --    878.8719               902.2317               949.0490
 Red. masses --      1.7771                 1.7519                 3.7406
 Frc consts  --      0.8088                 0.8402                 1.9850
 IR Inten    --     40.5290                48.7897                16.9350

                     22                     23                     24
                      A                      A                      A
 Frequencies --   1042.6095              1143.2797              1163.2031
 Red. masses --      1.4080                 3.6492                 1.8979
 Frc consts  --      0.9018                 2.8103                 1.5130
 IR Inten    --     71.2585                22.3761                28.2329

                     25                     26                     27
                      A                      A                      A
 Frequencies --   1303.3827              1361.3680              1395.9454
 Red. masses --      9.2672                 1.3945                 1.2906
 Frc consts  --      9.2756                 1.5228                 1.4818
 IR Inten    --    750.0347                73.6351                11.8602

                     28                     29                     30
                      A                      A                      A
 Frequencies --   1445.3218              1509.0839              1513.6901
 Red. masses --      1.2383                 1.0414                 1.0538
 Frc consts  --      1.5241                 1.3974                 1.4226
 IR Inten    --     24.0115                13.5511                 8.4078

                     31                     32                     33
                      A                      A                      A
 Frequencies --   1911.1513              1969.5503              2333.0665
 Red. masses --     12.0623                 1.0799                 5.5468
 Frc consts  --     25.9579                 2.4680                17.7888
 IR Inten    --    323.0301                91.2012                87.5092

                     34                     35                     36
                      A                      A                      A
 Frequencies --   3075.6125              3166.0592              3184.6122
 Red. masses --      1.0417                 1.0902                 1.0869
 Frc consts  --      5.8058                 6.4384                 6.4943
 IR Inten    --      0.6772                 4.0960                 7.6594

                     37                     38                     39
                      A                      A                      A
 Frequencies --   3206.6741              3531.1174              3886.0250
 Red. masses --      1.0996                 1.1797                 1.0637
 Frc consts  --      6.6621                 8.6665                 9.4643
 IR Inten    --      7.7840                56.1444                29.8006

 - Thermochemistry -
 -------------------
 Temperature   298.150 Kelvin.  Pressure   1.00000 Atm.
 Atom     1 has atomic number  8 and mass  15.99491

 Molecular mass:   115.03952 amu.
 Principal axes and moments of inertia in atomic units:
                           1         2         3
     Eigenvalues --   593.716041597.109781999.46135
           X            0.99937  -0.03530   0.00262
           Y            0.03535   0.99913  -0.02233
           Z           -0.00182   0.02240   0.99975
 This molecule is an asymmetric top.
 Rotational symmetry number  1.
 Warning -- assumption of classical behavior for rotation
           may cause significant error
 Rotational temperatures (Kelvin)      0.14588     0.05423     0.04332
 Rotational constants (GHZ):           3.03974     1.13000     0.90261
    4 imaginary frequencies ignored.
 Zero-point vibrational energy     282390.3 (Joules/Mol)
                                   67.49290 (Kcal/Mol)
 Warning -- explicit consideration of   9 degrees of freedom as
           vibrations may cause significant error
 Vibrational temperatures:     57.64   140.74   176.87   228.57   368.31
          (Kelvin)            434.99   613.41   755.73   820.61   916.53
                             1050.67  1118.66  1178.26  1260.95  1264.50
                             1298.11  1365.47  1500.08  1644.92  1673.59
                             1875.28  1958.70  2008.45  2079.50  2171.24
                             2177.86  2749.72  2833.74  3356.76  4425.12
                             4555.25  4581.95  4613.69  5080.49  5591.12

 Zero-point correction=                           0.107557 (Hartree/Particle)
 Thermal correction to Energy=                    0.115599
 Thermal correction to Enthalpy=                  0.116543
 Thermal correction to Gibbs Free Energy=         0.072877
 Sum of electronic and zero-point Energies=           -419.848780
 Sum of electronic and thermal Energies=              -419.840738
 Sum of electronic and thermal Enthalpies=            -419.839794
 Sum of electronic and thermal Free Energies=         -419.883460

                     E (Thermal)             CV                S
                      KCal/Mol        Cal/Mol-Kelvin    Cal/Mol-Kelvin
 Total                   72.539             27.322             91.904
 Electronic               0.000              0.000              1.377
 Translational            0.889              2.981             40.136
 Rotational               0.889              2.981             29.029
 Vibrational             70.762             21.361             21.362
 Vibration     1          0.594              1.981              5.256
 Vibration     2          0.603              1.951              3.497
 Vibration     3          0.610              1.930              3.054
 Vibration     4          0.621              1.893              2.563
 Vibration     5          0.666              1.753              1.689
 Vibration     6          0.694              1.669              1.404
 Vibration     7          0.788              1.413              0.871
 Vibration     8          0.880              1.194              0.598
 Vibration     9          0.926              1.095              0.504

 Normal termination of Gaussian 16 at Fri Jun 20 12:37:54 2025.
