 Gaussian 16, Revision A.03,
 Gaussian 16:  ES64L-G16RevA.03 25-Dec-2016

 -------------------
 # freq 6-31+g m062x
 -------------------

 -------------------
 Title Card Required
 -------------------
 Symbolic Z-matrix:
 Charge =  0 Multiplicity = 2

                         Standard orientation:
 ---------------------------------------------------------------------
 Center     Atomic      Atomic             Coordinates (Angstroms)
 Number     Number       Type             X           Y           Z
 ---------------------------------------------------------------------
      1          8           0        2.656184    1.782296   -0.244867
      2          1           0        1.822947    2.228135   -0.013856
      3          6           0       -3.190786    1.035859    0.403319
      4          1           0       -4.070619    1.582893    0.649895
      5          6           0       -2.202169    0.418984    0.125826
      6          6           0       -1.032954   -0.371278   -0.227009
      7          8           0       -1.081151   -1.473540   -0.693371
      8          8           0        0.096591    0.299576    0.036162
      9          6           0        1.314816   -0.386110   -0.288834
     10          6           0        1.767499   -1.301506    0.818438
     11          1           0        2.067631    0.422862   -0.427118
     12          1           0        1.206418   -0.885463   -1.251875
     13          1           0        2.750594   -1.706643    0.573409
     14          1           0        1.842936   -0.752546    1.758101
     15          1           0        1.068669   -2.131593    0.937635
 ---------------------------------------------------------------------

 SCF Done:  E(UM062X) =  -419.953873983     A.U. after   22 cycles

 The electronic state is 2-A.
 Alpha  occ. eigenvalues --  -19.71954 -19.70686 -19.67370 -10.73968 -10.62477
 Alpha  occ. eigenvalues --  -10.59361 -10.59040 -10.55117  -1.29133  -1.19831
 Alpha  occ. eigenvalues --   -1.15533  -0.92025  -0.88511  -0.79433  -0.72196
 Alpha  occ. eigenvalues --   -0.66010  -0.62317  -0.60198  -0.58501  -0.57276
 Alpha  occ. eigenvalues --   -0.54822  -0.50499  -0.50047  -0.47444  -0.45402
 Alpha  occ. eigenvalues --   -0.43266  -0.40921  -0.40187  -0.38224  -0.37928
 Alpha  occ. eigenvalues --   -0.37370
 Alpha virt. eigenvalues --   -0.02517   0.01799   0.02311   0.03396   0.03628
 Alpha virt. eigenvalues --    0.04240   0.04902   0.06342   0.07771   0.07980
 Alpha virt. eigenvalues --    0.08339   0.08757   0.09814   0.11182   0.12341

  Beta  occ. eigenvalues --  -19.71960 -19.69145 -19.67367 -10.73961 -10.62216
  Beta  occ. eigenvalues --  -10.59361 -10.59040 -10.55123  -1.29097  -1.19768
  Beta  occ. eigenvalues --   -1.09072  -0.91735  -0.88207  -0.79317  -0.71575
  Beta  occ. eigenvalues --   -0.65769  -0.62123  -0.59443  -0.57818  -0.55516
  Beta  occ. eigenvalues --   -0.52085  -0.50292  -0.47749  -0.46160  -0.42603
  Beta  occ. eigenvalues --   -0.40321  -0.39866  -0.39304  -0.38207  -0.37382
  Beta virt. eigenvalues --   -0.11001  -0.02497   0.01866   0.02425   0.03482
  Beta virt. eigenvalues --    0.03687   0.04387   0.04973   0.06382   0.07846
  Beta virt. eigenvalues --    0.08089   0.08410   0.08819   0.10082   0.11218

 Mulliken charges and spin densities:
               1          2
     1  O   -0.411836   0.869253
     2  H    0.412132  -0.029692
     3  C    0.238917   0.005414
     4  H    0.348746  -0.000014
     5  C    0.136667   0.001088
     6  C   -0.470288  -0.005262
     7  O   -0.330665   0.002173
     8  O   -0.268817  -0.005473
     9  C   -0.315959   0.219706
    10  C   -0.507454  -0.012182
    11  H    0.244134  -0.055934
    12  H    0.245241  -0.001916
    13  H    0.219893   0.000577
    14  H    0.226230   0.001658
    15  H    0.233058   0.010604
 Sum of Mulliken charges =  -0.00000   1.00000

 Dipole moment (field-independent basis, Debye):
    X=             -1.3275    Y=              1.4395    Z=              1.1875  Tot=              2.2901
 Quadrupole moment (field-independent basis, Debye-Ang):
   XX=            -46.4277   YY=            -47.8522   ZZ=            -48.7478
   XY=            -10.9284   XZ=             -1.8680   YZ=             -0.5664

  Exact polarizability:  87.875  -3.396  75.374  -4.354   5.050  47.286
 Approx polarizability:  87.979  -9.310  83.925  -6.844  12.365  51.433

 ******    5 imaginary frequencies (negative Signs) ******

                      1                      2                      3
                      A                      A                      A
 Frequencies --   -450.3899              -284.9827              -137.9749
 Red. masses --      1.0589                 2.0293                 5.0959
 Frc consts  --      0.1266                 0.0971                 0.0572
 IR Inten    --    142.8515                 7.0969                 9.8803

                      4                      5                      6
                      A                      A                      A
 Frequencies --    -89.1647               -20.5303                66.1903
 Red. masses --      3.4332                 4.1529                 4.6598
 Frc consts  --      0.0161                 0.0010                 0.0120
 IR Inten    --      3.1520                 4.8907                10.8998

                      7                      8                      9
                      A                      A                      A
 Frequencies --    104.9000               179.5075               247.9841
 Red. masses --      5.2192                 1.1929                 3.6729
 Frc consts  --      0.0338                 0.0226                 0.1331
 IR Inten    --     35.1848                 1.0890                 4.7719

                     10                     11                     12
                      A                      A                      A
 Frequencies --    286.5245               417.2696               503.1947
 Red. masses --      3.5197                 3.4748                 1.4154
 Frc consts  --      0.1702                 0.3565                 0.2112
 IR Inten    --     12.1570                10.1914               185.9287

                     13                     14                     15
                      A                      A                      A
 Frequencies --    570.5812               629.3005               777.9468
 Red. masses --      4.1240                 4.8615                 1.7122
 Frc consts  --      0.7911                 1.1343                 0.6105
 IR Inten    --      0.2083                51.7715                53.3837

                     16                     17                     18
                      A                      A                      A
 Frequencies --    783.0663               814.4315               872.4731
 Red. masses --      1.9911                 1.4322                 1.9303
 Frc consts  --      0.7194                 0.5597                 0.8657
 IR Inten    --     25.6263                54.5447                19.2425

                     19                     20                     21
                      A                      A                      A
 Frequencies --    897.4916               957.9245              1133.3658
 Red. masses --      3.6057                 2.6245                 3.7450
 Frc consts  --      1.7112                 1.4189                 2.8343
 IR Inten    --     18.2450                12.1143                10.3841

                     22                     23                     24
                      A                      A                      A
 Frequencies --   1159.0758              1200.1589              1320.7739
 Red. masses --      2.0998                 1.8314                 2.2553
 Frc consts  --      1.6621                 1.5542                 2.3180
 IR Inten    --     36.0444                61.9481               359.9636

                     25                     26                     27
                      A                      A                      A
 Frequencies --   1345.6459              1412.2614              1453.5707
 Red. masses --      1.7580                 1.2859                 1.2478
 Frc consts  --      1.8755                 1.5110                 1.5533
 IR Inten    --    429.5728                 2.5970                18.5187

                     28                     29                     30
                      A                      A                      A
 Frequencies --   1512.7846              1525.1956              1535.3291
 Red. masses --      1.0923                 1.0445                 1.0657
 Frc consts  --      1.4727                 1.4315                 1.4800
 IR Inten    --     31.9540                29.1173                28.0653

                     31                     32                     33
                      A                      A                      A
 Frequencies --   1912.4857              2332.9103              2429.3290
 Red. masses --     12.4777                 5.5253                 1.0984
 Frc consts  --     26.8894                17.7174                 3.8194
 IR Inten    --    327.7412                77.3010              1041.4346

                     34                     35                     36
                      A                      A                      A
 Frequencies --   3103.7171              3164.1444              3189.7297
 Red. masses --      1.0344                 1.0846                 1.1010
 Frc consts  --      5.8706                 6.3980                 6.5997
 IR Inten    --      8.3569                 5.1711                 8.7108

                     37                     38                     39
                      A                      A                      A
 Frequencies --   3196.2780              3532.7614              3793.4761
 Red. masses --      1.1005                 1.1793                 1.0665
 Frc consts  --      6.6240                 8.6717                 9.0422
 IR Inten    --     13.3235                54.7889                14.6334

 - Thermochemistry -
 -------------------
 Temperature   298.150 Kelvin.  Pressure   1.00000 Atm.
 Atom     1 has atomic number  8 and mass  15.99491

 Molecular mass:   115.03952 amu.
 Principal axes and moments of inertia in atomic units:
                           1         2         3
     Eigenvalues --   602.869981600.060542010.83107
           X            0.99924  -0.03895   0.00280
           Y            0.03900   0.99902  -0.02087
           Z           -0.00198   0.02096   0.99978
 This molecule is an asymmetric top.
 Rotational symmetry number  1.
 Warning -- assumption of classical behavior for rotation
           may cause significant error
 Rotational temperatures (Kelvin)      0.14367     0.05413     0.04307
 Rotational constants (GHZ):           2.99358     1.12792     0.89751
    5 imaginary frequencies ignored.
 Zero-point vibrational energy     289267.7 (Joules/Mol)
                                   69.13664 (Kcal/Mol)
 Warning -- explicit consideration of   8 degrees of freedom as
           vibrations may cause significant error
 Vibrational temperatures:     95.23   150.93   258.27   356.79   412.24
          (Kelvin)            600.36   723.99   820.94   905.42  1119.29
                             1126.66  1171.79  1255.29  1291.29  1378.24
                             1630.66  1667.65  1726.76  1900.30  1936.08
                             2031.93  2091.36  2176.56  2194.42  2209.00
                             2751.64  3356.54  3495.26  4465.56  4552.50
                             4589.31  4598.73  5082.86  5457.97

 Zero-point correction=                           0.110176 (Hartree/Particle)
 Thermal correction to Energy=                    0.117398
 Thermal correction to Enthalpy=                  0.118342
 Thermal correction to Gibbs Free Energy=         0.076754
 Sum of electronic and zero-point Energies=           -419.843698
 Sum of electronic and thermal Energies=              -419.836476
 Sum of electronic and thermal Enthalpies=            -419.835532
 Sum of electronic and thermal Free Energies=         -419.877120

                     E (Thermal)             CV                S
                      KCal/Mol        Cal/Mol-Kelvin    Cal/Mol-Kelvin
 Total                   73.668             24.787             87.528
 Electronic               0.000              0.000              1.377
 Translational            0.889              2.981             40.136
 Rotational               0.889              2.981             29.052
 Vibrational             71.891             18.825             16.963
 Vibration     1          0.598              1.970              4.264
 Vibration     2          0.605              1.945              3.361
 Vibration     3          0.629              1.867              2.334
 Vibration     4          0.662              1.766              1.745
 Vibration     5          0.684              1.699              1.494
 Vibration     6          0.780              1.433              0.901
 Vibration     7          0.859              1.243              0.650
 Vibration     8          0.927              1.095              0.503

 Normal termination of Gaussian 16 at Fri Jun 20 12:36:21 2025.
