 Gaussian 16, Revision A.03,
 Gaussian 16:  ES64L-G16RevA.03 25-Dec-2016

 -------------------
 # freq 6-31+g m062x
 -------------------

 -------------------
 Title Card Required
 -------------------
 Symbolic Z-matrix:
 Charge =  0 Multiplicity = 2

                         Standard orientation:
 ---------------------------------------------------------------------
 Center     Atomic      Atomic             Coordinates (Angstroms)
 Number     Number       Type             X           Y           Z
 ---------------------------------------------------------------------
      1          8           0        2.663924    1.793259   -0.242922
      2          1           0        1.822515    2.224295   -0.011876
      3          6           0       -3.189487    1.040319    0.403417
      4          1           0       -4.068786    1.588250    0.649843
      5          6           0       -2.201524    0.422299    0.126133
      6          6           0       -1.033008   -0.369110   -0.226452
      7          8           0       -1.083556   -1.471440   -0.692857
      8          8           0        0.097954    0.299669    0.035289
      9          6           0        1.311813   -0.397357   -0.292652
     10          6           0        1.764293   -1.306459    0.820448
     11          1           0        2.065889    0.392036   -0.454074
     12          1           0        1.184772   -0.913603   -1.244276
     13          1           0        2.746931   -1.713066    0.575476
     14          1           0        1.843317   -0.752147    1.756714
     15          1           0        1.066259   -2.135820    0.946741
 ---------------------------------------------------------------------

 SCF Done:  E(UM062X) =  -419.955105363     A.U. after   22 cycles

 The electronic state is 2-A.
 Alpha  occ. eigenvalues --  -19.71883 -19.71017 -19.67299 -10.73895 -10.62220
 Alpha  occ. eigenvalues --  -10.59324 -10.59004 -10.55005  -1.29042  -1.19719
 Alpha  occ. eigenvalues --   -1.15722  -0.91922  -0.88428  -0.79304  -0.72086
 Alpha  occ. eigenvalues --   -0.65929  -0.62257  -0.60026  -0.58328  -0.57189
 Alpha  occ. eigenvalues --   -0.55067  -0.50354  -0.50055  -0.47381  -0.45360
 Alpha  occ. eigenvalues --   -0.43532  -0.40940  -0.40179  -0.38294  -0.38155
 Alpha  occ. eigenvalues --   -0.37349
 Alpha virt. eigenvalues --   -0.02468   0.01814   0.02322   0.03419   0.03647
 Alpha virt. eigenvalues --    0.04244   0.04918   0.06355   0.07789   0.07993
 Alpha virt. eigenvalues --    0.08359   0.08772   0.09822   0.11204   0.12351

  Beta  occ. eigenvalues --  -19.71890 -19.69446 -19.67296 -10.73889 -10.61995
  Beta  occ. eigenvalues --  -10.59324 -10.59004 -10.55010  -1.29014  -1.19664
  Beta  occ. eigenvalues --   -1.08945  -0.91679  -0.88163  -0.79209  -0.71541
  Beta  occ. eigenvalues --   -0.65728  -0.62093  -0.59379  -0.57733  -0.55364
  Beta  occ. eigenvalues --   -0.52270  -0.50169  -0.47705  -0.46080  -0.42510
  Beta  occ. eigenvalues --   -0.40307  -0.40019  -0.39272  -0.38169  -0.37342
  Beta virt. eigenvalues --   -0.10868  -0.02452   0.01881   0.02438   0.03503
  Beta virt. eigenvalues --    0.03707   0.04394   0.04987   0.06394   0.07866
  Beta virt. eigenvalues --    0.08103   0.08428   0.08836   0.10088   0.11242

 Mulliken charges and spin densities:
               1          2
     1  O   -0.401626   0.895832
     2  H    0.412987  -0.030433
     3  C    0.235788   0.004737
     4  H    0.348627  -0.000013
     5  C    0.138952   0.001271
     6  C   -0.470639  -0.005484
     7  O   -0.330496   0.002041
     8  O   -0.269132  -0.003741
     9  C   -0.323538   0.187218
    10  C   -0.504299  -0.009999
    11  H    0.242416  -0.050736
    12  H    0.244745  -0.001078
    13  H    0.218852   0.000525
    14  H    0.225393   0.001245
    15  H    0.231970   0.008613
 Sum of Mulliken charges =  -0.00000   1.00000

 Dipole moment (field-independent basis, Debye):
    X=             -1.2638    Y=              1.5234    Z=              1.1712  Tot=              2.2999
 Quadrupole moment (field-independent basis, Debye-Ang):
   XX=            -46.3162   YY=            -47.7119   ZZ=            -48.7736
   XY=            -10.7102   XZ=             -1.9114   YZ=             -0.5508

  Exact polarizability:  86.876  -4.872  73.193  -4.222   5.245  47.241
 Approx polarizability:  87.454 -10.130  82.449  -6.776  12.473  51.379

 ******    4 imaginary frequencies (negative Signs) ******

                      1                      2                      3
                      A                      A                      A
 Frequencies --   -446.9540              -243.7471              -142.9830
 Red. masses --      1.0603                 2.0604                 4.5730
 Frc consts  --      0.1248                 0.0721                 0.0551
 IR Inten    --    147.9113                26.4365                 9.7755

                      4                      5                      6
                      A                      A                      A
 Frequencies --    -91.5823                13.7786                87.3563
 Red. masses --      3.6185                 3.9872                 3.5928
 Frc consts  --      0.0179                 0.0004                 0.0162
 IR Inten    --      0.4453                 5.5252                 6.0103

                      7                      8                      9
                      A                      A                      A
 Frequencies --    164.9146               181.5060               249.5295
 Red. masses --      4.7322                 1.3765                 3.6935
 Frc consts  --      0.0758                 0.0267                 0.1355
 IR Inten    --     12.1033                 1.8542                 4.5282

                     10                     11                     12
                      A                      A                      A
 Frequencies --    297.1790               415.3729               468.2692
 Red. masses --      3.0629                 3.1065                 1.5690
 Frc consts  --      0.1594                 0.3158                 0.2027
 IR Inten    --     25.9072                25.0551               165.0038

                     13                     14                     15
                      A                      A                      A
 Frequencies --    571.9529               627.7606               775.8177
 Red. masses --      4.0223                 5.0930                 1.4394
 Frc consts  --      0.7753                 1.1825                 0.5104
 IR Inten    --      0.2847                39.9538                31.2492

                     16                     17                     18
                      A                      A                      A
 Frequencies --    782.7710               814.5110               872.8737
 Red. masses --      2.4819                 1.4323                 1.9438
 Frc consts  --      0.8960                 0.5599                 0.8726
 IR Inten    --     46.0815                54.7277                18.6875

                     19                     20                     21
                      A                      A                      A
 Frequencies --    897.2015               956.5104              1132.0785
 Red. masses --      3.6274                 2.6336                 3.8281
 Frc consts  --      1.7204                 1.4197                 2.8906
 IR Inten    --     16.7642                 8.3693                10.9230

                     22                     23                     24
                      A                      A                      A
 Frequencies --   1158.2243              1202.8218              1318.3447
 Red. masses --      2.0851                 1.8081                 2.3368
 Frc consts  --      1.6480                 1.5412                 2.3930
 IR Inten    --     31.9000                41.2041               384.2330

                     25                     26                     27
                      A                      A                      A
 Frequencies --   1351.5251              1417.5892              1454.3630
 Red. masses --      1.6981                 1.2910                 1.2511
 Frc consts  --      1.8275                 1.5285                 1.5591
 IR Inten    --    365.3346                 4.2275                18.6915

                     28                     29                     30
                      A                      A                      A
 Frequencies --   1519.1300              1527.5111              1539.2267
 Red. masses --      1.0690                 1.0500                 1.0827
 Frc consts  --      1.4534                 1.4434                 1.5113
 IR Inten    --      9.6800                22.7376                34.7320

                     31                     32                     33
                      A                      A                      A
 Frequencies --   1911.8922              2332.9963              2679.5441
 Red. masses --     12.4036                 5.5503                 1.0869
 Frc consts  --     26.7132                17.7990                 4.5980
 IR Inten    --    316.3437                75.6302               707.4870

                     34                     35                     36
                      A                      A                      A
 Frequencies --   3104.2336              3164.2998              3190.4155
 Red. masses --      1.0344                 1.0851                 1.1006
 Frc consts  --      5.8727                 6.4013                 6.6006
 IR Inten    --      9.1451                 4.7051                11.1634

                     37                     38                     39
                      A                      A                      A
 Frequencies --   3195.9981              3532.8947              3788.8657
 Red. masses --      1.1010                 1.1793                 1.0666
 Frc consts  --      6.6258                 8.6721                 9.0211
 IR Inten    --     13.3308                54.7534                13.4927

 - Thermochemistry -
 -------------------
 Temperature   298.150 Kelvin.  Pressure   1.00000 Atm.
 Atom     1 has atomic number  8 and mass  15.99491

 Molecular mass:   115.03952 amu.
 Principal axes and moments of inertia in atomic units:
                           1         2         3
     Eigenvalues --   606.533351601.328982015.34571
           X            0.99922  -0.03947   0.00275
           Y            0.03952   0.99901  -0.02055
           Z           -0.00194   0.02065   0.99978
 This molecule is an asymmetric top.
 Rotational symmetry number  1.
 Warning -- assumption of classical behavior for rotation
           may cause significant error
 Rotational temperatures (Kelvin)      0.14280     0.05409     0.04298
 Rotational constants (GHZ):           2.97550     1.12703     0.89550
    4 imaginary frequencies ignored.
 Zero-point vibrational energy     291286.3 (Joules/Mol)
                                   69.61909 (Kcal/Mol)
 Warning -- explicit consideration of   9 degrees of freedom as
           vibrations may cause significant error
 Vibrational temperatures:     19.82   125.69   237.28   261.15   359.02
          (Kelvin)            427.57   597.63   673.73   822.91   903.21
                             1116.23  1126.23  1171.90  1255.87  1290.87
                             1376.21  1628.81  1666.43  1730.59  1896.80
                             1944.54  2039.59  2092.50  2185.69  2197.75
                             2214.60  2750.79  3356.66  3855.27  4466.30
                             4552.72  4590.30  4598.33  5083.05  5451.33

 Zero-point correction=                           0.110945 (Hartree/Particle)
 Thermal correction to Energy=                    0.118940
 Thermal correction to Enthalpy=                  0.119884
 Thermal correction to Gibbs Free Energy=         0.075457
 Sum of electronic and zero-point Energies=           -419.844160
 Sum of electronic and thermal Energies=              -419.836166
 Sum of electronic and thermal Enthalpies=            -419.835221
 Sum of electronic and thermal Free Energies=         -419.879648

                     E (Thermal)             CV                S
                      KCal/Mol        Cal/Mol-Kelvin    Cal/Mol-Kelvin
 Total                   74.636             26.756             93.504
 Electronic               0.000              0.000              1.377
 Translational            0.889              2.981             40.136
 Rotational               0.889              2.981             29.061
 Vibrational             72.858             20.794             22.930
 Vibration     1          0.593              1.986              7.374
 Vibration     2          0.601              1.958              3.718
 Vibration     3          0.623              1.886              2.493
 Vibration     4          0.630              1.865              2.313
 Vibration     5          0.662              1.764              1.734
 Vibration     6          0.691              1.679              1.433
 Vibration     7          0.779              1.437              0.908
 Vibration     8          0.825              1.320              0.742
 Vibration     9          0.928              1.092              0.500

 Normal termination of Gaussian 16 at Fri Jun 20 12:45:02 2025.
