 Gaussian 16, Revision A.03,
 Gaussian 16:  ES64L-G16RevA.03 25-Dec-2016

 -------------------
 # freq 6-31+g m062x
 -------------------

 -------------------
 Title Card Required
 -------------------
 Symbolic Z-matrix:
 Charge =  0 Multiplicity = 2

                         Standard orientation:
 ---------------------------------------------------------------------
 Center     Atomic      Atomic             Coordinates (Angstroms)
 Number     Number       Type             X           Y           Z
 ---------------------------------------------------------------------
      1          8           0        2.651146    1.774934   -0.246019
      2          1           0        1.823337    2.230090   -0.014992
      3          6           0       -3.191577    1.033124    0.403256
      4          1           0       -4.071742    1.579621    0.649910
      5          6           0       -2.202528    0.416993    0.125664
      6          6           0       -1.033059   -0.372613   -0.227407
      7          8           0       -1.079822   -1.474838   -0.693628
      8          8           0        0.096051    0.299208    0.036549
      9          6           0        1.316493   -0.379296   -0.286532
     10          6           0        1.769597   -1.298332    0.817226
     11          1           0        2.069849    0.447658   -0.409412
     12          1           0        1.221027   -0.866731   -1.257172
     13          1           0        2.752686   -1.703253    0.572335
     14          1           0        1.842692   -0.752627    1.758914
     15          1           0        1.069601   -2.128443    0.931954
 ---------------------------------------------------------------------

 SCF Done:  E(UM062X) =  -419.952985854     A.U. after   21 cycles

 The electronic state is 2-A.
 Alpha  occ. eigenvalues --  -19.72035 -19.70355 -19.67446 -10.74046 -10.62744
 Alpha  occ. eigenvalues --  -10.59405 -10.59083 -10.55234  -1.29229  -1.19941
 Alpha  occ. eigenvalues --   -1.15324  -0.92118  -0.88586  -0.79554  -0.72284
 Alpha  occ. eigenvalues --   -0.66102  -0.62376  -0.60335  -0.58634  -0.57358
 Alpha  occ. eigenvalues --   -0.54573  -0.50634  -0.50044  -0.47523  -0.45460
 Alpha  occ. eigenvalues --   -0.42990  -0.40934  -0.40224  -0.38264  -0.37659
 Alpha  occ. eigenvalues --   -0.37331
 Alpha virt. eigenvalues --   -0.02575   0.01785   0.02300   0.03371   0.03602
 Alpha virt. eigenvalues --    0.04232   0.04886   0.06324   0.07753   0.07967
 Alpha virt. eigenvalues --    0.08316   0.08738   0.09803   0.11152   0.12325

  Beta  occ. eigenvalues --  -19.72040 -19.68844 -19.67443 -10.74037 -10.62450
  Beta  occ. eigenvalues --  -10.59405 -10.59083 -10.55239  -1.29185  -1.19869
  Beta  occ. eigenvalues --   -1.09160  -0.91788  -0.88248  -0.79418  -0.71601
  Beta  occ. eigenvalues --   -0.65822  -0.62159  -0.59508  -0.57896  -0.55615
  Beta  occ. eigenvalues --   -0.51922  -0.50402  -0.47806  -0.46241  -0.42689
  Beta  occ. eigenvalues --   -0.40360  -0.39728  -0.39304  -0.38252  -0.37429
  Beta virt. eigenvalues --   -0.11120  -0.02552   0.01850   0.02412   0.03459
  Beta virt. eigenvalues --    0.03660   0.04377   0.04960   0.06365   0.07826
  Beta virt. eigenvalues --    0.08075   0.08388   0.08800   0.10072   0.11188

 Mulliken charges and spin densities:
               1          2
     1  O   -0.422252   0.843640
     2  H    0.411394  -0.028910
     3  C    0.240184   0.005955
     4  H    0.348921  -0.000015
     5  C    0.135091   0.000960
     6  C   -0.469207  -0.004985
     7  O   -0.330583   0.002313
     8  O   -0.268293  -0.007048
     9  C   -0.309899   0.250055
    10  C   -0.509570  -0.014172
    11  H    0.246181  -0.060278
    12  H    0.245952  -0.002688
    13  H    0.220904   0.000625
    14  H    0.227160   0.002060
    15  H    0.234017   0.012488
 Sum of Mulliken charges =  -0.00000   1.00000

 Dipole moment (field-independent basis, Debye):
    X=             -1.4021    Y=              1.3427    Z=              1.2020  Tot=              2.2833
 Quadrupole moment (field-independent basis, Debye-Ang):
   XX=            -46.5803   YY=            -48.0029   ZZ=            -48.7197
   XY=            -11.1910   XZ=             -1.8287   YZ=             -0.5704

  Exact polarizability:  88.764  -2.152  77.202  -4.471   4.872  47.322
 Approx polarizability:  88.487  -8.571  85.249  -6.906  12.260  51.479

 ******    5 imaginary frequencies (negative Signs) ******

                      1                      2                      3
                      A                      A                      A
 Frequencies --   -453.8837              -358.9172              -130.1756
 Red. masses --      1.0619                 2.0721                 6.3446
 Frc consts  --      0.1289                 0.1573                 0.0633
 IR Inten    --    134.5504                54.1857                 8.0119

                      4                      5                      6
                      A                      A                      A
 Frequencies --   -100.9345               -65.1889                23.3178
 Red. masses --      4.7990                 3.3718                 3.9840
 Frc consts  --      0.0288                 0.0084                 0.0013
 IR Inten    --     37.4923                 5.5518                 9.9706

                      7                      8                      9
                      A                      A                      A
 Frequencies --     94.9077               178.8105               247.4004
 Red. masses --      3.7028                 1.2013                 3.6821
 Frc consts  --      0.0197                 0.0226                 0.1328
 IR Inten    --     17.7414                 1.1757                 5.1175

                     10                     11                     12
                      A                      A                      A
 Frequencies --    280.0331               417.7374               533.6135
 Red. masses --      3.8030                 3.5696                 1.4116
 Frc consts  --      0.1757                 0.3670                 0.2368
 IR Inten    --      8.9382                 6.6133               168.3957

                     13                     14                     15
                      A                      A                      A
 Frequencies --    569.4700               631.9667               779.5875
 Red. masses --      4.2221                 4.4529                 2.6128
 Frc consts  --      0.8067                 1.0478                 0.9356
 IR Inten    --      0.4458                66.9625                75.5163

                     16                     17                     18
                      A                      A                      A
 Frequencies --    786.4284               814.5703               872.3566
 Red. masses --      1.4316                 1.4323                 1.9199
 Frc consts  --      0.5217                 0.5600                 0.8608
 IR Inten    --      6.2146                54.9225                19.7932

                     19                     20                     21
                      A                      A                      A
 Frequencies --    898.0248               959.1751              1133.7300
 Red. masses --      3.5647                 2.6347                 3.6371
 Frc consts  --      1.6938                 1.4282                 2.7544
 IR Inten    --     19.6784                16.4196                10.7500

                     22                     23                     24
                      A                      A                      A
 Frequencies --   1159.6433              1197.5929              1323.0486
 Red. masses --      2.1212                 1.8594                 2.1736
 Frc consts  --      1.6807                 1.5712                 2.2418
 IR Inten    --     42.3098                92.4771               334.7437

                     25                     26                     27
                      A                      A                      A
 Frequencies --   1338.4024              1408.0734              1452.6810
 Red. masses --      1.8334                 1.2815                 1.2439
 Frc consts  --      1.9350                 1.4970                 1.5466
 IR Inten    --    511.2518                 1.3941                18.1740

                     28                     29                     30
                      A                      A                      A
 Frequencies --   1505.7661              1523.7699              1532.7696
 Red. masses --      1.0999                 1.0412                 1.0571
 Frc consts  --      1.4693                 1.4244                 1.4632
 IR Inten    --     73.5542                31.1077                23.9339

                     31                     32                     33
                      A                      A                      A
 Frequencies --   1912.7445              2168.1297              2333.1252
 Red. masses --     12.4879                 1.1146                 5.5427
 Frc consts  --     26.9188                 3.0871                17.7767
 IR Inten    --    353.4811              1270.5391                77.3953

                     34                     35                     36
                      A                      A                      A
 Frequencies --   3103.0737              3163.6483              3188.5174
 Red. masses --      1.0344                 1.0845                 1.1009
 Frc consts  --      5.8685                 6.3949                 6.5944
 IR Inten    --      7.5981                 5.5617                 7.0723

                     37                     38                     39
                      A                      A                      A
 Frequencies --   3197.0378              3532.6287              3797.5049
 Red. masses --      1.1004                 1.1793                 1.0664
 Frc consts  --      6.6267                 8.6713                 9.0606
 IR Inten    --     12.9317                54.8502                15.7012

 - Thermochemistry -
 -------------------
 Temperature   298.150 Kelvin.  Pressure   1.00000 Atm.
 Atom     1 has atomic number  8 and mass  15.99491

 Molecular mass:   115.03952 amu.
 Principal axes and moments of inertia in atomic units:
                           1         2         3
     Eigenvalues --   600.504221599.248672007.90325
           X            0.99925  -0.03857   0.00281
           Y            0.03862   0.99903  -0.02109
           Z           -0.00200   0.02118   0.99977
 This molecule is an asymmetric top.
 Rotational symmetry number  1.
 Warning -- assumption of classical behavior for rotation
           may cause significant error
 Rotational temperatures (Kelvin)      0.14424     0.05416     0.04314
 Rotational constants (GHZ):           3.00538     1.12849     0.89882
    5 imaginary frequencies ignored.
 Zero-point vibrational energy     287458.4 (Joules/Mol)
                                   68.70420 (Kcal/Mol)
 Warning -- explicit consideration of   8 degrees of freedom as
           vibrations may cause significant error
 Vibrational temperatures:     33.55   136.55   257.27   355.95   402.91
          (Kelvin)            601.03   767.75   819.34   909.26  1121.65
                             1131.50  1171.98  1255.13  1292.06  1380.04
                             1631.18  1668.47  1723.07  1903.57  1925.66
                             2025.90  2090.08  2166.46  2192.36  2205.31
                             2752.01  3119.46  3356.85  4464.63  4551.78
                             4587.57  4599.82  5082.66  5463.76

 Zero-point correction=                           0.109487 (Hartree/Particle)
 Thermal correction to Energy=                    0.116805
 Thermal correction to Enthalpy=                  0.117749
 Thermal correction to Gibbs Free Energy=         0.075103
 Sum of electronic and zero-point Energies=           -419.843499
 Sum of electronic and thermal Energies=              -419.836181
 Sum of electronic and thermal Enthalpies=            -419.835236
 Sum of electronic and thermal Free Energies=         -419.877882

                     E (Thermal)             CV                S
                      KCal/Mol        Cal/Mol-Kelvin    Cal/Mol-Kelvin
 Total                   73.296             24.752             89.756
 Electronic               0.000              0.000              1.377
 Translational            0.889              2.981             40.136
 Rotational               0.889              2.981             29.046
 Vibrational             71.519             18.790             19.197
 Vibration     1          0.593              1.985              6.329
 Vibration     2          0.603              1.953              3.556
 Vibration     3          0.629              1.868              2.341
 Vibration     4          0.661              1.767              1.749
 Vibration     5          0.680              1.711              1.533
 Vibration     6          0.781              1.432              0.900
 Vibration     7          0.889              1.176              0.579
 Vibration     8          0.926              1.097              0.505

 Normal termination of Gaussian 16 at Fri Jun 20 12:33:10 2025.
