 Gaussian 16, Revision A.03,
 Gaussian 16:  ES64L-G16RevA.03 25-Dec-2016

 -------------------
 # freq 6-31+g m062x
 -------------------

 -------------------
 Title Card Required
 -------------------
 Symbolic Z-matrix:
 Charge =  0 Multiplicity = 2

                         Standard orientation:
 ---------------------------------------------------------------------
 Center     Atomic      Atomic             Coordinates (Angstroms)
 Number     Number       Type             X           Y           Z
 ---------------------------------------------------------------------
      1          8           0        2.661338    1.789629   -0.243601
      2          1           0        1.822660    2.225712   -0.012583
      3          6           0       -3.189932    1.038794    0.403382
      4          1           0       -4.069409    1.586419    0.649863
      5          6           0       -2.201753    0.421153    0.126021
      6          6           0       -1.032966   -0.369854   -0.226631
      7          8           0       -1.082702   -1.472160   -0.693043
      8          8           0        0.097431    0.299697    0.035619
      9          6           0        1.312885   -0.393481   -0.291341
     10          6           0        1.765361   -1.304800    0.819756
     11          1           0        2.066068    0.401374   -0.444957
     12          1           0        1.192008   -0.904133   -1.246783
     13          1           0        2.748217   -1.710756    0.574726
     14          1           0        1.843173   -0.752337    1.757206
     15          1           0        1.067183   -2.134484    0.943606
 ---------------------------------------------------------------------

 SCF Done:  E(UM062X) =  -419.954710038     A.U. after   22 cycles

 The electronic state is 2-A.
 Alpha  occ. eigenvalues --  -19.71900 -19.70927 -19.67317 -10.73914 -10.62285
 Alpha  occ. eigenvalues --  -10.59332 -10.59012 -10.55035  -1.29065  -1.19750
 Alpha  occ. eigenvalues --   -1.15675  -0.91952  -0.88452  -0.79340  -0.72122
 Alpha  occ. eigenvalues --   -0.65949  -0.62273  -0.60079  -0.58382  -0.57214
 Alpha  occ. eigenvalues --   -0.55002  -0.50395  -0.50052  -0.47395  -0.45370
 Alpha  occ. eigenvalues --   -0.43461  -0.40930  -0.40177  -0.38233  -0.38133
 Alpha  occ. eigenvalues --   -0.37355
 Alpha virt. eigenvalues --   -0.02480   0.01809   0.02319   0.03413   0.03644
 Alpha virt. eigenvalues --    0.04243   0.04913   0.06352   0.07784   0.07990
 Alpha virt. eigenvalues --    0.08354   0.08769   0.09820   0.11199   0.12349

  Beta  occ. eigenvalues --  -19.71907 -19.69364 -19.67314 -10.73908 -10.62050
  Beta  occ. eigenvalues --  -10.59332 -10.59013 -10.55040  -1.29035  -1.19692
  Beta  occ. eigenvalues --   -1.08987  -0.91695  -0.88176  -0.79239  -0.71554
  Beta  occ. eigenvalues --   -0.65737  -0.62100  -0.59396  -0.57757  -0.55415
  Beta  occ. eigenvalues --   -0.52217  -0.50205  -0.47715  -0.46102  -0.42538
  Beta  occ. eigenvalues --   -0.40307  -0.39980  -0.39282  -0.38178  -0.37352
  Beta virt. eigenvalues --   -0.10905  -0.02463   0.01877   0.02434   0.03498
  Beta virt. eigenvalues --    0.03702   0.04393   0.04983   0.06392   0.07861
  Beta virt. eigenvalues --    0.08099   0.08424   0.08832   0.10087   0.11237

 Mulliken charges and spin densities:
               1          2
     1  O   -0.404401   0.888399
     2  H    0.412740  -0.030228
     3  C    0.236984   0.004946
     4  H    0.348648  -0.000013
     5  C    0.138222   0.001217
     6  C   -0.470695  -0.005436
     7  O   -0.330590   0.002075
     8  O   -0.269132  -0.004224
     9  C   -0.321164   0.196343
    10  C   -0.505338  -0.010602
    11  H    0.242851  -0.052228
    12  H    0.244846  -0.001320
    13  H    0.219136   0.000539
    14  H    0.225601   0.001360
    15  H    0.232291   0.009172
 Sum of Mulliken charges =  -0.00000   1.00000

 Dipole moment (field-independent basis, Debye):
    X=             -1.2790    Y=              1.5032    Z=              1.1759  Tot=              2.2974
 Quadrupole moment (field-independent basis, Debye-Ang):
   XX=            -46.3391   YY=            -47.7477   ZZ=            -48.7667
   XY=            -10.7611   XZ=             -1.8988   YZ=             -0.5572

  Exact polarizability:  87.154  -4.449  73.818  -4.259   5.191  47.254
 Approx polarizability:  87.594  -9.901  82.863  -6.795  12.443  51.394

 ******    4 imaginary frequencies (negative Signs) ******

                      1                      2                      3
                      A                      A                      A
 Frequencies --   -448.0761              -251.8268              -142.4300
 Red. masses --      1.0598                 2.0454                 4.6291
 Frc consts  --      0.1254                 0.0764                 0.0553
 IR Inten    --    146.5888                17.8777                10.0587

                      4                      5                      6
                      A                      A                      A
 Frequencies --    -91.3177                 8.9851                85.9659
 Red. masses --      3.5875                 3.9949                 3.6072
 Frc consts  --      0.0176                 0.0002                 0.0157
 IR Inten    --      0.6522                 5.3394                 4.4513

                      7                      8                      9
                      A                      A                      A
 Frequencies --    149.4439               180.3495               248.9860
 Red. masses --      8.0223                 1.2281                 3.6837
 Frc consts  --      0.1056                 0.0235                 0.1346
 IR Inten    --     20.8953                 1.2351                 4.5237

                     10                     11                     12
                      A                      A                      A
 Frequencies --    294.0515               416.1646               477.7625
 Red. masses --      3.2059                 3.2548                 1.4974
 Frc consts  --      0.1633                 0.3321                 0.2014
 IR Inten    --     19.6450                18.8114               177.3286

                     13                     14                     15
                      A                      A                      A
 Frequencies --    571.5326               628.0293               775.8178
 Red. masses --      4.0487                 5.0409                 1.4537
 Frc consts  --      0.7792                 1.1714                 0.5155
 IR Inten    --      0.2245                42.8925                33.0240

                     16                     17                     18
                      A                      A                      A
 Frequencies --    782.6099               814.4411               872.7072
 Red. masses --      2.4660                 1.4322                 1.9395
 Frc consts  --      0.8899                 0.5597                 0.8703
 IR Inten    --     44.6560                54.6257                18.8429

                     19                     20                     21
                      A                      A                      A
 Frequencies --    897.1943               956.8839              1132.5494
 Red. masses --      3.6288                 2.6267                 3.8081
 Frc consts  --      1.7210                 1.4170                 2.8779
 IR Inten    --     17.1832                 9.3421                10.6627

                     22                     23                     24
                      A                      A                      A
 Frequencies --   1158.5122              1201.9324              1318.7895
 Red. masses --      2.0889                 1.8143                 2.2860
 Frc consts  --      1.6519                 1.5443                 2.3425
 IR Inten    --     32.7620                46.0741               372.8279

                     25                     26                     27
                      A                      A                      A
 Frequencies --   1349.9378              1415.7648              1454.1402
 Red. masses --      1.7297                 1.2895                 1.2501
 Frc consts  --      1.8572                 1.5229                 1.5574
 IR Inten    --    386.7519                 3.7200                18.6876

                     28                     29                     30
                      A                      A                      A
 Frequencies --   1517.4680              1526.7146              1537.8449
 Red. masses --      1.0771                 1.0485                 1.0766
 Frc consts  --      1.4613                 1.4400                 1.5001
 IR Inten    --     13.8246                25.5445                32.5064

                     31                     32                     33
                      A                      A                      A
 Frequencies --   1912.0960              2332.9822              2616.9570
 Red. masses --     12.4263                 5.5491                 1.0894
 Frc consts  --     26.7678                17.7949                 4.3957
 IR Inten    --    319.0059                75.8147               802.4322

                     34                     35                     36
                      A                      A                      A
 Frequencies --   3104.1327              3164.6457              3190.3644
 Red. masses --      1.0344                 1.0850                 1.1007
 Frc consts  --      5.8722                 6.4020                 6.6011
 IR Inten    --      8.9308                 4.7846                10.4788

                     37                     38                     39
                      A                      A                      A
 Frequencies --   3196.0454              3532.8623              3790.2955
 Red. masses --      1.1008                 1.1793                 1.0665
 Frc consts  --      6.6248                 8.6720                 9.0277
 IR Inten    --     13.3728                54.7582                13.8256

 - Thermochemistry -
 -------------------
 Temperature   298.150 Kelvin.  Pressure   1.00000 Atm.
 Atom     1 has atomic number  8 and mass  15.99491

 Molecular mass:   115.03952 amu.
 Principal axes and moments of inertia in atomic units:
                           1         2         3
     Eigenvalues --   605.302821600.901632013.83232
           X            0.99922  -0.03930   0.00277
           Y            0.03935   0.99901  -0.02065
           Z           -0.00196   0.02075   0.99978
 This molecule is an asymmetric top.
 Rotational symmetry number  1.
 Warning -- assumption of classical behavior for rotation
           may cause significant error
 Rotational temperatures (Kelvin)      0.14309     0.05410     0.04301
 Rotational constants (GHZ):           2.98155     1.12733     0.89617
    4 imaginary frequencies ignored.
 Zero-point vibrational energy     290782.0 (Joules/Mol)
                                   69.49857 (Kcal/Mol)
 Warning -- explicit consideration of   9 degrees of freedom as
           vibrations may cause significant error
 Vibrational temperatures:     12.93   123.69   215.02   259.48   358.24
          (Kelvin)            423.07   598.77   687.39   822.31   903.59
                             1116.23  1126.00  1171.80  1255.63  1290.86
                             1376.74  1629.49  1666.84  1729.31  1897.44
                             1942.26  2036.97  2092.18  2183.30  2196.60
                             2212.62  2751.08  3356.64  3765.22  4466.15
                             4553.22  4590.22  4598.40  5083.00  5453.39

 Zero-point correction=                           0.110753 (Hartree/Particle)
 Thermal correction to Energy=                    0.118786
 Thermal correction to Enthalpy=                  0.119730
 Thermal correction to Gibbs Free Energy=         0.074795
 Sum of electronic and zero-point Energies=           -419.843957
 Sum of electronic and thermal Energies=              -419.835924
 Sum of electronic and thermal Enthalpies=            -419.834980
 Sum of electronic and thermal Free Energies=         -419.879915

                     E (Thermal)             CV                S
                      KCal/Mol        Cal/Mol-Kelvin    Cal/Mol-Kelvin
 Total                   74.540             26.763             94.574
 Electronic               0.000              0.000              1.377
 Translational            0.889              2.981             40.136
 Rotational               0.889              2.981             29.058
 Vibrational             72.762             20.801             24.003
 Vibration     1          0.593              1.987              8.224
 Vibration     2          0.601              1.959              3.750
 Vibration     3          0.618              1.903              2.679
 Vibration     4          0.629              1.866              2.325
 Vibration     5          0.662              1.764              1.738
 Vibration     6          0.689              1.685              1.451
 Vibration     7          0.779              1.435              0.905
 Vibration     8          0.834              1.299              0.716
 Vibration     9          0.928              1.093              0.501

 Normal termination of Gaussian 16 at Fri Jun 20 12:41:05 2025.
