 Gaussian 16, Revision A.03,
 Gaussian 16:  ES64L-G16RevA.03 25-Dec-2016

 --------------------------
 # ccsd(t)/6-311++g(d,p) sp
 --------------------------

 -------------------
 Title Card Required
 -------------------
 Symbolic Z-matrix:
 Charge =  0 Multiplicity = 2

                         Standard orientation:
 ---------------------------------------------------------------------
 Center     Atomic      Atomic             Coordinates (Angstroms)
 Number     Number       Type             X           Y           Z
 ---------------------------------------------------------------------
      1          8           0        2.639062    1.752253   -0.248203
      2          1           0        1.829163    2.232726   -0.016998
      3          6           0       -3.192855    1.028719    0.403284
      4          1           0       -4.073375    1.574778    0.650179
      5          6           0       -2.203247    0.413623    0.125444
      6          6           0       -1.035020   -0.375382   -0.228712
      7          8           0       -1.078665   -1.477327   -0.694243
      8          8           0        0.097078    0.296704    0.036999
      9          6           0        1.315236   -0.370407   -0.281223
     10          6           0        1.773712   -1.292698    0.814602
     11          1           0        2.115329    0.590685   -0.365508
     12          1           0        1.259808   -0.817382   -1.274093
     13          1           0        2.754956   -1.700807    0.570330
     14          1           0        1.840625   -0.754972    1.761027
     15          1           0        1.066737   -2.121196    0.918275
 ---------------------------------------------------------------------

 SCF Done:  E(UHF) =  -417.961209360     A.U. after   30 cycles
 E2 =    -0.1285399835D+01 EUMP2 =    -0.41924660919517D+03
 CCSD(T)= -0.41934864611D+03

 The electronic state is 2-A.
 Alpha  occ. eigenvalues --  -20.62887 -20.61954 -20.57482 -11.42924 -11.32126
 Alpha  occ. eigenvalues --  -11.27653 -11.26864 -11.23334  -1.49777  -1.39871
 Alpha  occ. eigenvalues --   -1.38404  -1.09092  -1.05259  -0.93805  -0.85244
 Alpha  occ. eigenvalues --   -0.78110  -0.74397  -0.72666  -0.70210  -0.68005
 Alpha  occ. eigenvalues --   -0.65945  -0.60877  -0.59508  -0.56293  -0.54834
 Alpha  occ. eigenvalues --   -0.54351  -0.50062  -0.48938  -0.43860  -0.43574
 Alpha  occ. eigenvalues --   -0.43424
 Alpha virt. eigenvalues --    0.03435   0.04779   0.06026   0.06258   0.07588
 Alpha virt. eigenvalues --    0.08014   0.08852   0.09956   0.11106   0.11741
 Alpha virt. eigenvalues --    0.11972   0.13697   0.14462   0.15486   0.16381

  Beta  occ. eigenvalues --  -20.62938 -20.58552 -20.57481 -11.42873 -11.30633
  Beta  occ. eigenvalues --  -11.27648 -11.26869 -11.23416  -1.49637  -1.39614
  Beta  occ. eigenvalues --   -1.26689  -1.08535  -1.03791  -0.93476  -0.83063
  Beta  occ. eigenvalues --   -0.77459  -0.73710  -0.70740  -0.67651  -0.65631
  Beta  occ. eigenvalues --   -0.61367  -0.59118  -0.56029  -0.54754  -0.50767
  Beta  occ. eigenvalues --   -0.50563  -0.49131  -0.47055  -0.43565  -0.43510
  Beta virt. eigenvalues --    0.03409   0.04409   0.05189   0.06209   0.06926
  Beta virt. eigenvalues --    0.07653   0.08035   0.09087   0.10083   0.11406
  Beta virt. eigenvalues --    0.11946   0.12027   0.13733   0.14488   0.15548

 Mulliken charges and spin densities:
               1          2
     1  O   -0.323067   0.747509
     2  H    0.265790  -0.025913
     3  C   -0.613689   0.002657
     4  H    0.213367  -0.000155
     5  C    1.279977  -0.003591
     6  C   -0.745194   0.006669
     7  O   -0.278021  -0.000032
     8  O   -0.058725  -0.036068
     9  C   -0.388596   0.529691
    10  C   -0.304083  -0.049807
    11  H    0.256773  -0.181122
    12  H    0.207095  -0.023033
    13  H    0.151262   0.002194
    14  H    0.160436   0.006525
    15  H    0.176675   0.024475
 Sum of Mulliken charges =  -0.00000   1.00000

 Dipole moment (field-independent basis, Debye):
    X=             -1.3920    Y=              1.4777    Z=              1.2723  Tot=              2.3958
 Quadrupole moment (field-independent basis, Debye-Ang):
   XX=            -45.3227   YY=            -48.0616   ZZ=            -48.3664
   XY=            -11.6311   XZ=             -2.1872   YZ=             -0.4133

 -0=-419.2715306\MP4SDQ=-419.2942417\CCSD=-419.2937894\CCSD(T)=-419.348
 Normal termination of Gaussian 16 at Tue Aug 19 16:15:50 2025.
