 Gaussian 16, Revision A.03,
 Gaussian 16:  ES64L-G16RevA.03 25-Dec-2016

 --------------------------
 # freq 6-311++g(d,p) m062x
 --------------------------

 -------------------
 Title Card Required
 -------------------
 Symbolic Z-matrix:
 Charge =  0 Multiplicity = 2

                         Standard orientation:
 ---------------------------------------------------------------------
 Center     Atomic      Atomic             Coordinates (Angstroms)
 Number     Number       Type             X           Y           Z
 ---------------------------------------------------------------------
      1          8           0        2.641054    1.757555   -0.248172
      2          1           0        1.826540    2.232561   -0.017056
      3          6           0       -3.192809    1.028835    0.403135
      4          1           0       -4.073412    1.574731    0.649909
      5          6           0       -2.203130    0.413796    0.125425
      6          6           0       -1.034257   -0.375044   -0.228361
      7          8           0       -1.078296   -1.477157   -0.693907
      8          8           0        0.096500    0.297436    0.036921
      9          6           0        1.317046   -0.369682   -0.282153
     10          6           0        1.773411   -1.292887    0.815176
     11          1           0        2.093302    0.541553   -0.373105
     12          1           0        1.252769   -0.826468   -1.270185
     13          1           0        2.755317   -1.699821    0.570839
     14          1           0        1.841441   -0.753520    1.760654
     15          1           0        1.068411   -2.121807    0.920858
 ---------------------------------------------------------------------

 SCF Done:  E(UM062X) =  -420.199145949     A.U. after   20 cycles

 The electronic state is 2-A.
 Alpha  occ. eigenvalues --  -19.70075 -19.65826 -19.64629 -10.72081 -10.63160
 Alpha  occ. eigenvalues --  -10.58052 -10.57599 -10.55089  -1.27348  -1.18089
 Alpha  occ. eigenvalues --   -1.12747  -0.91820  -0.88195  -0.79547  -0.71930
 Alpha  occ. eigenvalues --   -0.66342  -0.62339  -0.60617  -0.58482  -0.57613
 Alpha  occ. eigenvalues --   -0.53546  -0.50923  -0.50026  -0.47871  -0.45848
 Alpha  occ. eigenvalues --   -0.41513  -0.41016  -0.40697  -0.38208  -0.37356
 Alpha  occ. eigenvalues --   -0.35508
 Alpha virt. eigenvalues --   -0.02709  -0.00519   0.00561   0.01448   0.01837
 Alpha virt. eigenvalues --    0.03182   0.03342   0.04629   0.05969   0.06002
 Alpha virt. eigenvalues --    0.06551   0.07362   0.07979   0.09390   0.10195

  Beta  occ. eigenvalues --  -19.70067 -19.64625 -19.64568 -10.72064 -10.62740
  Beta  occ. eigenvalues --  -10.58051 -10.57599 -10.55093  -1.27241  -1.17982
  Beta  occ. eigenvalues --   -1.07865  -0.91287  -0.87727  -0.79296  -0.70940
  Beta  occ. eigenvalues --   -0.65900  -0.62010  -0.59781  -0.57804  -0.55241
  Beta  occ. eigenvalues --   -0.51588  -0.50541  -0.48005  -0.46596  -0.43085
  Beta  occ. eigenvalues --   -0.40680  -0.40006  -0.38573  -0.38194  -0.37317
  Beta virt. eigenvalues --   -0.11180  -0.02663  -0.00406   0.00616   0.01676
  Beta virt. eigenvalues --    0.01959   0.03231   0.03383   0.04824   0.06027
  Beta virt. eigenvalues --    0.06083   0.06680   0.07482   0.08028   0.09550

 Mulliken charges and spin densities:
               1          2
     1  O   -0.353850   0.668223
     2  H    0.256133  -0.013810
     3  C   -0.560381   0.000473
     4  H    0.188435  -0.000009
     5  C    1.111936   0.003821
     6  C   -0.720374   0.006287
     7  O   -0.200686   0.001112
     8  O    0.002198  -0.010127
     9  C   -0.479612   0.369754
    10  C   -0.340820  -0.008267
    11  H    0.307019  -0.039500
    12  H    0.229706  -0.003381
    13  H    0.182195   0.000374
    14  H    0.185527   0.003712
    15  H    0.192574   0.021337
 Sum of Mulliken charges =  -0.00000   1.00000

 Dipole moment (field-independent basis, Debye):
    X=             -1.5462    Y=              0.7007    Z=              1.2451  Tot=              2.1052
 Quadrupole moment (field-independent basis, Debye-Ang):
   XX=            -46.2608   YY=            -48.3091   ZZ=            -48.1332
   XY=            -12.4253   XZ=             -1.7832   YZ=             -0.3096

  Exact polarizability:  95.363   0.251  84.975  -4.615   3.298  51.426
 Approx polarizability:  96.733  -5.819  96.347  -6.896   9.921  60.768

 ******    1 imaginary frequencies (negative Signs) ******

                      1                      2                      3
                      A                      A                      A
 Frequencies --  -1271.9764                61.0589                73.6321
 Red. masses --      1.1593                 7.0871                 5.3445
 Frc consts  --      1.1051                 0.0156                 0.0171
 IR Inten    --   1934.0987                 4.4969                 1.3949

                      4                      5                      6
                      A                      A                      A
 Frequencies --     98.3828               125.8847               168.4964
 Red. masses --      4.5879                 2.8260                 2.6298
 Frc consts  --      0.0262                 0.0264                 0.0440
 IR Inten    --      1.2925                 4.5956                 9.2440

                      7                      8                      9
                      A                      A                      A
 Frequencies --    204.4519               218.1362               270.4732
 Red. masses --      1.1153                 1.2987                 4.3928
 Frc consts  --      0.0275                 0.0364                 0.1893
 IR Inten    --     99.2502                 3.0980                 3.6899

                     10                     11                     12
                      A                      A                      A
 Frequencies --    292.2272               420.9695               552.5884
 Red. masses --      4.2353                 3.6068                 4.7334
 Frc consts  --      0.2131                 0.3766                 0.8516
 IR Inten    --      8.0989                 4.6397                 4.2706

                     13                     14                     15
                      A                      A                      A
 Frequencies --    601.8477               693.0055               743.9036
 Red. masses --      6.1931                 2.3982                 1.3172
 Frc consts  --      1.3217                 0.6786                 0.4295
 IR Inten    --     16.2001                 8.2763                38.3965

                     16                     17                     18
                      A                      A                      A
 Frequencies --    773.9394               781.7658               818.2595
 Red. masses --      1.7682                 3.2139                 1.1118
 Frc consts  --      0.6240                 1.1573                 0.4386
 IR Inten    --      8.6062                55.4236                53.0820

                     19                     20                     21
                      A                      A                      A
 Frequencies --    885.9499               899.5308               955.8344
 Red. masses --      1.4407                 2.9428                 3.9461
 Frc consts  --      0.6663                 1.4030                 2.1242
 IR Inten    --    640.4874                12.1600                15.5011

                     22                     23                     24
                      A                      A                      A
 Frequencies --   1101.9449              1126.8476              1172.1398
 Red. masses --      3.2168                 2.1138                 1.6290
 Frc consts  --      2.3014                 1.5814                 1.3187
 IR Inten    --     36.2396                60.5768                 1.6679

                     25                     26                     27
                      A                      A                      A
 Frequencies --   1278.7119              1291.4296              1369.4692
 Red. masses --      7.1618                 1.1410                 1.2149
 Frc consts  --      6.8995                 1.1212                 1.3424
 IR Inten    --    664.5589                42.2349                 0.8248

                     28                     29                     30
                      A                      A                      A
 Frequencies --   1412.1907              1482.9778              1488.1160
 Red. masses --      1.3290                 1.0467                 1.0392
 Frc consts  --      1.5616                 1.3563                 1.3559
 IR Inten    --     22.0098                 5.3414                 4.9976

                     31                     32                     33
                      A                      A                      A
 Frequencies --   1533.4980              1847.5083              2269.7062
 Red. masses --      1.1045                12.5082                 5.7442
 Frc consts  --      1.5303                25.1547                17.4348
 IR Inten    --     26.1028               332.5186                80.7148

                     34                     35                     36
                      A                      A                      A
 Frequencies --   3066.3057              3132.5964              3144.9563
 Red. masses --      1.0359                 1.0870                 1.0998
 Frc consts  --      5.7386                 6.2849                 6.4088
 IR Inten    --      2.4863                 5.5897                 2.8115

                     37                     38                     39
                      A                      A                      A
 Frequencies --   3163.6873              3489.1051              3803.5418
 Red. masses --      1.1023                 1.1713                 1.0668
 Frc consts  --      6.5004                 8.4015                 9.0932
 IR Inten    --      8.0522                62.7266                45.4743

 - Thermochemistry -
 -------------------
 Temperature   298.150 Kelvin.  Pressure   1.00000 Atm.
 Atom     1 has atomic number  8 and mass  15.99491

 Molecular mass:   115.03952 amu.
 Principal axes and moments of inertia in atomic units:
                           1         2         3
     Eigenvalues --   595.827561597.659372002.04027
           X            0.99929  -0.03746   0.00279
           Y            0.03751   0.99907  -0.02147
           Z           -0.00199   0.02156   0.99977
 This molecule is an asymmetric top.
 Rotational symmetry number  1.
 Warning -- assumption of classical behavior for rotation
           may cause significant error
 Rotational temperatures (Kelvin)      0.14537     0.05421     0.04326
 Rotational constants (GHZ):           3.02897     1.12962     0.90145
    1 imaginary frequencies ignored.
 Zero-point vibrational energy     280016.3 (Joules/Mol)
                                   66.92550 (Kcal/Mol)
 Warning -- explicit consideration of  12 degrees of freedom as
           vibrations may cause significant error
 Vibrational temperatures:     87.85   105.94   141.55   181.12   242.43
          (Kelvin)            294.16   313.85   389.15   420.45   605.68
                              795.05   865.92   997.08  1070.31  1113.53
                             1124.79  1177.29  1274.68  1294.22  1375.23
                             1585.45  1621.28  1686.45  1839.78  1858.08
                             1970.36  2031.83  2133.67  2141.07  2206.36
                             2658.15  3265.60  4411.73  4507.11  4524.89
                             4551.84  5020.04  5472.45

 Zero-point correction=                           0.106653 (Hartree/Particle)
 Thermal correction to Energy=                    0.116462
 Thermal correction to Enthalpy=                  0.117406
 Thermal correction to Gibbs Free Energy=         0.070424
 Sum of electronic and zero-point Energies=           -420.092493
 Sum of electronic and thermal Energies=              -420.082684
 Sum of electronic and thermal Enthalpies=            -420.081740
 Sum of electronic and thermal Free Energies=         -420.128722

                     E (Thermal)             CV                S
                      KCal/Mol        Cal/Mol-Kelvin    Cal/Mol-Kelvin
 Total                   73.081             32.885             98.881
 Electronic               0.000              0.000              1.377
 Translational            0.889              2.981             40.136
 Rotational               0.889              2.981             29.034
 Vibrational             71.303             26.923             28.333
 Vibration     1          0.597              1.973              4.423
 Vibration     2          0.599              1.966              4.054
 Vibration     3          0.604              1.950              3.486
 Vibration     4          0.611              1.927              3.008
 Vibration     5          0.625              1.881              2.452
 Vibration     6          0.640              1.834              2.093
 Vibration     7          0.646              1.813              1.975
 Vibration     8          0.674              1.728              1.593
 Vibration     9          0.688              1.688              1.461
 Vibration    10          0.783              1.425              0.889
 Vibration    11          0.908              1.134              0.539
 Vibration    12          0.960              1.028              0.446

 1\1\GINC-AJ\Freq\UM062X\6-311++G(d,p)\C5H7O3(2)\AAYUSH\16-Aug-2025\0\\
 # freq 6-311++g(d,p) m062x\\Title Card Required\\0,2\O,2.699585,1.7483
 19,-0.228876\H,1.885103,2.22338,0.00224\C,-3.134327,1.019992,0.422431\
 H,-4.014893,1.565947,0.669205\C,-2.144689,0.404886,0.144721\C,-0.97586
 9,-0.384033,-0.209065\O,-1.019982,-1.486143,-0.674611\O,0.154933,0.288
 371,0.056217\C,1.375434,-0.378829,-0.262857\C,1.831737,-1.302064,0.834
 472\H,2.151751,0.532354,-0.353809\H,1.311126,-0.83561,-1.250889\H,2.81
 3616,-1.709064,0.590135\H,1.899803,-0.762702,1.77995\H,1.126681,-2.130

 Normal termination of Gaussian 16 at Sat Aug 16 15:01:41 2025.
