 Gaussian 16, Revision A.03,
 Gaussian 16:  ES64L-G16RevA.03 25-Dec-2016

 --------------------------
 # freq 6-311++g(d,p) m062x
 --------------------------

 -------------------
 Title Card Required
 -------------------
 Symbolic Z-matrix:
 Charge =  0 Multiplicity = 2

                         Standard orientation:
 ---------------------------------------------------------------------
 Center     Atomic      Atomic             Coordinates (Angstroms)
 Number     Number       Type             X           Y           Z
 ---------------------------------------------------------------------
      1          8           0        2.639062    1.752253   -0.248203
      2          1           0        1.829163    2.232726   -0.016998
      3          6           0       -3.192855    1.028718    0.403284
      4          1           0       -4.073375    1.574777    0.650179
      5          6           0       -2.203247    0.413623    0.125444
      6          6           0       -1.035020   -0.375382   -0.228712
      7          8           0       -1.078665   -1.477327   -0.694243
      8          8           0        0.097078    0.296704    0.036999
      9          6           0        1.315236   -0.370407   -0.281223
     10          6           0        1.773712   -1.292698    0.814602
     11          1           0        2.115329    0.590685   -0.365508
     12          1           0        1.259808   -0.817382   -1.274093
     13          1           0        2.754956   -1.700807    0.570330
     14          1           0        1.840625   -0.754972    1.761027
     15          1           0        1.066737   -2.121196    0.918275
 ---------------------------------------------------------------------

 SCF Done:  E(UM062X) =  -420.199975889     A.U. after   19 cycles

 The electronic state is 2-A.
 Alpha  occ. eigenvalues --  -19.70363 -19.64847 -19.64768 -10.72308 -10.63750
 Alpha  occ. eigenvalues --  -10.58193 -10.57729 -10.55411  -1.27619  -1.18342
 Alpha  occ. eigenvalues --   -1.12076  -0.92005  -0.88360  -0.79808  -0.71973
 Alpha  occ. eigenvalues --   -0.66644  -0.62425  -0.60760  -0.58642  -0.57823
 Alpha  occ. eigenvalues --   -0.53016  -0.51218  -0.49926  -0.48143  -0.46066
 Alpha  occ. eigenvalues --   -0.41269  -0.40940  -0.40570  -0.38343  -0.37507
 Alpha  occ. eigenvalues --   -0.34324
 Alpha virt. eigenvalues --   -0.02884  -0.00517   0.00512   0.01486   0.01801
 Alpha virt. eigenvalues --    0.03101   0.03261   0.04603   0.05912   0.05975
 Alpha virt. eigenvalues --    0.06526   0.07331   0.07896   0.09323   0.10149

  Beta  occ. eigenvalues --  -19.70347 -19.64842 -19.63655 -10.72285 -10.63240
  Beta  occ. eigenvalues --  -10.58192 -10.57729 -10.55416  -1.27478  -1.18214
  Beta  occ. eigenvalues --   -1.07886  -0.91391  -0.87821  -0.79499  -0.70910
  Beta  occ. eigenvalues --   -0.66071  -0.62114  -0.59946  -0.57991  -0.55243
  Beta  occ. eigenvalues --   -0.51496  -0.50661  -0.48176  -0.46806  -0.43321
  Beta  occ. eigenvalues --   -0.40882  -0.40251  -0.38336  -0.38128  -0.37462
  Beta virt. eigenvalues --   -0.10935  -0.02823  -0.00420   0.00569   0.01685
  Beta virt. eigenvalues --    0.01954   0.03160   0.03309   0.04810   0.05973
  Beta virt. eigenvalues --    0.06048   0.06678   0.07448   0.07946   0.09472

 Mulliken charges and spin densities:
               1          2
     1  O   -0.390159   0.572046
     2  H    0.255356  -0.010404
     3  C   -0.557758   0.000748
     4  H    0.189189   0.000010
     5  C    1.113869   0.003559
     6  C   -0.721621   0.007973
     7  O   -0.199698   0.001255
     8  O    0.007267  -0.014256
     9  C   -0.479358   0.470638
    10  C   -0.338515  -0.014066
    11  H    0.319838  -0.044901
    12  H    0.233586  -0.005987
    13  H    0.184285   0.000837
    14  H    0.189437   0.005007
    15  H    0.194282   0.027541
 Sum of Mulliken charges =  -0.00000   1.00000

 Dipole moment (field-independent basis, Debye):
    X=             -1.7749    Y=              0.3999    Z=              1.2736  Tot=              2.2209
 Quadrupole moment (field-independent basis, Debye-Ang):
   XX=            -46.8068   YY=            -48.7338   ZZ=            -48.0492
   XY=            -13.2821   XZ=             -1.7061   YZ=             -0.2832

  Exact polarizability:  95.139  -0.417  84.207  -4.559   3.301  51.494
 Approx polarizability:  97.213  -5.426  97.377  -6.950   9.795  60.900

 ******    1 imaginary frequencies (negative Signs) ******

                      1                      2                      3
                      A                      A                      A
 Frequencies --  -1700.6927                64.4140                81.5873
 Red. masses --      1.0815                 6.6311                 4.7008
 Frc consts  --      1.8430                 0.0162                 0.0184
 IR Inten    --   1427.9556                 4.5865                 0.7029

                      4                      5                      6
                      A                      A                      A
 Frequencies --    110.5182               149.0355               181.0227
 Red. masses --      4.8971                 3.2512                 2.1689
 Frc consts  --      0.0352                 0.0425                 0.0419
 IR Inten    --      1.1553                 5.4307                 7.3697

                      7                      8                      9
                      A                      A                      A
 Frequencies --    207.3804               215.4170               271.5503
 Red. masses --      1.0956                 1.4364                 4.6243
 Frc consts  --      0.0278                 0.0393                 0.2009
 IR Inten    --     87.2175                13.3181                 3.1474

                     10                     11                     12
                      A                      A                      A
 Frequencies --    287.7961               423.8663               541.6232
 Red. masses --      4.7090                 3.5875                 5.2607
 Frc consts  --      0.2298                 0.3798                 0.9093
 IR Inten    --      7.5549                 5.4679                 5.5630

                     13                     14                     15
                      A                      A                      A
 Frequencies --    596.0798               643.2982               744.5991
 Red. masses --      4.9285                 3.8092                 1.3146
 Frc consts  --      1.0318                 0.9288                 0.4294
 IR Inten    --     20.2286                 5.5648                39.3133

                     16                     17                     18
                      A                      A                      A
 Frequencies --    773.9212               780.8487               821.0432
 Red. masses --      2.1481                 2.3871                 1.2332
 Frc consts  --      0.7581                 0.8576                 0.4898
 IR Inten    --      3.4406                61.2870               132.3654

                     19                     20                     21
                      A                      A                      A
 Frequencies --    835.4168               899.7829               956.4626
 Red. masses --      1.1831                 2.6025                 3.7932
 Frc consts  --      0.4865                 1.2414                 2.0445
 IR Inten    --    115.6414                23.3060                 4.9824

                     22                     23                     24
                      A                      A                      A
 Frequencies --   1096.4949              1122.5549              1156.4581
 Red. masses --      2.8408                 2.1298                 1.7049
 Frc consts  --      2.0123                 1.5813                 1.3434
 IR Inten    --     32.7619               119.2842                12.8359

                     25                     26                     27
                      A                      A                      A
 Frequencies --   1248.6249              1274.0973              1368.9746
 Red. masses --      1.2071                 7.5197                 1.2260
 Frc consts  --      1.1088                 7.1921                 1.3537
 IR Inten    --     86.7386               698.5323                 3.1119

                     28                     29                     30
                      A                      A                      A
 Frequencies --   1410.3760              1482.1713              1484.7915
 Red. masses --      1.3241                 1.0478                 1.0390
 Frc consts  --      1.5518                 1.3562                 1.3495
 IR Inten    --     19.0358                 3.5304                 7.2935

                     31                     32                     33
                      A                      A                      A
 Frequencies --   1534.7126              1847.1246              2269.6704
 Red. masses --      1.0684                12.6567                 5.7432
 Frc consts  --      1.4827                25.4426                17.4313
 IR Inten    --     21.0624               338.8746                82.9302

                     34                     35                     36
                      A                      A                      A
 Frequencies --   3062.2296              3134.4308              3142.2795
 Red. masses --      1.0372                 1.0889                 1.0963
 Frc consts  --      5.7305                 6.3028                 6.3780
 IR Inten    --      1.4527                 5.6453                 3.6294

                     37                     38                     39
                      A                      A                      A
 Frequencies --   3165.4200              3488.7781              3816.9605
 Red. masses --      1.1024                 1.1714                 1.0667
 Frc consts  --      6.5078                 8.4004                 9.1563
 IR Inten    --      7.0287                62.9730                49.9033

 - Thermochemistry -
 -------------------
 Temperature   298.150 Kelvin.  Pressure   1.00000 Atm.
 Atom     1 has atomic number  8 and mass  15.99491

 Molecular mass:   115.03952 amu.
 Principal axes and moments of inertia in atomic units:
                           1         2         3
     Eigenvalues --   594.944191597.382882000.92825
           X            0.99931  -0.03697   0.00276
           Y            0.03703   0.99908  -0.02171
           Z           -0.00195   0.02180   0.99976
 This molecule is an asymmetric top.
 Rotational symmetry number  1.
 Warning -- assumption of classical behavior for rotation
           may cause significant error
 Rotational temperatures (Kelvin)      0.14558     0.05422     0.04329
 Rotational constants (GHZ):           3.03346     1.12981     0.90195
    1 imaginary frequencies ignored.
 Zero-point vibrational energy     279279.1 (Joules/Mol)
                                   66.74930 (Kcal/Mol)
 Warning -- explicit consideration of  12 degrees of freedom as
           vibrations may cause significant error
 Vibrational temperatures:     92.68   117.39   159.01   214.43   260.45
          (Kelvin)            298.37   309.94   390.70   414.07   609.85
                              779.27   857.63   925.56  1071.31  1113.50
                             1123.47  1181.30  1201.98  1294.59  1376.14
                             1577.61  1615.11  1663.89  1796.49  1833.14
                             1969.65  2029.22  2132.51  2136.28  2208.11
                             2657.60  3265.55  4405.87  4509.75  4521.04
                             4554.33  5019.57  5491.75

 Zero-point correction=                           0.106372 (Hartree/Particle)
 Thermal correction to Energy=                    0.116122
 Thermal correction to Enthalpy=                  0.117066
 Thermal correction to Gibbs Free Energy=         0.070487
 Sum of electronic and zero-point Energies=           -420.093604
 Sum of electronic and thermal Energies=              -420.083854
 Sum of electronic and thermal Enthalpies=            -420.082909
 Sum of electronic and thermal Free Energies=         -420.129489

                     E (Thermal)             CV                S
                      KCal/Mol        Cal/Mol-Kelvin    Cal/Mol-Kelvin
 Total                   72.868             33.080             98.035
 Electronic               0.000              0.000              1.377
 Translational            0.889              2.981             40.136
 Rotational               0.889              2.981             29.032
 Vibrational             71.090             27.119             27.490
 Vibration     1          0.597              1.971              4.317
 Vibration     2          0.600              1.962              3.852
 Vibration     3          0.606              1.941              3.260
 Vibration     4          0.618              1.904              2.685
 Vibration     5          0.630              1.866              2.318
 Vibration     6          0.641              1.829              2.067
 Vibration     7          0.645              1.818              1.997
 Vibration     8          0.675              1.726              1.586
 Vibration     9          0.685              1.696              1.487
 Vibration    10          0.786              1.418              0.879
 Vibration    11          0.897              1.158              0.562
 Vibration    12          0.954              1.040              0.456

 1\1\GINC-AJ\Freq\UM062X\6-311++G(d,p)\C5H7O3(2)\AAYUSH\23-Jun-2025\0\\
 # freq 6-311++g(d,p) m062x\\Title Card Required\\0,2\O,2.639062,1.7522
 53,-0.248203\H,1.829163,2.232726,-0.016998\C,-3.192855,1.028719,0.4032
 84\H,-4.073375,1.574778,0.650179\C,-2.203247,0.413623,0.125444\C,-1.03
 502,-0.375382,-0.228712\O,-1.078665,-1.477327,-0.694243\O,0.097078,0.2
 96704,0.036999\C,1.315236,-0.370407,-0.281223\C,1.773712,-1.292698,0.8
 14602\H,2.115329,0.590685,-0.365508\H,1.259808,-0.817382,-1.274093\H,2
 .754956,-1.700807,0.57033\H,1.840625,-0.754972,1.761027\H,1.066737,-2.

 Normal termination of Gaussian 16 at Mon Jun 23 01:40:07 2025.
