 Gaussian 16, Revision A.03,
 Gaussian 16:  ES64L-G16RevA.03 25-Dec-2016

 -------------------
 # freq 6-31+g m062x
 -------------------

 -------------------
 Title Card Required
 -------------------
 Symbolic Z-matrix:
 Charge =  0 Multiplicity = 2

                         Standard orientation:
 ---------------------------------------------------------------------
 Center     Atomic      Atomic             Coordinates (Angstroms)
 Number     Number       Type             X           Y           Z
 ---------------------------------------------------------------------
      1          8           0        2.636779    1.743371   -0.248051
      2          1           0        1.835470    2.233218   -0.016744
      3          6           0       -3.192628    1.029824    0.403516
      4          1           0       -4.072776    1.576498    0.650603
      5          6           0       -2.203415    0.414178    0.125466
      6          6           0       -1.036508   -0.375566   -0.229246
      7          8           0       -1.080103   -1.477222   -0.694801
      8          8           0        0.098074    0.295407    0.037097
      9          6           0        1.310452   -0.375060   -0.279926
     10          6           0        1.773263   -1.293628    0.813802
     11          1           0        2.168252    0.689268   -0.356312
     12          1           0        1.268491   -0.806071   -1.279909
     13          1           0        2.753382   -1.703963    0.569657
     14          1           0        1.838959   -0.758285    1.761723
     15          1           0        1.063238   -2.121595    0.915354
 ---------------------------------------------------------------------

 SCF Done:  E(UM062X) =  -419.952516828     A.U. after   19 cycles

 The electronic state is 2-A.
 Alpha  occ. eigenvalues --  -19.73297 -19.68457 -19.65698 -10.75087 -10.65412
 Alpha  occ. eigenvalues --  -10.60030 -10.59678 -10.56646  -1.30468  -1.21185
 Alpha  occ. eigenvalues --   -1.13120  -0.93011  -0.89359  -0.80809  -0.72656
 Alpha  occ. eigenvalues --   -0.67461  -0.62889  -0.61254  -0.59730  -0.58469
 Alpha  occ. eigenvalues --   -0.52775  -0.52078  -0.49400  -0.48479  -0.46278
 Alpha  occ. eigenvalues --   -0.41601  -0.41272  -0.39422  -0.38873  -0.38167
 Alpha  occ. eigenvalues --   -0.32609
 Alpha virt. eigenvalues --   -0.03396   0.01599   0.02115   0.03029   0.03168
 Alpha virt. eigenvalues --    0.04066   0.04754   0.06019   0.07480   0.07790
 Alpha virt. eigenvalues --    0.08018   0.08513   0.09726   0.10680   0.12083

  Beta  occ. eigenvalues --  -19.73270 -19.68449 -19.64844 -10.75049 -10.64712
  Beta  occ. eigenvalues --  -10.60030 -10.59678 -10.56663  -1.30294  -1.20990
  Beta  occ. eigenvalues --   -1.10209  -0.92296  -0.88646  -0.80404  -0.71568
  Beta  occ. eigenvalues --   -0.66560  -0.62641  -0.60326  -0.58711  -0.56521
  Beta  occ. eigenvalues --   -0.51701  -0.51178  -0.48535  -0.47102  -0.43578
  Beta  occ. eigenvalues --   -0.41211  -0.40622  -0.38856  -0.38144  -0.37707
  Beta virt. eigenvalues --   -0.10459  -0.03295   0.01614   0.02151   0.03122
  Beta virt. eigenvalues --    0.03252   0.04105   0.04818   0.06043   0.07504
  Beta virt. eigenvalues --    0.07811   0.08089   0.08555   0.09913   0.10714

 Mulliken charges and spin densities:
               1          2
     1  O   -0.607439   0.410431
     2  H    0.412416  -0.010339
     3  C    0.234762   0.010442
     4  H    0.351830  -0.000024
     5  C    0.137803   0.003654
     6  C   -0.465855  -0.001207
     7  O   -0.324628   0.004924
     8  O   -0.263782  -0.026658
     9  C   -0.258292   0.694815
    10  C   -0.516293  -0.045595
    11  H    0.332044  -0.072942
    12  H    0.251467  -0.018218
    13  H    0.231761   0.001811
    14  H    0.239983   0.008585
    15  H    0.244222   0.040323
 Sum of Mulliken charges =  -0.00000   1.00000

 Dipole moment (field-independent basis, Debye):
    X=             -2.4559    Y=             -0.0290    Z=              1.3285  Tot=              2.7924
 Quadrupole moment (field-independent basis, Debye-Ang):
   XX=            -49.2344   YY=            -50.0898   ZZ=            -48.3665
   XY=            -15.1811   XZ=             -1.4784   YZ=             -0.4590

  Exact polarizability:  90.206  -1.833  78.396  -4.555   4.401  47.600
 Approx polarizability:  90.662  -6.664  90.160  -7.185  11.663  51.901

 ******    3 imaginary frequencies (negative Signs) ******

                      1                      2                      3
                      A                      A                      A
 Frequencies --  -1332.5368              -462.1397              -113.8173
 Red. masses --      1.1181                 1.0480                 7.8950
 Frc consts  --      1.1698                 0.1319                 0.0603
 IR Inten    --    690.8492               123.5133                 2.7238

                      4                      5                      6
                      A                      A                      A
 Frequencies --     14.1236                45.3028               107.8819
 Red. masses --      4.8881                 3.8627                 2.9709
 Frc consts  --      0.0006                 0.0047                 0.0204
 IR Inten    --      4.9497                 7.4617                15.7624

                      7                      8                      9
                      A                      A                      A
 Frequencies --    141.2003               166.3116               257.2188
 Red. masses --      1.5659                 2.0544                 4.4313
 Frc consts  --      0.0184                 0.0335                 0.1727
 IR Inten    --      4.3788                 3.5485                 1.0521

                     10                     11                     12
                      A                      A                      A
 Frequencies --    268.0896               426.8170               532.5761
 Red. masses --      5.0191                 3.5253                 5.2063
 Frc consts  --      0.2125                 0.3784                 0.8700
 IR Inten    --     12.0958                 9.6727                 3.9023

                     13                     14                     15
                      A                      A                      A
 Frequencies --    602.1073               631.9187               687.4286
 Red. masses --      2.3483                 3.6646                 1.4507
 Frc consts  --      0.5016                 0.8622                 0.4039
 IR Inten    --     14.3843                 3.1328               167.8025

                     16                     17                     18
                      A                      A                      A
 Frequencies --    776.9803               818.0883               831.4092
 Red. masses --      3.2454                 1.4319                 1.1953
 Frc consts  --      1.1544                 0.5646                 0.4868
 IR Inten    --     70.1515                49.8352                 5.6712

                     19                     20                     21
                      A                      A                      A
 Frequencies --    875.9763               896.9492               968.5316
 Red. masses --      1.8627                 3.6414                 3.1065
 Frc consts  --      0.8421                 1.7261                 1.7169
 IR Inten    --     22.6620                17.0859                 5.8133

                     22                     23                     24
                      A                      A                      A
 Frequencies --   1078.3268              1141.8232              1160.9196
 Red. masses --      1.1969                 3.2811                 2.1654
 Frc consts  --      0.8200                 2.5204                 1.7195
 IR Inten    --     82.8801                 7.1460                48.3400

                     25                     26                     27
                      A                      A                      A
 Frequencies --   1219.1306              1312.3670              1395.7579
 Red. masses --      1.5378                 9.4431                 1.2975
 Frc consts  --      1.3466                 9.5825                 1.4893
 IR Inten    --     68.8814               770.1081                 4.9962

                     28                     29                     30
                      A                      A                      A
 Frequencies --   1445.6525              1511.8811              1515.1856
 Red. masses --      1.2385                 1.0418                 1.0512
 Frc consts  --      1.5251                 1.4031                 1.4219
 IR Inten    --     22.3824                14.1652                 7.3551

                     31                     32                     33
                      A                      A                      A
 Frequencies --   1680.6579              1911.9383              2333.0312
 Red. masses --      1.0479                12.8394                 5.5472
 Frc consts  --      1.7440                27.6531                17.7895
 IR Inten    --    109.8885               307.3707                86.3167

                     34                     35                     36
                      A                      A                      A
 Frequencies --   3083.7225              3169.7850              3179.5916
 Red. masses --      1.0395                 1.0922                 1.0870
 Frc consts  --      5.8242                 6.4656                 6.4749
 IR Inten    --      0.9878                 4.2122                 7.9116

                     37                     38                     39
                      A                      A                      A
 Frequencies --   3205.6986              3531.3004              3862.8962
 Red. masses --      1.1003                 1.1797                 1.0647
 Frc consts  --      6.6620                 8.6671                 9.3603
 IR Inten    --      7.5637                55.9598                32.6394

 - Thermochemistry -
 -------------------
 Temperature   298.150 Kelvin.  Pressure   1.00000 Atm.
 Atom     1 has atomic number  8 and mass  15.99491

 Molecular mass:   115.03952 amu.
 Principal axes and moments of inertia in atomic units:
                           1         2         3
     Eigenvalues --   594.028151597.148521999.80821
           X            0.99935  -0.03602   0.00268
           Y            0.03607   0.99911  -0.02207
           Z           -0.00188   0.02215   0.99975
 This molecule is an asymmetric top.
 Rotational symmetry number  1.
 Warning -- assumption of classical behavior for rotation
           may cause significant error
 Rotational temperatures (Kelvin)      0.14581     0.05423     0.04331
 Rotational constants (GHZ):           3.03814     1.12998     0.90246
    3 imaginary frequencies ignored.
 Zero-point vibrational energy     279857.8 (Joules/Mol)
                                   66.88763 (Kcal/Mol)
 Warning -- explicit consideration of  10 degrees of freedom as
           vibrations may cause significant error
 Vibrational temperatures:     20.32    65.18   155.22   203.16   239.29
          (Kelvin)            370.08   385.72   614.09   766.26   866.30
                              909.19   989.06  1117.90  1177.05  1196.21
                             1260.33  1290.51  1393.50  1551.47  1642.83
                             1670.30  1754.06  1888.20  2008.18  2079.97
                             2175.26  2180.01  2418.09  2750.85  3356.71
                             4436.79  4560.61  4574.72  4612.29  5080.75
                             5557.85

 Zero-point correction=                           0.106592 (Hartree/Particle)
 Thermal correction to Energy=                    0.115523
 Thermal correction to Enthalpy=                  0.116467
 Thermal correction to Gibbs Free Energy=         0.069592
 Sum of electronic and zero-point Energies=           -419.845925
 Sum of electronic and thermal Energies=              -419.836994
 Sum of electronic and thermal Enthalpies=            -419.836050
 Sum of electronic and thermal Free Energies=         -419.882925

                     E (Thermal)             CV                S
                      KCal/Mol        Cal/Mol-Kelvin    Cal/Mol-Kelvin
 Total                   72.492             29.458             98.657
 Electronic               0.000              0.000              1.377
 Translational            0.889              2.981             40.136
 Rotational               0.889              2.981             29.030
 Vibrational             70.714             23.497             28.114
 Vibration     1          0.593              1.986              7.325
 Vibration     2          0.595              1.979              5.013
 Vibration     3          0.606              1.943              3.307
 Vibration     4          0.615              1.912              2.788
 Vibration     5          0.624              1.884              2.477
 Vibration     6          0.667              1.751              1.681
 Vibration     7          0.673              1.732              1.608
 Vibration     8          0.788              1.412              0.869
 Vibration     9          0.888              1.178              0.581
 Vibration    10          0.960              1.027              0.446

 Normal termination of Gaussian 16 at Fri Jun 20 12:46:37 2025.
