 Gaussian 16, Revision A.03,
 Gaussian 16:  ES64L-G16RevA.03 25-Dec-2016

 -------------------
 # freq 6-31+g m062x
 -------------------

 -------------------
 Title Card Required
 -------------------
 Symbolic Z-matrix:
 Charge =  0 Multiplicity = 2

                         Standard orientation:
 ---------------------------------------------------------------------
 Center     Atomic      Atomic             Coordinates (Angstroms)
 Number     Number       Type             X           Y           Z
 ---------------------------------------------------------------------
      1          8           0        2.653641    1.778614   -0.245456
      2          1           0        1.823115    2.229160   -0.014436
      3          6           0       -3.191192    1.034461    0.403288
      4          1           0       -4.071195    1.581217    0.649905
      5          6           0       -2.202355    0.417964    0.125741
      6          6           0       -1.032990   -0.371957   -0.227206
      7          8           0       -1.080456   -1.474199   -0.693510
      8          8           0        0.096281    0.299425    0.036375
      9          6           0        1.315682   -0.382629   -0.287654
     10          6           0        1.768559   -1.299893    0.817816
     11          1           0        2.068742    0.434872   -0.418290
     12          1           0        1.213659   -0.876157   -1.254482
     13          1           0        2.751680   -1.704852    0.572842
     14          1           0        1.842824   -0.752591    1.758515
     15          1           0        1.069215   -2.130048    0.934771
 ---------------------------------------------------------------------

 SCF Done:  E(UM062X) =  -419.953435272     A.U. after   22 cycles

 The electronic state is 2-A.
 Alpha  occ. eigenvalues --  -19.71991 -19.70533 -19.67405 -10.74004 -10.62602
 Alpha  occ. eigenvalues --  -10.59381 -10.59059 -10.55171  -1.29178  -1.19882
 Alpha  occ. eigenvalues --   -1.15437  -0.92069  -0.88546  -0.79490  -0.72238
 Alpha  occ. eigenvalues --   -0.66052  -0.62344  -0.60264  -0.58565  -0.57314
 Alpha  occ. eigenvalues --   -0.54706  -0.50563  -0.50045  -0.47479  -0.45427
 Alpha  occ. eigenvalues --   -0.43139  -0.40924  -0.40202  -0.38241  -0.37788
 Alpha  occ. eigenvalues --   -0.37368
 Alpha virt. eigenvalues --   -0.02544   0.01793   0.02306   0.03385   0.03617
 Alpha virt. eigenvalues --    0.04236   0.04895   0.06334   0.07763   0.07974
 Alpha virt. eigenvalues --    0.08329   0.08748   0.09809   0.11168   0.12334

  Beta  occ. eigenvalues --  -19.71997 -19.69005 -19.67402 -10.73996 -10.62326
  Beta  occ. eigenvalues --  -10.59381 -10.59059 -10.55177  -1.29138  -1.19815
  Beta  occ. eigenvalues --   -1.09116  -0.91760  -0.88226  -0.79364  -0.71587
  Beta  occ. eigenvalues --   -0.65792  -0.62139  -0.59473  -0.57855  -0.55566
  Beta  occ. eigenvalues --   -0.52006  -0.50344  -0.47774  -0.46198  -0.42642
  Beta  occ. eigenvalues --   -0.40338  -0.39796  -0.39310  -0.38228  -0.37403
  Beta virt. eigenvalues --   -0.11059  -0.02522   0.01858   0.02419   0.03471
  Beta virt. eigenvalues --    0.03675   0.04383   0.04967   0.06374   0.07837
  Beta virt. eigenvalues --    0.08083   0.08400   0.08811   0.10078   0.11205

 Mulliken charges and spin densities:
               1          2
     1  O   -0.416639   0.857310
     2  H    0.411777  -0.029339
     3  C    0.239631   0.005675
     4  H    0.348823  -0.000014
     5  C    0.135876   0.001020
     6  C   -0.469824  -0.005135
     7  O   -0.330644   0.002238
     8  O   -0.268562  -0.006224
     9  C   -0.313065   0.233995
    10  C   -0.508512  -0.013131
    11  H    0.245049  -0.058050
    12  H    0.245553  -0.002277
    13  H    0.220367   0.000600
    14  H    0.226657   0.001844
    15  H    0.233513   0.011488
 Sum of Mulliken charges =  -0.00000   1.00000

 Dipole moment (field-independent basis, Debye):
    X=             -1.3614    Y=              1.3953    Z=              1.1944  Tot=              2.2862
 Quadrupole moment (field-independent basis, Debye-Ang):
   XX=            -46.4956   YY=            -47.9217   ZZ=            -48.7351
   XY=            -11.0474   XZ=             -1.8494   YZ=             -0.5691

  Exact polarizability:  88.305  -2.788  76.270  -4.411   4.964  47.304
 Approx polarizability:  88.220  -8.956  84.560  -6.873  12.316  51.455

 ******    5 imaginary frequencies (negative Signs) ******

                      1                      2                      3
                      A                      A                      A
 Frequencies --   -451.8085              -315.3745              -134.3504
 Red. masses --      1.0590                 2.0515                 5.5786
 Frc consts  --      0.1274                 0.1202                 0.0593
 IR Inten    --    139.8574                17.9011                 9.2892

                      4                      5                      6
                      A                      A                      A
 Frequencies --    -89.9728               -48.2179                34.4617
 Red. masses --      3.6186                 4.7236                 4.2534
 Frc consts  --      0.0173                 0.0065                 0.0030
 IR Inten    --     12.3322                14.1434                15.5624

                      7                      8                      9
                      A                      A                      A
 Frequencies --     96.9559               179.2020               247.6265
 Red. masses --      3.9630                 1.1957                 3.6745
 Frc consts  --      0.0219                 0.0226                 0.1328
 IR Inten    --     22.9917                 1.1250                 4.9422

                     10                     11                     12
                      A                      A                      A
 Frequencies --    283.0744               417.5665               518.1617
 Red. masses --      3.6676                 3.5352                 1.4034
 Frc consts  --      0.1732                 0.3632                 0.2220
 IR Inten    --     10.2210                 7.9257               180.6356

                     13                     14                     15
                      A                      A                      A
 Frequencies --    570.0546               630.4106               779.0587
 Red. masses --      4.1714                 4.6979                 2.1434
 Frc consts  --      0.7987                 1.1000                 0.7665
 IR Inten    --      0.2684                58.3772                69.2846

                     16                     17                     18
                      A                      A                      A
 Frequencies --    784.2665               814.4815               872.3994
 Red. masses --      1.6209                 1.4323                 1.9253
 Frc consts  --      0.5874                 0.5598                 0.8633
 IR Inten    --     10.8672                54.6468                19.4948

                     19                     20                     21
                      A                      A                      A
 Frequencies --    897.7436               958.5441              1133.6355
 Red. masses --      3.5862                 2.6283                 3.6979
 Frc consts  --      1.7029                 1.4228                 2.8000
 IR Inten    --     18.9103                14.0250                10.4457

                     22                     23                     24
                      A                      A                      A
 Frequencies --   1159.3559              1199.0527              1321.9778
 Red. masses --      2.1087                 1.8433                 2.2418
 Frc consts  --      1.6699                 1.5615                 2.3083
 IR Inten    --     38.7111                74.5766               352.9746

                     25                     26                     27
                      A                      A                      A
 Frequencies --   1342.5582              1410.3069              1453.1844
 Red. masses --      1.7749                 1.2837                 1.2462
 Frc consts  --      1.8849                 1.5043                 1.5505
 IR Inten    --    459.7879                 1.9843                18.3608

                     28                     29                     30
                      A                      A                      A
 Frequencies --   1509.7630              1524.4976              1534.1104
 Red. masses --      1.0971                 1.0427                 1.0613
 Frc consts  --      1.4734                 1.4278                 1.4716
 IR Inten    --     48.0056                30.2831                26.1936

                     31                     32                     33
                      A                      A                      A
 Frequencies --   1912.6513              2306.5247              2333.4422
 Red. masses --     12.5004                 1.1176                 5.2332
 Frc consts  --     26.9429                 3.5032                16.7886
 IR Inten    --    336.0959              1153.8801                93.1593

                     34                     35                     36
                      A                      A                      A
 Frequencies --   3103.4141              3163.7569              3189.1678
 Red. masses --      1.0344                 1.0845                 1.1010
 Frc consts  --      5.8696                 6.3957                 6.5975
 IR Inten    --      8.0001                 5.3855                 7.8447

                     37                     38                     39
                      A                      A                      A
 Frequencies --   3196.5743              3532.7030              3795.3353
 Red. masses --      1.1004                 1.1793                 1.0664
 Frc consts  --      6.6249                 8.6715                 9.0506
 IR Inten    --     13.1737                54.8159                15.1245

 - Thermochemistry -
 -------------------
 Temperature   298.150 Kelvin.  Pressure   1.00000 Atm.
 Atom     1 has atomic number  8 and mass  15.99491

 Molecular mass:   115.03952 amu.
 Principal axes and moments of inertia in atomic units:
                           1         2         3
     Eigenvalues --   601.675861599.649582009.35401
           X            0.99924  -0.03876   0.00281
           Y            0.03881   0.99903  -0.02098
           Z           -0.00199   0.02107   0.99978
 This molecule is an asymmetric top.
 Rotational symmetry number  1.
 Warning -- assumption of classical behavior for rotation
           may cause significant error
 Rotational temperatures (Kelvin)      0.14395     0.05415     0.04311
 Rotational constants (GHZ):           2.99952     1.12821     0.89817
    5 imaginary frequencies ignored.
 Zero-point vibrational energy     288336.0 (Joules/Mol)
                                   68.91397 (Kcal/Mol)
 Warning -- explicit consideration of   8 degrees of freedom as
           vibrations may cause significant error
 Vibrational temperatures:     49.58   139.50   257.83   356.28   407.28
          (Kelvin)            600.79   745.52   820.18   907.02  1120.89
                             1128.38  1171.86  1255.19  1291.65  1379.13
                             1631.05  1668.05  1725.17  1902.03  1931.64
                             2029.12  2090.81  2172.21  2193.41  2207.24
                             2751.88  3318.57  3357.30  4465.12  4551.94
                             4588.50  4599.16  5082.77  5460.64

 Zero-point correction=                           0.109821 (Hartree/Particle)
 Thermal correction to Energy=                    0.117118
 Thermal correction to Enthalpy=                  0.118062
 Thermal correction to Gibbs Free Energy=         0.075796
 Sum of electronic and zero-point Energies=           -419.843614
 Sum of electronic and thermal Energies=              -419.836317
 Sum of electronic and thermal Enthalpies=            -419.835373
 Sum of electronic and thermal Free Energies=         -419.877639

                     E (Thermal)             CV                S
                      KCal/Mol        Cal/Mol-Kelvin    Cal/Mol-Kelvin
 Total                   73.493             24.777             88.956
 Electronic               0.000              0.000              1.377
 Translational            0.889              2.981             40.136
 Rotational               0.889              2.981             29.049
 Vibrational             71.715             18.815             18.394
 Vibration     1          0.594              1.983              5.554
 Vibration     2          0.603              1.951              3.515
 Vibration     3          0.629              1.868              2.337
 Vibration     4          0.661              1.767              1.747
 Vibration     5          0.682              1.705              1.515
 Vibration     6          0.781              1.432              0.900
 Vibration     7          0.873              1.210              0.614
 Vibration     8          0.926              1.096              0.504

 Normal termination of Gaussian 16 at Fri Jun 20 12:32:23 2025.
