 Gaussian 16, Revision A.03,
 Gaussian 16:  ES64L-G16RevA.03 25-Dec-2016

 --------------------------
 # ccsd(t)/6-311++g(d,p) sp
 --------------------------

 -------------------
 Title Card Required
 -------------------
 Symbolic Z-matrix:
 Charge =  0 Multiplicity = 2

                         Standard orientation:
 ---------------------------------------------------------------------
 Center     Atomic      Atomic             Coordinates (Angstroms)
 Number     Number       Type             X           Y           Z
 ---------------------------------------------------------------------
      1          8           0        2.641054    1.757555   -0.248172
      2          1           0        1.826540    2.232561   -0.017056
      3          6           0       -3.192809    1.028835    0.403135
      4          1           0       -4.073412    1.574731    0.649909
      5          6           0       -2.203130    0.413796    0.125425
      6          6           0       -1.034257   -0.375044   -0.228361
      7          8           0       -1.078296   -1.477157   -0.693907
      8          8           0        0.096500    0.297436    0.036921
      9          6           0        1.317046   -0.369682   -0.282153
     10          6           0        1.773411   -1.292887    0.815176
     11          1           0        2.093302    0.541553   -0.373105
     12          1           0        1.252769   -0.826468   -1.270185
     13          1           0        2.755317   -1.699821    0.570839
     14          1           0        1.841441   -0.753520    1.760654
     15          1           0        1.068411   -2.121807    0.920858
 ---------------------------------------------------------------------

 SCF Done:  E(UHF) =  -417.966628807     A.U. after   33 cycles
 E2 =    -0.1279388700D+01 EUMP2 =    -0.41924601750733D+03
 CCSD(T)= -0.41934863727D+03

 The electronic state is 2-A.
 Alpha  occ. eigenvalues --  -20.63191 -20.62498 -20.57186 -11.42609 -11.31019
 Alpha  occ. eigenvalues --  -11.27465 -11.26699 -11.22911  -1.49395  -1.40030
 Alpha  occ. eigenvalues --   -1.39052  -1.08789  -1.04868  -0.93439  -0.85028
 Alpha  occ. eigenvalues --   -0.77662  -0.74369  -0.72686  -0.69982  -0.67860
 Alpha  occ. eigenvalues --   -0.66977  -0.60798  -0.59167  -0.56059  -0.55734
 Alpha  occ. eigenvalues --   -0.54083  -0.49800  -0.48597  -0.44509  -0.43400
 Alpha  occ. eigenvalues --   -0.43318
 Alpha virt. eigenvalues --    0.03461   0.04811   0.05933   0.06293   0.07760
 Alpha virt. eigenvalues --    0.08089   0.08864   0.10016   0.11059   0.11791
 Alpha virt. eigenvalues --    0.12088   0.13779   0.14583   0.15563   0.16450

  Beta  occ. eigenvalues --  -20.62547 -20.59482 -20.57184 -11.42575 -11.29882
  Beta  occ. eigenvalues --  -11.27462 -11.26703 -11.22974  -1.49305  -1.39291
  Beta  occ. eigenvalues --   -1.26421  -1.08379  -1.03713  -0.93202  -0.83182
  Beta  occ. eigenvalues --   -0.77217  -0.73565  -0.70475  -0.67375  -0.65986
  Beta  occ. eigenvalues --   -0.61528  -0.58930  -0.55716  -0.54466  -0.51517
  Beta  occ. eigenvalues --   -0.50350  -0.48872  -0.46890  -0.43393  -0.43333
  Beta virt. eigenvalues --    0.03430   0.04466   0.05276   0.06271   0.07120
  Beta virt. eigenvalues --    0.07810   0.08123   0.09133   0.10155   0.11332
  Beta virt. eigenvalues --    0.12046   0.12133   0.13833   0.14604   0.15647

 Mulliken charges and spin densities:
               1          2
     1  O   -0.280238   0.834880
     2  H    0.267744  -0.029392
     3  C   -0.617273   0.001844
     4  H    0.212354  -0.000122
     5  C    1.277253  -0.001872
     6  C   -0.743702   0.004204
     7  O   -0.279029   0.000277
     8  O   -0.066796  -0.025218
     9  C   -0.392346   0.386990
    10  C   -0.305518  -0.034186
    11  H    0.249336  -0.143933
    12  H    0.200428  -0.016600
    13  H    0.148169   0.001381
    14  H    0.155264   0.004977
    15  H    0.174355   0.016769
 Sum of Mulliken charges =  -0.00000   1.00000

 Dipole moment (field-independent basis, Debye):
    X=             -1.0865    Y=              1.8997    Z=              1.2419  Tot=              2.5163
 Quadrupole moment (field-independent basis, Debye-Ang):
   XX=            -44.5723   YY=            -47.4818   ZZ=            -48.4939
   XY=            -10.4493   XZ=             -2.2833   YZ=             -0.4685

 -0=-419.271902\MP4SDQ=-419.2946989\CCSD=-419.2943504\CCSD(T)=-419.3486
 Normal termination of Gaussian 16 at Fri Jul  4 15:44:05 2025.
