 Gaussian 16, Revision A.03,
 Gaussian 16:  ES64L-G16RevA.03 25-Dec-2016

 --------------------------
 # freq 6-311++g(d,p) m062x
 --------------------------

 -------------------
 Title Card Required
 -------------------
 Symbolic Z-matrix:
 Charge =  0 Multiplicity = 2

                         Standard orientation:
 ---------------------------------------------------------------------
 Center     Atomic      Atomic             Coordinates (Angstroms)
 Number     Number       Type             X           Y           Z
 ---------------------------------------------------------------------
      1          8           0        2.636084    1.739317   -0.247893
      2          1           0        1.839264    2.234001   -0.016531
      3          6           0       -3.192417    1.030759    0.403631
      4          1           0       -4.072312    1.577835    0.650812
      5          6           0       -2.203480    0.414720    0.125477
      6          6           0       -1.037291   -0.375513   -0.229491
      7          8           0       -1.081029   -1.477031   -0.695071
      8          8           0        0.098602    0.294764    0.037131
      9          6           0        1.307564   -0.378348   -0.279349
     10          6           0        1.772796   -1.294380    0.813436
     11          1           0        2.196712    0.737607   -0.352971
     12          1           0        1.272183   -0.801171   -1.282645
     13          1           0        2.752363   -1.705879    0.569352
     14          1           0        1.838064   -0.760111    1.762078
     15          1           0        1.061437   -2.122103    0.914331
 ---------------------------------------------------------------------

 SCF Done:  E(UM062X) =  -420.210463696     A.U. after   16 cycles

 The electronic state is 2-A.
 Alpha  occ. eigenvalues --  -19.70878 -19.65221 -19.62285 -10.72707 -10.64276
 Alpha  occ. eigenvalues --  -10.58435 -10.57951 -10.55936  -1.28088  -1.18783
 Alpha  occ. eigenvalues --   -1.11627  -0.92265  -0.88609  -0.80230  -0.71905
 Alpha  occ. eigenvalues --   -0.67170  -0.62557  -0.61080  -0.59136  -0.58332
 Alpha  occ. eigenvalues --   -0.52784  -0.51730  -0.49317  -0.48431  -0.46387
 Alpha  occ. eigenvalues --   -0.41580  -0.41322  -0.39050  -0.38575  -0.37768
 Alpha  occ. eigenvalues --   -0.31815
 Alpha virt. eigenvalues --   -0.03196  -0.00534   0.00416   0.01495   0.01816
 Alpha virt. eigenvalues --    0.02945   0.03132   0.04552   0.05814   0.05917
 Alpha virt. eigenvalues --    0.06495   0.07311   0.07758   0.09212   0.10088

  Beta  occ. eigenvalues --  -19.70843 -19.65213 -19.61666 -10.72666 -10.63516
  Beta  occ. eigenvalues --  -10.58434 -10.57952 -10.55948  -1.27852  -1.18586
  Beta  occ. eigenvalues --   -1.09265  -0.91455  -0.87826  -0.79767  -0.70617
  Beta  occ. eigenvalues --   -0.66213  -0.62277  -0.60209  -0.58297  -0.56285
  Beta  occ. eigenvalues --   -0.51760  -0.50812  -0.48406  -0.47163  -0.44352
  Beta  occ. eigenvalues --   -0.41238  -0.40967  -0.38558  -0.37909  -0.37695
  Beta virt. eigenvalues --   -0.09098  -0.03079  -0.00463   0.00485   0.01639
  Beta virt. eigenvalues --    0.01985   0.03038   0.03194   0.04780   0.05882
  Beta virt. eigenvalues --    0.05972   0.06676   0.07404   0.07798   0.09325

 Mulliken charges and spin densities:
               1          2
     1  O   -0.468145   0.277884
     2  H    0.256988  -0.001898
     3  C   -0.553947   0.001546
     4  H    0.190567   0.000070
     5  C    1.121179   0.001176
     6  C   -0.729023   0.011227
     7  O   -0.197224   0.001559
     8  O    0.015831  -0.029880
     9  C   -0.470084   0.763686
    10  C   -0.331810  -0.031910
    11  H    0.346051  -0.034385
    12  H    0.238133  -0.015189
    13  H    0.187704   0.002687
    14  H    0.196244   0.008287
    15  H    0.197537   0.045140
 Sum of Mulliken charges =  -0.00000   1.00000

 Dipole moment (field-independent basis, Debye):
    X=             -2.1699    Y=             -0.1101    Z=              1.3110  Tot=              2.5375
 Quadrupole moment (field-independent basis, Debye-Ang):
   XX=            -47.7968   YY=            -49.5523   ZZ=            -47.8714
   XY=            -14.8355   XZ=             -1.6088   YZ=             -0.2421

  Exact polarizability:  92.220  -5.194  77.982  -4.130   3.719  51.616
 Approx polarizability:  95.323  -8.885  92.485  -6.870   9.817  61.072

 ******    1 imaginary frequencies (negative Signs) ******

                      1                      2                      3
                      A                      A                      A
 Frequencies --   -604.0802                32.7164                78.9499
 Red. masses --      1.6478                 7.1959                 4.6486
 Frc consts  --      0.3543                 0.0045                 0.0171
 IR Inten    --    110.1416                 4.6194                 1.6056

                      4                      5                      6
                      A                      A                      A
 Frequencies --    109.4537               148.0866               180.5780
 Red. masses --      4.6318                 3.3410                 1.4938
 Frc consts  --      0.0327                 0.0432                 0.0287
 IR Inten    --      1.8888                 3.3883                 3.3955

                      7                      8                      9
                      A                      A                      A
 Frequencies --    205.1036               221.9547               271.7372
 Red. masses --      1.8870                 1.1346                 4.9245
 Frc consts  --      0.0468                 0.0329                 0.2142
 IR Inten    --     10.3302                86.3279                 1.3978

                     10                     11                     12
                      A                      A                      A
 Frequencies --    309.5871               427.3336               549.5754
 Red. masses --      5.1003                 3.6198                 5.0561
 Frc consts  --      0.2880                 0.3895                 0.8997
 IR Inten    --     15.8166                 5.1214                 1.3322

                     13                     14                     15
                      A                      A                      A
 Frequencies --    611.9897               700.8397               741.3625
 Red. masses --      6.9071                 1.2092                 1.2168
 Frc consts  --      1.5242                 0.3499                 0.3940
 IR Inten    --      7.8363                34.2342                80.4222

                     16                     17                     18
                      A                      A                      A
 Frequencies --    745.9211               773.5249               780.4681
 Red. masses --      1.3274                 3.1425                 1.7894
 Frc consts  --      0.4352                 1.1078                 0.6422
 IR Inten    --     20.3368                 0.9458                59.9852

                     19                     20                     21
                      A                      A                      A
 Frequencies --    857.7259               906.1178               951.5731
 Red. masses --      1.5713                 2.7422                 2.3113
 Frc consts  --      0.6811                 1.3265                 1.2331
 IR Inten    --     12.5969                15.6260                12.3093

                     22                     23                     24
                      A                      A                      A
 Frequencies --    982.5229              1100.6289              1134.4074
 Red. masses --      1.2468                 3.9148                 2.0120
 Frc consts  --      0.7091                 2.7941                 1.5255
 IR Inten    --     51.1551                63.9373                34.5628

                     25                     26                     27
                      A                      A                      A
 Frequencies --   1255.9680              1257.9363              1366.0473
 Red. masses --      2.6298                 3.0876                 1.2322
 Frc consts  --      2.4441                 2.8786                 1.3548
 IR Inten    --    564.1441               302.2124                 7.1038

                     28                     29                     30
                      A                      A                      A
 Frequencies --   1408.6115              1476.8398              1479.6658
 Red. masses --      1.3320                 1.0408                 1.0535
 Frc consts  --      1.5572                 1.3374                 1.3590
 IR Inten    --     18.1961                10.0985                 3.4507

                     31                     32                     33
                      A                      A                      A
 Frequencies --   1704.6707              1846.1547              2269.6027
 Red. masses --      1.0507                12.7093                 5.7421
 Frc consts  --      1.7990                25.5216                17.4269
 IR Inten    --     47.3393               331.4242                86.2204

                     34                     35                     36
                      A                      A                      A
 Frequencies --   3047.1150              3130.9033              3144.9140
 Red. masses --      1.0419                 1.0922                 1.0875
 Frc consts  --      5.6996                 6.3078                 6.3370
 IR Inten    --      0.3918                 3.0170                 6.9603

                     37                     38                     39
                      A                      A                      A
 Frequencies --   3167.5620              3488.2218              3859.4738
 Red. masses --      1.1018                 1.1715                 1.0656
 Frc consts  --      6.5135                 8.3985                 9.3516
 IR Inten    --      6.1594                63.4586                44.9881

 - Thermochemistry -
 -------------------
 Temperature   298.150 Kelvin.  Pressure   1.00000 Atm.
 Atom     1 has atomic number  8 and mass  15.99491

 Molecular mass:   115.03952 amu.
 Principal axes and moments of inertia in atomic units:
                           1         2         3
     Eigenvalues --   593.784391597.109921999.52957
           X            0.99936  -0.03554   0.00264
           Y            0.03559   0.99912  -0.02224
           Z           -0.00185   0.02232   0.99975
 This molecule is an asymmetric top.
 Rotational symmetry number  1.
 Warning -- assumption of classical behavior for rotation
           may cause significant error
 Rotational temperatures (Kelvin)      0.14587     0.05423     0.04332
 Rotational constants (GHZ):           3.03939     1.13000     0.90258
    1 imaginary frequencies ignored.
 Zero-point vibrational energy     279482.6 (Joules/Mol)
                                   66.79795 (Kcal/Mol)
 Warning -- explicit consideration of  12 degrees of freedom as
           vibrations may cause significant error
 Vibrational temperatures:     47.07   113.59   157.48   213.06   259.81
          (Kelvin)            295.10   319.34   390.97   445.43   614.84
                              790.72   880.52  1008.35  1066.66  1073.21
                             1112.93  1122.92  1234.08  1303.70  1369.10
                             1413.63  1583.56  1632.16  1807.06  1809.89
                             1965.44  2026.68  2124.84  2128.91  2452.64
                             2656.20  3265.45  4384.12  4504.67  4524.83
                             4557.42  5018.77  5552.92

 Zero-point correction=                           0.106449 (Hartree/Particle)
 Thermal correction to Energy=                    0.116235
 Thermal correction to Enthalpy=                  0.117179
 Thermal correction to Gibbs Free Energy=         0.070008
 Sum of electronic and zero-point Energies=           -420.104014
 Sum of electronic and thermal Energies=              -420.094229
 Sum of electronic and thermal Enthalpies=            -420.093285
 Sum of electronic and thermal Free Energies=         -420.140456

                     E (Thermal)             CV                S
                      KCal/Mol        Cal/Mol-Kelvin    Cal/Mol-Kelvin
 Total                   72.939             33.102             99.281
 Electronic               0.000              0.000              1.377
 Translational            0.889              2.981             40.136
 Rotational               0.889              2.981             29.029
 Vibrational             71.161             27.140             28.738
 Vibration     1          0.594              1.983              5.658
 Vibration     2          0.600              1.963              3.917
 Vibration     3          0.606              1.942              3.279
 Vibration     4          0.617              1.905              2.697
 Vibration     5          0.630              1.866              2.322
 Vibration     6          0.640              1.833              2.087
 Vibration     7          0.648              1.808              1.943
 Vibration     8          0.675              1.725              1.585
 Vibration     9          0.699              1.655              1.365
 Vibration    10          0.789              1.411              0.867
 Vibration    11          0.905              1.141              0.545
 Vibration    12          0.971              1.006              0.429

 1\1\GINC-AJ\Freq\UM062X\6-311++G(d,p)\C5H7O3(2)\AAYUSH\23-Jun-2025\0\\
 # freq 6-311++g(d,p) m062x\\Title Card Required\\0,2\O,2.636084,1.7393
 17,-0.247893\H,1.839264,2.234001,-0.016531\C,-3.192417,1.030759,0.4036
 31\H,-4.072312,1.577835,0.650812\C,-2.20348,0.41472,0.125477\C,-1.0372
 91,-0.375513,-0.229491\O,-1.081029,-1.477031,-0.695071\O,0.098602,0.29
 4764,0.037131\C,1.307564,-0.378348,-0.279349\C,1.772796,-1.29438,0.813
 436\H,2.196712,0.737607,-0.352971\H,1.272183,-0.801171,-1.282645\H,2.7
 52363,-1.705879,0.569352\H,1.838064,-0.760111,1.762078\H,1.061437,-2.1

 Normal termination of Gaussian 16 at Mon Jun 23 01:18:52 2025.
