 Gaussian 16, Revision A.03,
 Gaussian 16:  ES64L-G16RevA.03 25-Dec-2016

 --------------------------
 # ccsd(t)/6-311++g(d,p) sp
 --------------------------

 -------------------
 Title Card Required
 -------------------
 Symbolic Z-matrix:
 Charge =  0 Multiplicity = 2

                         Standard orientation:
 ---------------------------------------------------------------------
 Center     Atomic      Atomic             Coordinates (Angstroms)
 Number     Number       Type             X           Y           Z
 ---------------------------------------------------------------------
      1          6           0        2.593209   -0.161587   -1.138078
      2          1           0        3.485856   -0.407812   -1.664627
      3          6           0        1.591348    0.054802   -0.496421
      4          6           0        0.324948    0.617794   -0.013129
      5          8           0        0.249769    1.668512    0.557175
      6          8           0       -0.693452   -0.174445   -0.318999
      7          6           0       -1.985334    0.273087    0.136787
      8          6           0       -2.990445   -0.774294   -0.280593
      9          1           0       -1.942114    0.397129    1.220692
     10          1           0       -2.191201    1.248425   -0.309080
     11          1           0       -2.999924   -0.888329   -1.365215
     12          1           0       -2.748070   -1.737508    0.169504
     13          1           0       -3.988031   -0.476852    0.046833
     14          8           0        1.770903   -1.173677    1.152345
     15          1           0        2.563370   -0.756995    1.526335
 ---------------------------------------------------------------------

 SCF Done:  E(UHF) =  -417.983360340     A.U. after   36 cycles
 E2 =    -0.1256097790D+01 EUMP2 =    -0.41923945813036D+03
 CCSD(T)= -0.41935385064D+03

 The electronic state is 2-A.
 Alpha  occ. eigenvalues --  -20.62482 -20.61046 -20.55544 -11.41278 -11.29510
 Alpha  occ. eigenvalues --  -11.26899 -11.26083 -11.22710  -1.48076  -1.38274
 Alpha  occ. eigenvalues --   -1.37635  -1.07931  -1.04628  -0.92017  -0.83220
 Alpha  occ. eigenvalues --   -0.77237  -0.72760  -0.69918  -0.68763  -0.67280
 Alpha  occ. eigenvalues --   -0.65506  -0.59389  -0.58579  -0.55654  -0.54898
 Alpha  occ. eigenvalues --   -0.51904  -0.51384  -0.47618  -0.46181  -0.43041
 Alpha  occ. eigenvalues --   -0.42166
 Alpha virt. eigenvalues --    0.03689   0.04493   0.05920   0.06558   0.07100
 Alpha virt. eigenvalues --    0.08128   0.09956   0.10284   0.11097   0.12062
 Alpha virt. eigenvalues --    0.12918   0.13833   0.14753   0.15247   0.16762

  Beta  occ. eigenvalues --  -20.61054 -20.58583 -20.55935 -11.40951 -11.29511
  Beta  occ. eigenvalues --  -11.27737 -11.24972 -11.22710  -1.48233  -1.38279
  Beta  occ. eigenvalues --   -1.24190  -1.07911  -1.03909  -0.91029  -0.82932
  Beta  occ. eigenvalues --   -0.76963  -0.71884  -0.69584  -0.69094  -0.63782
  Beta  occ. eigenvalues --   -0.60107  -0.58790  -0.55706  -0.52697  -0.51952
  Beta  occ. eigenvalues --   -0.50057  -0.48450  -0.47158  -0.43781  -0.42316
  Beta virt. eigenvalues --    0.03757   0.04470   0.04866   0.06543   0.07087
  Beta virt. eigenvalues --    0.07977   0.08615   0.09915   0.10749   0.11739
  Beta virt. eigenvalues --    0.12641   0.13035   0.14047   0.15406   0.15840

 Mulliken charges and spin densities:
               1          2
     1  C   -0.923394   0.892187
     2  H    0.210201  -0.070419
     3  C    1.204662  -0.852910
     4  C   -0.413214   0.221396
     5  O   -0.289192  -0.081157
     6  O   -0.051027   0.001712
     7  C   -0.009438   0.000355
     8  C   -0.616728   0.001363
     9  H    0.179020  -0.000115
    10  H    0.178077   0.000160
    11  H    0.150420   0.000050
    12  H    0.157620  -0.000020
    13  H    0.138233  -0.000003
    14  O   -0.159185   0.921712
    15  H    0.243945  -0.034313
 Sum of Mulliken charges =  -0.00000   1.00000

 Dipole moment (field-independent basis, Debye):
    X=              0.4773    Y=             -0.9520    Z=             -0.6246  Tot=              1.2346
 Quadrupole moment (field-independent basis, Debye-Ang):
   XX=            -30.0178   YY=            -55.6371   ZZ=            -44.5057
   XY=             -2.0270   XZ=             -1.4617   YZ=             -1.7797

 MP3-0=-419.2805488\MP4SDQ=-419.2956549\CCSD=-419.3003775\CCSD(T)=-419.
 Normal termination of Gaussian 16 at Thu May  1 21:21:14 2025.
