 Gaussian 16, Revision A.03,
 Gaussian 16:  ES64L-G16RevA.03 25-Dec-2016

 --------------------------
 # ccsd(t)/6-311++g(d,p) sp
 --------------------------

 -------------------
 Title Card Required
 -------------------
 Symbolic Z-matrix:
 Charge =  0 Multiplicity = 2

                         Standard orientation:
 ---------------------------------------------------------------------
 Center     Atomic      Atomic             Coordinates (Angstroms)
 Number     Number       Type             X           Y           Z
 ---------------------------------------------------------------------
      1          6           0        2.596174   -0.126538   -1.144126
      2          1           0        3.492861   -0.364769   -1.667075
      3          6           0        1.585134    0.095842   -0.526598
      4          6           0        0.323965    0.621607    0.000829
      5          8           0        0.247542    1.650385    0.610475
      6          8           0       -0.693578   -0.165254   -0.323488
      7          6           0       -1.985368    0.267012    0.146215
      8          6           0       -2.990068   -0.767376   -0.303490
      9          1           0       -1.942832    0.357955    1.233409
     10          1           0       -2.191709    1.255540   -0.269516
     11          1           0       -2.999298   -0.848010   -1.391099
     12          1           0       -2.747377   -1.743941    0.116729
     13          1           0       -3.987847   -0.480701    0.032836
     14          8           0        1.774831   -1.224556    1.137783
     15          1           0        2.566829   -0.803951    1.509570
 ---------------------------------------------------------------------

 SCF Done:  E(UHF) =  -417.986267221     A.U. after   39 cycles
 E2 =    -0.1257292725D+01 EUMP2 =    -0.41924355994573D+03
 CCSD(T)= -0.41935473325D+03

 The electronic state is 2-A.
 Alpha  occ. eigenvalues --  -20.62711 -20.61056 -20.55577 -11.41314 -11.29510
 Alpha  occ. eigenvalues --  -11.26789 -11.25894 -11.22709  -1.48076  -1.38448
 Alpha  occ. eigenvalues --   -1.37656  -1.07868  -1.04565  -0.92013  -0.83216
 Alpha  occ. eigenvalues --   -0.77201  -0.72751  -0.69875  -0.68790  -0.67382
 Alpha  occ. eigenvalues --   -0.65792  -0.59451  -0.58619  -0.55661  -0.55090
 Alpha  occ. eigenvalues --   -0.51904  -0.51448  -0.47657  -0.46229  -0.42933
 Alpha  occ. eigenvalues --   -0.42158
 Alpha virt. eigenvalues --    0.03688   0.04491   0.05920   0.06559   0.07097
 Alpha virt. eigenvalues --    0.08133   0.09949   0.10132   0.11026   0.11998
 Alpha virt. eigenvalues --    0.12907   0.13800   0.14811   0.15240   0.16697

  Beta  occ. eigenvalues --  -20.61064 -20.58721 -20.55945 -11.41020 -11.29511
  Beta  occ. eigenvalues --  -11.27324 -11.25111 -11.22710  -1.48225  -1.38256
  Beta  occ. eigenvalues --   -1.23831  -1.07912  -1.03940  -0.91167  -0.83003
  Beta  occ. eigenvalues --   -0.76989  -0.71996  -0.69539  -0.69102  -0.63668
  Beta  occ. eigenvalues --   -0.60103  -0.58821  -0.55702  -0.52667  -0.51945
  Beta  occ. eigenvalues --   -0.50119  -0.48436  -0.47129  -0.43427  -0.42304
  Beta virt. eigenvalues --    0.03751   0.04470   0.04962   0.06544   0.07085
  Beta virt. eigenvalues --    0.08026   0.08740   0.09919   0.10729   0.11494
  Beta virt. eigenvalues --    0.12625   0.13019   0.14012   0.15383   0.15742

 Mulliken charges and spin densities:
               1          2
     1  C   -1.273335   0.741026
     2  H    0.204415  -0.060136
     3  C    1.527090  -0.747359
     4  C   -0.386330   0.225268
     5  O   -0.285953  -0.076227
     6  O   -0.046538   0.001415
     7  C    0.000131   0.000289
     8  C   -0.624831   0.001672
     9  H    0.178807  -0.000126
    10  H    0.177900   0.000095
    11  H    0.150453   0.000037
    12  H    0.157577  -0.000013
    13  H    0.138465  -0.000002
    14  O   -0.159493   0.949555
    15  H    0.241641  -0.035495
 Sum of Mulliken charges =  -0.00000   1.00000

 Dipole moment (field-independent basis, Debye):
    X=              0.4861    Y=             -0.9598    Z=             -0.5904  Tot=              1.2272
 Quadrupole moment (field-independent basis, Debye-Ang):
   XX=            -29.9236   YY=            -55.5131   ZZ=            -44.6670
   XY=             -2.0650   XZ=             -1.3843   YZ=             -2.1134

 \PMP3-0=-419.2815138\MP4SDQ=-419.2984464\CCSD=-419.3016905\CCSD(T)=-41
 Normal termination of Gaussian 16 at Thu Apr 24 14:31:37 2025.
