 Gaussian 16, Revision A.03,
 Gaussian 16:  ES64L-G16RevA.03 25-Dec-2016

 --------------------------
 # ccsd(t)/6-311++g(d,p) sp
 --------------------------

 -------------------
 Title Card Required
 -------------------
 Symbolic Z-matrix:
 Charge =  0 Multiplicity = 2

                         Standard orientation:
 ---------------------------------------------------------------------
 Center     Atomic      Atomic             Coordinates (Angstroms)
 Number     Number       Type             X           Y           Z
 ---------------------------------------------------------------------
      1          6           0        2.576134   -0.289231   -1.119950
      2          1           0        3.473080   -0.614483   -1.599258
      3          6           0        1.625577   -0.126233   -0.295034
      4          6           0        0.330283    0.604753   -0.081134
      5          8           0        0.257371    1.724210    0.337339
      6          8           0       -0.692860   -0.209389   -0.299246
      7          6           0       -1.985069    0.293575    0.097294
      8          6           0       -2.991969   -0.795642   -0.186545
      9          1           0       -1.938894    0.549813    1.157737
     10          1           0       -2.189451    1.206630   -0.465299
     11          1           0       -3.001534   -1.043635   -1.248586
     12          1           0       -2.751666   -1.695733    0.380173
     13          1           0       -3.989014   -0.457636    0.100721
     14          8           0        1.751768   -0.954222    1.165563
     15          1           0        2.537513   -0.553076    1.557490
 ---------------------------------------------------------------------

 SCF Done:  E(UHF) =  -417.989088240     A.U. after   27 cycles
 E2 =    -0.1266895359D+01 EUMP2 =    -0.41925598359962D+03
 CCSD(T)= -0.41937174963D+03

 The electronic state is 2-A.
 Alpha  occ. eigenvalues --  -20.61212 -20.59542 -20.55885 -11.41024 -11.31064
 Alpha  occ. eigenvalues --  -11.29590 -11.28605 -11.22759  -1.48254  -1.37919
 Alpha  occ. eigenvalues --   -1.35300  -1.08881  -1.04964  -0.92158  -0.83666
 Alpha  occ. eigenvalues --   -0.77795  -0.72797  -0.70084  -0.68841  -0.66739
 Alpha  occ. eigenvalues --   -0.61352  -0.59097  -0.58389  -0.55694  -0.52762
 Alpha  occ. eigenvalues --   -0.51945  -0.50926  -0.48015  -0.46493  -0.43914
 Alpha  occ. eigenvalues --   -0.41645
 Alpha virt. eigenvalues --    0.03656   0.04481   0.05992   0.06543   0.07078
 Alpha virt. eigenvalues --    0.08138   0.09935   0.10760   0.11185   0.12785
 Alpha virt. eigenvalues --    0.12913   0.13832   0.14608   0.15263   0.16424

  Beta  occ. eigenvalues --  -20.61217 -20.57609 -20.56115 -11.40697 -11.33176
  Beta  occ. eigenvalues --  -11.29594 -11.25413 -11.22759  -1.48329  -1.38291
  Beta  occ. eigenvalues --   -1.29639  -1.07305  -1.03459  -0.90274  -0.82600
  Beta  occ. eigenvalues --   -0.77046  -0.71304  -0.69966  -0.68934  -0.65204
  Beta  occ. eigenvalues --   -0.60351  -0.58440  -0.55811  -0.53245  -0.52016
  Beta  occ. eigenvalues --   -0.50299  -0.49663  -0.47774  -0.47005  -0.42046
  Beta virt. eigenvalues --    0.03780   0.04133   0.04499   0.06503   0.07039
  Beta virt. eigenvalues --    0.07309   0.08200   0.09858   0.10394   0.12265
  Beta virt. eigenvalues --    0.13053   0.13258   0.14079   0.15353   0.16601

 Mulliken charges and spin densities:
               1          2
     1  C    0.110280   1.629080
     2  H    0.250109  -0.105942
     3  C   -0.003012  -1.065626
     4  C   -0.166017   0.173553
     5  O   -0.301722  -0.043803
     6  O   -0.061762   0.003596
     7  C   -0.045830  -0.000699
     8  C   -0.579363  -0.000192
     9  H    0.182850   0.000098
    10  H    0.177998   0.000304
    11  H    0.150173   0.000087
    12  H    0.159423  -0.000157
    13  H    0.137489   0.000028
    14  O   -0.272795   0.424397
    15  H    0.262181  -0.014723
 Sum of Mulliken charges =  -0.00000   1.00000

 Dipole moment (field-independent basis, Debye):
    X=              0.4358    Y=             -0.6815    Z=             -1.2844  Tot=              1.5179
 Quadrupole moment (field-independent basis, Debye-Ang):
   XX=            -30.3559   YY=            -56.2346   ZZ=            -45.1757
   XY=             -1.5533   XZ=             -2.5519   YZ=              0.3267

 =-419.2983953\MP4SDQ=-419.3116706\CCSD=-419.3172255\CCSD(T)=-419.37174
 Normal termination of Gaussian 16 at Thu Apr 24 12:29:43 2025.
