 Gaussian 16, Revision A.03,
 Gaussian 16:  ES64L-G16RevA.03 25-Dec-2016

 --------------------------
 # ccsd(t)/6-311++g(d,p) sp
 --------------------------

 -------------------
 Title Card Required
 -------------------
 Symbolic Z-matrix:
 Charge =  0 Multiplicity = 2

                         Standard orientation:
 ---------------------------------------------------------------------
 Center     Atomic      Atomic             Coordinates (Angstroms)
 Number     Number       Type             X           Y           Z
 ---------------------------------------------------------------------
      1          6           0        2.591921   -0.177602   -1.135343
      2          1           0        3.482956   -0.428428   -1.662694
      3          6           0        1.594516    0.035148   -0.480139
      4          6           0        0.325248    0.616331   -0.020155
      5          8           0        0.250749    1.676364    0.532248
      6          8           0       -0.693343   -0.178630   -0.316904
      7          6           0       -1.985323    0.275772    0.132312
      8          6           0       -2.990600   -0.777311   -0.269922
      9          1           0       -1.941748    0.415145    1.214340
     10          1           0       -2.190976    1.244643   -0.327452
     11          1           0       -3.000178   -0.907010   -1.352771
     12          1           0       -2.748349   -1.733952    0.194070
     13          1           0       -3.988101   -0.475012    0.053280
     14          8           0        1.768942   -1.149664    1.158109
     15          1           0        2.561038   -0.733965    1.533089
 ---------------------------------------------------------------------

 SCF Done:  E(UHF) =  -417.981971089     A.U. after   34 cycles
 E2 =    -0.1255537357D+01 EUMP2 =    -0.41923750844653D+03
 CCSD(T)= -0.41935362478D+03

 The electronic state is 2-A.
 Alpha  occ. eigenvalues --  -20.62337 -20.61046 -20.55536 -11.41261 -11.29512
 Alpha  occ. eigenvalues --  -11.26991 -11.26242 -11.22711  -1.48083  -1.38151
 Alpha  occ. eigenvalues --   -1.37630  -1.07971  -1.04662  -0.92018  -0.83228
 Alpha  occ. eigenvalues --   -0.77264  -0.72768  -0.69934  -0.68754  -0.67224
 Alpha  occ. eigenvalues --   -0.65297  -0.59362  -0.58558  -0.55652  -0.54773
 Alpha  occ. eigenvalues --   -0.51907  -0.51356  -0.47613  -0.46164  -0.43105
 Alpha  occ. eigenvalues --   -0.42173
 Alpha virt. eigenvalues --    0.03688   0.04493   0.05922   0.06558   0.07100
 Alpha virt. eigenvalues --    0.08127   0.09955   0.10361   0.11132   0.12094
 Alpha virt. eigenvalues --    0.12923   0.13845   0.14728   0.15251   0.16787

  Beta  occ. eigenvalues --  -20.61054 -20.58499 -20.55935 -11.40920 -11.29513
  Beta  occ. eigenvalues --  -11.28015 -11.24929 -11.22712  -1.48241  -1.38293
  Beta  occ. eigenvalues --   -1.24409  -1.07902  -1.03891  -0.90953  -0.82894
  Beta  occ. eigenvalues --   -0.76955  -0.71830  -0.69611  -0.69090  -0.63843
  Beta  occ. eigenvalues --   -0.60113  -0.58771  -0.55710  -0.52712  -0.51957
  Beta  occ. eigenvalues --   -0.50018  -0.48460  -0.47173  -0.44006  -0.42323
  Beta virt. eigenvalues --    0.03759   0.04469   0.04811   0.06542   0.07086
  Beta virt. eigenvalues --    0.07944   0.08554   0.09911   0.10743   0.11864
  Beta virt. eigenvalues --    0.12641   0.13042   0.14060   0.15416   0.15905

 Mulliken charges and spin densities:
               1          2
     1  C   -0.765412   0.971610
     2  H    0.213259  -0.075868
     3  C    1.054268  -0.906467
     4  C   -0.419455   0.219448
     5  O   -0.290991  -0.082781
     6  O   -0.053352   0.001930
     7  C   -0.013912   0.000381
     8  C   -0.612858   0.001203
     9  H    0.179216  -0.000100
    10  H    0.178132   0.000188
    11  H    0.150400   0.000057
    12  H    0.157702  -0.000027
    13  H    0.138134  -0.000003
    14  O   -0.160355   0.903990
    15  H    0.245223  -0.033560
 Sum of Mulliken charges =  -0.00000   1.00000

 Dipole moment (field-independent basis, Debye):
    X=              0.4717    Y=             -0.9395    Z=             -0.6564  Tot=              1.2394
 Quadrupole moment (field-independent basis, Debye-Ang):
   XX=            -30.0635   YY=            -55.6995   ZZ=            -44.4555
   XY=             -1.9946   XZ=             -1.5246   YZ=             -1.6031

 -0=-419.2803577\MP4SDQ=-419.294384\CCSD=-419.299906\CCSD(T)=-419.35362
 Normal termination of Gaussian 16 at Thu Apr 24 10:41:05 2025.
