 Gaussian 16, Revision A.03,
 Gaussian 16:  ES64L-G16RevA.03 25-Dec-2016

 --------------------------
 # ccsd(t)/6-311++g(d,p) sp
 --------------------------

 -------------------
 Title Card Required
 -------------------
 Symbolic Z-matrix:
 Charge =  0 Multiplicity = 2

                         Standard orientation:
 ---------------------------------------------------------------------
 Center     Atomic      Atomic             Coordinates (Angstroms)
 Number     Number       Type             X           Y           Z
 ---------------------------------------------------------------------
      1          6           0        2.578974   -0.281785   -1.120677
      2          1           0        3.473115   -0.596931   -1.610620
      3          6           0        1.622399   -0.112827   -0.314070
      4          6           0        0.329207    0.606087   -0.076233
      5          8           0        0.256773    1.721375    0.352767
      6          8           0       -0.692823   -0.207156   -0.300695
      7          6           0       -1.985141    0.292278    0.099931
      8          6           0       -2.991819   -0.794617   -0.193353
      9          1           0       -1.939262    0.539545    1.162479
     10          1           0       -2.189418    1.210017   -0.455068
     11          1           0       -3.001257   -1.033569   -1.257465
     12          1           0       -2.751429   -1.699437    0.365733
     13          1           0       -3.988919   -0.459173    0.096693
     14          8           0        1.753052   -0.970374    1.168851
     15          1           0        2.539429   -0.566025    1.557277
 ---------------------------------------------------------------------

 SCF Done:  E(UHF) =  -417.985324363     A.U. after   28 cycles
 E2 =    -0.1264748956D+01 EUMP2 =    -0.41925007331860D+03
 CCSD(T)= -0.41936806977D+03

 The electronic state is 2-A.
 Alpha  occ. eigenvalues --  -20.61206 -20.59834 -20.55841 -11.41081 -11.30488
 Alpha  occ. eigenvalues --  -11.29589 -11.28487 -11.22757  -1.48255  -1.37901
 Alpha  occ. eigenvalues --   -1.35523  -1.08820  -1.04961  -0.92163  -0.83614
 Alpha  occ. eigenvalues --   -0.77758  -0.72861  -0.70035  -0.68842  -0.66661
 Alpha  occ. eigenvalues --   -0.61654  -0.59108  -0.58430  -0.55691  -0.52874
 Alpha  occ. eigenvalues --   -0.51957  -0.50997  -0.48009  -0.46437  -0.43920
 Alpha  occ. eigenvalues --   -0.41794
 Alpha virt. eigenvalues --    0.03649   0.04480   0.06001   0.06543   0.07081
 Alpha virt. eigenvalues --    0.08138   0.09935   0.10732   0.11190   0.12694
 Alpha virt. eigenvalues --    0.12885   0.13821   0.14587   0.15269   0.16483

  Beta  occ. eigenvalues --  -20.61210 -20.57574 -20.56107 -11.40739 -11.32679
  Beta  occ. eigenvalues --  -11.29592 -11.25382 -11.22758  -1.48346  -1.38330
  Beta  occ. eigenvalues --   -1.28711  -1.07427  -1.03552  -0.90346  -0.82632
  Beta  occ. eigenvalues --   -0.77048  -0.71427  -0.69921  -0.68987  -0.64880
  Beta  occ. eigenvalues --   -0.60291  -0.58501  -0.55800  -0.53035  -0.52025
  Beta  occ. eigenvalues --   -0.49961  -0.49200  -0.47654  -0.47047  -0.42174
  Beta virt. eigenvalues --    0.03770   0.04150   0.04497   0.06509   0.07044
  Beta virt. eigenvalues --    0.07368   0.08211   0.09860   0.10415   0.12247
  Beta virt. eigenvalues --    0.13029   0.13160   0.14082   0.15375   0.16537

 Mulliken charges and spin densities:
               1          2
     1  C    0.076858   1.590011
     2  H    0.247339  -0.106976
     3  C    0.050830  -1.100216
     4  C   -0.196339   0.181455
     5  O   -0.301589  -0.052040
     6  O   -0.062486   0.003685
     7  C   -0.043548  -0.000523
     8  C   -0.581925  -0.000073
     9  H    0.182607   0.000089
    10  H    0.178031   0.000314
    11  H    0.150144   0.000086
    12  H    0.159392  -0.000154
    13  H    0.137561   0.000022
    14  O   -0.256890   0.501834
    15  H    0.260014  -0.017514
 Sum of Mulliken charges =  -0.00000   1.00000

 Dipole moment (field-independent basis, Debye):
    X=              0.4362    Y=             -0.6860    Z=             -1.2634  Tot=              1.5023
 Quadrupole moment (field-independent basis, Debye-Ang):
   XX=            -30.3048   YY=            -56.2183   ZZ=            -45.0452
   XY=             -1.5518   XZ=             -2.5564   YZ=              0.1838

 3-0=-419.2950057\MP4SDQ=-419.3068002\CCSD=-419.3133485\CCSD(T)=-419.36
 Normal termination of Gaussian 16 at Mon Apr 28 13:08:43 2025.
