 Gaussian 16, Revision A.03,
 Gaussian 16:  ES64L-G16RevA.03 25-Dec-2016

 --------------------------
 # ccsd(t)/6-311++g(d,p) sp
 --------------------------

 -------------------
 Title Card Required
 -------------------
 Symbolic Z-matrix:
 Charge =  0 Multiplicity = 2

                         Standard orientation:
 ---------------------------------------------------------------------
 Center     Atomic      Atomic             Coordinates (Angstroms)
 Number     Number       Type             X           Y           Z
 ---------------------------------------------------------------------
      1          6           0        2.609234    0.110223    0.000001
      2          1           0        3.679971    0.203074    0.000001
      3          6           0        1.506213    0.704213   -0.000003
      4          6           0        0.081976    0.998388   -0.000005
      5          8           0       -0.374741    2.106265   -0.000010
      6          8           0       -0.633315   -0.130035   -0.000000
      7          6           0       -2.067529    0.041893   -0.000001
      8          6           0       -2.682756   -1.337136    0.000005
      9          1           0       -2.343166    0.620173    0.883888
     10          1           0       -2.343166    0.620165   -0.883895
     11          1           0       -2.379902   -1.895392   -0.886738
     12          1           0       -2.379902   -1.895385    0.886753
     13          1           0       -3.770554   -1.251197    0.000005
     14          8           0        2.431254   -1.690052    0.000010
     15          1           0        1.468304   -1.796342    0.000010
 ---------------------------------------------------------------------

 SCF Done:  E(UHF) =  -417.985213629     A.U. after   30 cycles
 E2 =    -0.1253891130D+01 EUMP2 =    -0.41923910475936D+03
 CCSD(T)= -0.41936367508D+03

 The electronic state is 2-A.
 Alpha  occ. eigenvalues --  -20.62559 -20.60393 -20.57543 -11.41984 -11.30722
 Alpha  occ. eigenvalues --  -11.29534 -11.28223 -11.23864  -1.49486  -1.39752
 Alpha  occ. eigenvalues --   -1.35776  -1.10683  -1.05258  -0.92326  -0.84691
 Alpha  occ. eigenvalues --   -0.78673  -0.73824  -0.70661  -0.70376  -0.64160
 Alpha  occ. eigenvalues --   -0.62758  -0.61696  -0.60056  -0.56855  -0.54125
 Alpha  occ. eigenvalues --   -0.53314  -0.53286  -0.49644  -0.48772  -0.43744
 Alpha  occ. eigenvalues --   -0.42815
 Alpha virt. eigenvalues --    0.03653   0.04833   0.05689   0.06065   0.06878
 Alpha virt. eigenvalues --    0.08860   0.09396   0.09584   0.11054   0.12252
 Alpha virt. eigenvalues --    0.12416   0.12811   0.15684   0.15691   0.16141

  Beta  occ. eigenvalues --  -20.62495 -20.57508 -20.56909 -11.42486 -11.31904
  Beta  occ. eigenvalues --  -11.30699 -11.25218 -11.23863  -1.49061  -1.38657
  Beta  occ. eigenvalues --   -1.26301  -1.07559  -1.04704  -0.93083  -0.84201
  Beta  occ. eigenvalues --   -0.78065  -0.73239  -0.70480  -0.69613  -0.61958
  Beta  occ. eigenvalues --   -0.60739  -0.59643  -0.56688  -0.53203  -0.53107
  Beta  occ. eigenvalues --   -0.51673  -0.48477  -0.47320  -0.47158  -0.42113
  Beta virt. eigenvalues --    0.03629   0.04796   0.05024   0.06047   0.06648
  Beta virt. eigenvalues --    0.06962   0.08340   0.09320   0.10235   0.11824
  Beta virt. eigenvalues --    0.11900   0.12501   0.13543   0.15131   0.15786

 Mulliken charges and spin densities:
               1          2
     1  C   -1.675630  -1.122608
     2  H    0.207392   0.087574
     3  C    1.888379   1.251651
     4  C   -0.135048  -0.003594
     5  O   -0.288058   0.127789
     6  O   -0.175019  -0.005033
     7  C    0.016742   0.009242
     8  C   -0.623813  -0.001424
     9  H    0.182284  -0.000137
    10  H    0.182284  -0.000137
    11  H    0.155019   0.000037
    12  H    0.155019   0.000037
    13  H    0.141799   0.000310
    14  O   -0.285350   0.677778
    15  H    0.254001  -0.021485
 Sum of Mulliken charges =  -0.00000   1.00000

 Dipole moment (field-independent basis, Debye):
    X=             -1.8943    Y=             -1.1596    Z=              0.0000  Tot=              2.2210
 Quadrupole moment (field-independent basis, Debye-Ang):
   XX=            -40.3746   YY=            -57.0922   ZZ=            -47.5196
   XY=              7.3152   XZ=             -0.0000   YZ=              0.0000

 419.2920403\MP4SDQ=-419.2988998\CCSD=-419.3087432\CCSD(T)=-419.3636751
 Normal termination of Gaussian 16 at Tue Apr 22 07:41:27 2025.
