 Gaussian 16, Revision A.03,
 Gaussian 16:  ES64L-G16RevA.03 25-Dec-2016

 --------------------------
 # ccsd(t)/6-311++g(d,p) sp
 --------------------------

 -------------------
 Title Card Required
 -------------------
 Symbolic Z-matrix:
 Charge =  0 Multiplicity = 2

                         Standard orientation:
 ---------------------------------------------------------------------
 Center     Atomic      Atomic             Coordinates (Angstroms)
 Number     Number       Type             X           Y           Z
 ---------------------------------------------------------------------
      1          6           0        2.616127    0.150229    0.000001
      2          1           0        3.687507    0.183094    0.000001
      3          6           0        1.505098    0.697429   -0.000003
      4          6           0        0.082242    0.999145   -0.000005
      5          8           0       -0.373572    2.106861   -0.000010
      6          8           0       -0.633407   -0.129242   -0.000000
      7          6           0       -2.067459    0.043398   -0.000001
      8          6           0       -2.683494   -1.335346    0.000005
      9          1           0       -2.342892    0.621788    0.883887
     10          1           0       -2.342892    0.621780   -0.883893
     11          1           0       -2.380976   -1.893765   -0.886747
     12          1           0       -2.380976   -1.893758    0.886762
     13          1           0       -3.771239   -1.248768    0.000005
     14          8           0        2.426362   -1.716142    0.000010
     15          1           0        1.461309   -1.811316    0.000010
 ---------------------------------------------------------------------

 SCF Done:  E(UHF) =  -417.982603303     A.U. after   30 cycles
 E2 =    -0.1251579422D+01 EUMP2 =    -0.41923418272507D+03
 CCSD(T)= -0.41935840884D+03

 The electronic state is 2-A.
 Alpha  occ. eigenvalues --  -20.62510 -20.60945 -20.57428 -11.41957 -11.30687
 Alpha  occ. eigenvalues --  -11.28453 -11.27692 -11.23857  -1.49410  -1.39656
 Alpha  occ. eigenvalues --   -1.36475  -1.10357  -1.05174  -0.92245  -0.84520
 Alpha  occ. eigenvalues --   -0.78516  -0.73755  -0.70603  -0.70339  -0.64692
 Alpha  occ. eigenvalues --   -0.63389  -0.61590  -0.60194  -0.56853  -0.54235
 Alpha  occ. eigenvalues --   -0.53604  -0.53260  -0.49571  -0.48680  -0.43599
 Alpha  occ. eigenvalues --   -0.42635
 Alpha virt. eigenvalues --    0.03647   0.04810   0.05682   0.06073   0.06883
 Alpha virt. eigenvalues --    0.08912   0.09404   0.09561   0.11103   0.12248
 Alpha virt. eigenvalues --    0.12477   0.12887   0.15680   0.15730   0.16090

  Beta  occ. eigenvalues --  -20.62453 -20.57655 -20.56840 -11.42427 -11.30729
  Beta  occ. eigenvalues --  -11.30668 -11.24959 -11.23855  -1.49026  -1.38644
  Beta  occ. eigenvalues --   -1.25250  -1.07640  -1.04810  -0.93028  -0.84142
  Beta  occ. eigenvalues --   -0.77999  -0.73239  -0.70440  -0.69614  -0.62091
  Beta  occ. eigenvalues --   -0.60722  -0.59672  -0.56678  -0.53179  -0.53009
  Beta  occ. eigenvalues --   -0.51336  -0.48388  -0.47340  -0.46010  -0.42348
  Beta virt. eigenvalues --    0.03615   0.04738   0.05153   0.06059   0.06752
  Beta virt. eigenvalues --    0.07053   0.08500   0.09324   0.10296   0.11912
  Beta virt. eigenvalues --    0.11971   0.12488   0.13537   0.15161   0.15766

 Mulliken charges and spin densities:
               1          2
     1  C   -1.869011  -1.082553
     2  H    0.209221   0.085876
     3  C    2.052590   1.141906
     4  C   -0.121645  -0.014946
     5  O   -0.287976   0.117988
     6  O   -0.174306  -0.005822
     7  C    0.016371   0.008145
     8  C   -0.630792  -0.001600
     9  H    0.182121  -0.000113
    10  H    0.182122  -0.000113
    11  H    0.154910   0.000027
    12  H    0.154910   0.000027
    13  H    0.141964   0.000249
    14  O   -0.264248   0.775736
    15  H    0.253769  -0.024809
 Sum of Mulliken charges =  -0.00000   1.00000

 Dipole moment (field-independent basis, Debye):
    X=             -1.8482    Y=             -1.4044    Z=              0.0000  Tot=              2.3212
 Quadrupole moment (field-independent basis, Debye-Ang):
   XX=            -40.0554   YY=            -56.7233   ZZ=            -47.5514
   XY=              6.6261   XZ=             -0.0000   YZ=              0.0000

 419.2866381\MP4SDQ=-419.2940135\CCSD=-419.3036912\CCSD(T)=-419.3584088
 Normal termination of Gaussian 16 at Tue Apr 22 23:05:11 2025.
