 Gaussian 16, Revision A.03,
 Gaussian 16:  ES64L-G16RevA.03 25-Dec-2016

 --------------------------
 # ccsd(t)/6-311++g(d,p) sp
 --------------------------

 -------------------
 Title Card Required
 -------------------
 Symbolic Z-matrix:
 Charge =  0 Multiplicity = 2

                         Standard orientation:
 ---------------------------------------------------------------------
 Center     Atomic      Atomic             Coordinates (Angstroms)
 Number     Number       Type             X           Y           Z
 ---------------------------------------------------------------------
      1          6           0        2.601722    0.070426    0.000001
      2          1           0        3.669004    0.218891    0.000001
      3          6           0        1.508362    0.711080   -0.000003
      4          6           0        0.082206    0.997632   -0.000005
      5          8           0       -0.375838    2.105594   -0.000010
      6          8           0       -0.633342   -0.130887   -0.000000
      7          6           0       -2.067526    0.040549   -0.000001
      8          6           0       -2.682101   -1.338717    0.000005
      9          1           0       -2.343438    0.618742    0.883862
     10          1           0       -2.343437    0.618734   -0.883868
     11          1           0       -2.378951   -1.896838   -0.886744
     12          1           0       -2.378951   -1.896831    0.886759
     13          1           0       -3.769954   -1.253456    0.000005
     14          8           0        2.435988   -1.663767    0.000010
     15          1           0        1.475277   -1.782586    0.000010
 ---------------------------------------------------------------------

 SCF Done:  E(UHF) =  -417.990981684     A.U. after   31 cycles
 E2 =    -0.1258495037D+01 EUMP2 =    -0.41924947672181D+03
 CCSD(T)= -0.41937120720D+03

 The electronic state is 2-A.
 Alpha  occ. eigenvalues --  -20.62594 -20.59816 -20.57619 -11.41993 -11.30813
 Alpha  occ. eigenvalues --  -11.30743 -11.28689 -11.23865  -1.49525  -1.39801
 Alpha  occ. eigenvalues --   -1.35063  -1.10962  -1.05332  -0.92432  -0.84870
 Alpha  occ. eigenvalues --   -0.78828  -0.73944  -0.70695  -0.70387  -0.63771
 Alpha  occ. eigenvalues --   -0.62269  -0.61766  -0.59715  -0.56826  -0.54135
 Alpha  occ. eigenvalues --   -0.53296  -0.52938  -0.49670  -0.48828  -0.43773
 Alpha  occ. eigenvalues --   -0.42855
 Alpha virt. eigenvalues --    0.03657   0.04845   0.05694   0.06059   0.06875
 Alpha virt. eigenvalues --    0.08797   0.09387   0.09595   0.11009   0.12257
 Alpha virt. eigenvalues --    0.12340   0.12758   0.15641   0.15672   0.16187

  Beta  occ. eigenvalues --  -20.62521 -20.57483 -20.56956 -11.42512 -11.33123
  Beta  occ. eigenvalues --  -11.30718 -11.25466 -11.23863  -1.49066  -1.38650
  Beta  occ. eigenvalues --   -1.27735  -1.07466  -1.04530  -0.93091  -0.84242
  Beta  occ. eigenvalues --   -0.78121  -0.73273  -0.70500  -0.69591  -0.61903
  Beta  occ. eigenvalues --   -0.60743  -0.59608  -0.56692  -0.53338  -0.53220
  Beta  occ. eigenvalues --   -0.52068  -0.49264  -0.48019  -0.47301  -0.41771
  Beta virt. eigenvalues --    0.03642   0.04816   0.04942   0.06037   0.06550
  Beta virt. eigenvalues --    0.06926   0.08198   0.09319   0.10195   0.11738
  Beta virt. eigenvalues --    0.11833   0.12512   0.13554   0.15106   0.15794

 Mulliken charges and spin densities:
               1          2
     1  C   -1.491505  -1.101897
     2  H    0.206236   0.087125
     3  C    1.736061   1.336591
     4  C   -0.143945   0.009589
     5  O   -0.288784   0.134243
     6  O   -0.175151  -0.003752
     7  C    0.015277   0.010425
     8  C   -0.616961  -0.001270
     9  H    0.182405  -0.000166
    10  H    0.182405  -0.000166
    11  H    0.155064   0.000048
    12  H    0.155064   0.000048
    13  H    0.141659   0.000375
    14  O   -0.312430   0.546105
    15  H    0.254607  -0.017296
 Sum of Mulliken charges =  -0.00000   1.00000

 Dipole moment (field-independent basis, Debye):
    X=             -1.9245    Y=             -0.9474    Z=              0.0000  Tot=              2.1451
 Quadrupole moment (field-independent basis, Debye-Ang):
   XX=            -40.6784   YY=            -57.4664   ZZ=            -47.4878
   XY=              7.9331   XZ=             -0.0000   YZ=              0.0000

 19.2990468\MP4SDQ=-419.307936\CCSD=-419.3163508\CCSD(T)=-419.3712072\S
 Normal termination of Gaussian 16 at Tue Apr 22 09:24:59 2025.
