 Gaussian 16, Revision A.03,
 Gaussian 16:  ES64L-G16RevA.03 25-Dec-2016

 --------------------------
 # ccsd(t)/6-311++g(d,p) sp
 --------------------------

 -------------------
 Title Card Required
 -------------------
 Symbolic Z-matrix:
 Charge =  0 Multiplicity = 2

                         Standard orientation:
 ---------------------------------------------------------------------
 Center     Atomic      Atomic             Coordinates (Angstroms)
 Number     Number       Type             X           Y           Z
 ---------------------------------------------------------------------
      1          6           0        2.634154    0.248430    0.000000
      2          1           0        3.694654    0.135118    0.000001
      3          6           0        1.503973    0.685656   -0.000003
      4          6           0        0.084256    1.000497   -0.000005
      5          8           0       -0.370557    2.107972   -0.000010
      6          8           0       -0.634377   -0.127622    0.000000
      7          6           0       -2.067105    0.047593   -0.000001
      8          6           0       -2.685766   -1.330175    0.000005
      9          1           0       -2.342243    0.626379    0.883778
     10          1           0       -2.342242    0.626372   -0.883786
     11          1           0       -2.384196   -1.889126   -0.886810
     12          1           0       -2.384196   -1.889118    0.886824
     13          1           0       -3.773391   -1.242237    0.000004
     14          8           0        2.413728   -1.784364    0.000010
     15          1           0        1.444189   -1.847286    0.000010
 ---------------------------------------------------------------------

 SCF Done:  E(UHF) =  -417.985319144     A.U. after   33 cycles
 E2 =    -0.1253955012D+01 EUMP2 =    -0.41923927415624D+03
 CCSD(T)= -0.41935458020D+03

 The electronic state is 2-A.
 Alpha  occ. eigenvalues --  -20.62428 -20.61916 -20.57183 -11.41941 -11.30615
 Alpha  occ. eigenvalues --  -11.27046 -11.26605 -11.23840  -1.49230  -1.39405
 Alpha  occ. eigenvalues --   -1.37622  -1.09651  -1.05024  -0.92249  -0.84266
 Alpha  occ. eigenvalues --   -0.78240  -0.73685  -0.70479  -0.70230  -0.66071
 Alpha  occ. eigenvalues --   -0.64516  -0.61331  -0.60197  -0.56810  -0.54930
 Alpha  occ. eigenvalues --   -0.53586  -0.53190  -0.49377  -0.48424  -0.43203
 Alpha  occ. eigenvalues --   -0.42182
 Alpha virt. eigenvalues --    0.03624   0.04720   0.05676   0.06085   0.06896
 Alpha virt. eigenvalues --    0.08900   0.09385   0.09521   0.11147   0.12250
 Alpha virt. eigenvalues --    0.12531   0.13122   0.15587   0.15596   0.15965

  Beta  occ. eigenvalues --  -20.62392 -20.58068 -20.56744 -11.42294 -11.30602
  Beta  occ. eigenvalues --  -11.28687 -11.24687 -11.23839  -1.48961  -1.38656
  Beta  occ. eigenvalues --   -1.23669  -1.07866  -1.04906  -0.92897  -0.84067
  Beta  occ. eigenvalues --   -0.77910  -0.73307  -0.70369  -0.69644  -0.62452
  Beta  occ. eigenvalues --   -0.60708  -0.59754  -0.56672  -0.53127  -0.52960
  Beta  occ. eigenvalues --   -0.50810  -0.48444  -0.47444  -0.44180  -0.42614
  Beta virt. eigenvalues --    0.03583   0.04632   0.05358   0.06078   0.06836
  Beta virt. eigenvalues --    0.07510   0.08698   0.09334   0.10555   0.12085
  Beta virt. eigenvalues --    0.12131   0.12390   0.13547   0.15216   0.15645

 Mulliken charges and spin densities:
               1          2
     1  C   -2.352810  -0.832356
     2  H    0.206979   0.070309
     3  C    2.543289   0.823452
     4  C   -0.127527  -0.029243
     5  O   -0.288226   0.087198
     6  O   -0.167648  -0.005556
     7  C    0.008619   0.005636
     8  C   -0.647536  -0.001627
     9  H    0.181805  -0.000063
    10  H    0.181805  -0.000063
    11  H    0.154672   0.000012
    12  H    0.154672   0.000012
    13  H    0.142553   0.000126
    14  O   -0.243946   0.912334
    15  H    0.253300  -0.030172
 Sum of Mulliken charges =  -0.00000   1.00000

 Dipole moment (field-independent basis, Debye):
    X=             -1.7491    Y=             -1.8724    Z=              0.0000  Tot=              2.5623
 Quadrupole moment (field-independent basis, Debye-Ang):
   XX=            -39.4227   YY=            -56.1788   ZZ=            -47.6217
   XY=              5.3170   XZ=             -0.0000   YZ=              0.0000

 6384\MP4SDQ=-419.2957601\CCSD=-419.3011584\CCSD(T)=-419.3545802\S2=0.9
 Normal termination of Gaussian 16 at Wed Apr 23 00:59:55 2025.
