 Gaussian 16, Revision A.03,
 Gaussian 16:  ES64L-G16RevA.03 25-Dec-2016

 --------------------------
 # ccsd(t)/6-311++g(d,p) sp
 --------------------------

 -------------------
 Title Card Required
 -------------------
 Symbolic Z-matrix:
 Charge =  0 Multiplicity = 2

                         Standard orientation:
 ---------------------------------------------------------------------
 Center     Atomic      Atomic             Coordinates (Angstroms)
 Number     Number       Type             X           Y           Z
 ---------------------------------------------------------------------
      1          6           0       -2.642562   -0.285541    0.000000
      2          1           0       -3.696171   -0.126414    0.000001
      3          6           0       -1.503841   -0.684464   -0.000003
      4          6           0       -0.085050   -1.000689   -0.000005
      5          8           0        0.369430   -2.108221   -0.000010
      6          8           0        0.634905    0.127150    0.000000
      7          6           0        2.067063   -0.049427   -0.000001
      8          6           0        2.686985    1.327802    0.000005
      9          1           0        2.341900   -0.628477    0.883723
     10          1           0        2.341900   -0.628469   -0.883730
     11          1           0        2.385935    1.887012   -0.886848
     12          1           0        2.385935    1.887004    0.886863
     13          1           0        3.774545    1.239085    0.000005
     14          8           0       -2.408384    1.814403    0.000010
     15          1           0       -1.437217    1.857515    0.000010
 ---------------------------------------------------------------------

 SCF Done:  E(UHF) =  -417.988040604     A.U. after   32 cycles
 E2 =    -0.1255580772D+01 EUMP2 =    -0.41924362137556D+03
 CCSD(T)= -0.41935516406D+03

 The electronic state is 2-A.
 Alpha  occ. eigenvalues --  -20.62432 -20.62142 -20.57133 -11.41968 -11.30609
 Alpha  occ. eigenvalues --  -11.26864 -11.26396 -11.23843  -1.49200  -1.39345
 Alpha  occ. eigenvalues --   -1.37827  -1.09457  -1.04999  -0.92304  -0.84235
 Alpha  occ. eigenvalues --   -0.78187  -0.73620  -0.70464  -0.70203  -0.66460
 Alpha  occ. eigenvalues --   -0.64750  -0.61267  -0.60187  -0.56802  -0.55091
 Alpha  occ. eigenvalues --   -0.53544  -0.53184  -0.49333  -0.48355  -0.43105
 Alpha  occ. eigenvalues --   -0.42135
 Alpha virt. eigenvalues --    0.03632   0.04718   0.05676   0.06085   0.06907
 Alpha virt. eigenvalues --    0.08842   0.09368   0.09553   0.11244   0.12288
 Alpha virt. eigenvalues --    0.12526   0.13330   0.15549   0.15753   0.16214

  Beta  occ. eigenvalues --  -20.62404 -20.58188 -20.56750 -11.42274 -11.30599
  Beta  occ. eigenvalues --  -11.28253 -11.24763 -11.23842  -1.48971  -1.38694
  Beta  occ. eigenvalues --   -1.23284  -1.07958  -1.04916  -0.92876  -0.84080
  Beta  occ. eigenvalues --   -0.77916  -0.73300  -0.70372  -0.69682  -0.62554
  Beta  occ. eigenvalues --   -0.60730  -0.59800  -0.56683  -0.53129  -0.52982
  Beta  occ. eigenvalues --   -0.50667  -0.48515  -0.47509  -0.43805  -0.42657
  Beta virt. eigenvalues --    0.03590   0.04636   0.05397   0.06079   0.06858
  Beta virt. eigenvalues --    0.07712   0.08681   0.09332   0.10696   0.12132
  Beta virt. eigenvalues --    0.12178   0.12375   0.13796   0.15223   0.15845

 Mulliken charges and spin densities:
               1          2
     1  C   -0.762307  -0.737796
     2  H    0.222387   0.060900
     3  C    1.311976   0.802612
     4  C   -0.523931  -0.108090
     5  O   -0.288712   0.076352
     6  O   -0.163305  -0.004522
     7  C   -0.011463   0.001813
     8  C   -0.606837  -0.000407
     9  H    0.181267  -0.000022
    10  H    0.181267  -0.000022
    11  H    0.154242   0.000006
    12  H    0.154242   0.000006
    13  H    0.142297   0.000085
    14  O   -0.244516   0.940807
    15  H    0.253392  -0.031722
 Sum of Mulliken charges =  -0.00000   1.00000

 Dipole moment (field-independent basis, Debye):
    X=              1.7373    Y=              1.9599    Z=              0.0000  Tot=              2.6191
 Quadrupole moment (field-independent basis, Debye-Ang):
   XX=            -39.2901   YY=            -56.1431   ZZ=            -47.6489
   XY=              5.0795   XZ=              0.0000   YZ=             -0.0000

 \MP4SDQ=-419.2985783\CCSD=-419.3022202\CCSD(T)=-419.3551641\S2=0.92584
 Normal termination of Gaussian 16 at Tue Apr 22 04:11:24 2025.
