 Gaussian 16, Revision A.03,
 Gaussian 16:  ES64L-G16RevA.03 25-Dec-2016

 --------------------------
 # ccsd(t)/6-311++g(d,p) sp
 --------------------------

 -------------------
 Title Card Required
 -------------------
 Symbolic Z-matrix:
 Charge =  0 Multiplicity = 2

                         Standard orientation:
 ---------------------------------------------------------------------
 Center     Atomic      Atomic             Coordinates (Angstroms)
 Number     Number       Type             X           Y           Z
 ---------------------------------------------------------------------
      1          6           0       -2.646987   -0.303488   -0.000000
      2          1           0       -3.697275   -0.125422    0.000001
      3          6           0       -1.503857   -0.684356   -0.000003
      4          6           0       -0.085423   -1.000821   -0.000005
      5          8           0        0.368930   -2.108354   -0.000010
      6          8           0        0.635120    0.126906   -0.000000
      7          6           0        2.067046   -0.050370   -0.000001
      8          6           0        2.687680    1.326545    0.000005
      9          1           0        2.341685   -0.629561    0.883698
     10          1           0        2.341684   -0.629554   -0.883705
     11          1           0        2.386898    1.885896   -0.886860
     12          1           0        2.386898    1.885888    0.886875
     13          1           0        3.775200    1.237392    0.000005
     14          8           0       -2.405559    1.830001    0.000011
     15          1           0       -1.433769    1.861873    0.000010
 ---------------------------------------------------------------------

 SCF Done:  E(UHF) =  -417.989458020     A.U. after   32 cycles
 E2 =    -0.1256298303D+01 EUMP2 =    -0.41924575632275D+03
 CCSD(T)= -0.41935568690D+03

 The electronic state is 2-A.
 Alpha  occ. eigenvalues --  -20.62440 -20.62228 -20.57118 -11.41988 -11.30611
 Alpha  occ. eigenvalues --  -11.26822 -11.26334 -11.23846  -1.49193  -1.39324
 Alpha  occ. eigenvalues --   -1.37891  -1.09378  -1.04992  -0.92336  -0.84230
 Alpha  occ. eigenvalues --   -0.78167  -0.73576  -0.70463  -0.70195  -0.66613
 Alpha  occ. eigenvalues --   -0.64836  -0.61245  -0.60186  -0.56801  -0.55143
 Alpha  occ. eigenvalues --   -0.53527  -0.53184  -0.49320  -0.48329  -0.43070
 Alpha  occ. eigenvalues --   -0.42137
 Alpha virt. eigenvalues --    0.03630   0.04714   0.05675   0.06084   0.06909
 Alpha virt. eigenvalues --    0.08805   0.09360   0.09555   0.11237   0.12288
 Alpha virt. eigenvalues --    0.12521   0.13302   0.15525   0.15722   0.16212

  Beta  occ. eigenvalues --  -20.62415 -20.58237 -20.56762 -11.42272 -11.30602
  Beta  occ. eigenvalues --  -11.28100 -11.24827 -11.23845  -1.48982  -1.38719
  Beta  occ. eigenvalues --   -1.23125  -1.08002  -1.04920  -0.92871  -0.84092
  Beta  occ. eigenvalues --   -0.77923  -0.73287  -0.70378  -0.69705  -0.62596
  Beta  occ. eigenvalues --   -0.60745  -0.59825  -0.56692  -0.53133  -0.52998
  Beta  occ. eigenvalues --   -0.50603  -0.48555  -0.47544  -0.43669  -0.42674
  Beta virt. eigenvalues --    0.03589   0.04640   0.05408   0.06078   0.06857
  Beta virt. eigenvalues --    0.07784   0.08660   0.09331   0.10755   0.12149
  Beta virt. eigenvalues --    0.12197   0.12347   0.13720   0.15223   0.15805

 Mulliken charges and spin densities:
               1          2
     1  C   -0.735257  -0.687095
     2  H    0.224016   0.056536
     3  C    1.294161   0.744033
     4  C   -0.535446  -0.101125
     5  O   -0.288653   0.071157
     6  O   -0.160835  -0.004142
     7  C   -0.012372   0.001651
     8  C   -0.607181  -0.000385
     9  H    0.181252  -0.000017
    10  H    0.181252  -0.000017
    11  H    0.154258   0.000007
    12  H    0.154258   0.000007
    13  H    0.142330   0.000070
    14  O   -0.244157   0.951423
    15  H    0.252374  -0.032104
 Sum of Mulliken charges =  -0.00000   1.00000

 Dipole moment (field-independent basis, Debye):
    X=              1.7369    Y=              1.9836    Z=              0.0000  Tot=              2.6365
 Quadrupole moment (field-independent basis, Debye-Ang):
   XX=            -39.2440   YY=            -56.1539   ZZ=            -47.6611
   XY=              5.0155   XZ=              0.0000   YZ=             -0.0000

 28045\MP4SDQ=-419.3000458\CCSD=-419.3029383\CCSD(T)=-419.3556869\S2=0.
 Normal termination of Gaussian 16 at Mon Apr 21 19:25:31 2025.
