 Gaussian 16, Revision A.03,
 Gaussian 16:  ES64L-G16RevA.03 25-Dec-2016

 --------------------------
 # ccsd(t)/6-311++g(d,p) sp
 --------------------------

 -------------------
 Title Card Required
 -------------------
 Symbolic Z-matrix:
 Charge =  0 Multiplicity = 2

                         Standard orientation:
 ---------------------------------------------------------------------
 Center     Atomic      Atomic             Coordinates (Angstroms)
 Number     Number       Type             X           Y           Z
 ---------------------------------------------------------------------
      1          6           0        2.597676    0.050679    0.000001
      2          1           0        3.662396    0.224769    0.000001
      3          6           0        1.509833    0.714390   -0.000003
      4          6           0        0.082532    0.997271   -0.000005
      5          8           0       -0.376344    2.105229   -0.000010
      6          8           0       -0.633385   -0.131327   -0.000000
      7          6           0       -2.067495    0.039951   -0.000001
      8          6           0       -2.681809   -1.339417    0.000005
      9          1           0       -2.343567    0.618107    0.883839
     10          1           0       -2.343566    0.618099   -0.883845
     11          1           0       -2.378528   -1.897481   -0.886751
     12          1           0       -2.378528   -1.897473    0.886766
     13          1           0       -3.769691   -1.254497    0.000005
     14          8           0        2.438267   -1.650461    0.000010
     15          1           0        1.478758   -1.776291    0.000010
 ---------------------------------------------------------------------

 SCF Done:  E(UHF) =  -417.995146756     A.U. after   30 cycles
 E2 =    -0.1261027328D+01 EUMP2 =    -0.41925617408437D+03
 CCSD(T)= -0.41937563196D+03

 The electronic state is 2-A.
 Alpha  occ. eigenvalues --  -20.62593 -20.59571 -20.57623 -11.41972 -11.31434
 Alpha  occ. eigenvalues --  -11.30742 -11.28860 -11.23861  -1.49515  -1.39793
 Alpha  occ. eigenvalues --   -1.34793  -1.11048  -1.05352  -0.92475  -0.84948
 Alpha  occ. eigenvalues --   -0.78893  -0.74015  -0.70694  -0.70373  -0.63674
 Alpha  occ. eigenvalues --   -0.62134  -0.61778  -0.59488  -0.56801  -0.54146
 Alpha  occ. eigenvalues --   -0.53289  -0.52814  -0.49649  -0.48834  -0.43709
 Alpha  occ. eigenvalues --   -0.42814
 Alpha virt. eigenvalues --    0.03659   0.04853   0.05695   0.06058   0.06874
 Alpha virt. eigenvalues --    0.08776   0.09385   0.09586   0.10995   0.12262
 Alpha virt. eigenvalues --    0.12306   0.12740   0.15618   0.15666   0.16210

  Beta  occ. eigenvalues --  -20.62517 -20.57564 -20.56951 -11.42493 -11.33659
  Beta  occ. eigenvalues --  -11.30716 -11.25546 -11.23859  -1.49043  -1.38623
  Beta  occ. eigenvalues --   -1.28631  -1.07405  -1.04401  -0.93063  -0.84245
  Beta  occ. eigenvalues --   -0.78134  -0.73299  -0.70493  -0.69560  -0.61935
  Beta  occ. eigenvalues --   -0.60732  -0.59587  -0.56688  -0.53563  -0.53222
  Beta  occ. eigenvalues --   -0.52245  -0.50196  -0.48086  -0.47282  -0.41553
  Beta virt. eigenvalues --    0.03648   0.04786   0.04966   0.06033   0.06527
  Beta virt. eigenvalues --    0.06919   0.08157   0.09319   0.10175   0.11704
  Beta virt. eigenvalues --    0.11806   0.12522   0.13560   0.15100   0.15797

 Mulliken charges and spin densities:
               1          2
     1  C   -1.403361  -1.069203
     2  H    0.205943   0.086525
     3  C    1.662575   1.368723
     4  C   -0.147070   0.015725
     5  O   -0.289530   0.136213
     6  O   -0.175323  -0.002979
     7  C    0.014108   0.011036
     8  C   -0.613704  -0.001233
     9  H    0.182431  -0.000184
    10  H    0.182432  -0.000184
    11  H    0.155024   0.000053
    12  H    0.155024   0.000053
    13  H    0.141588   0.000407
    14  O   -0.325393   0.469974
    15  H    0.255256  -0.014928
 Sum of Mulliken charges =  -0.00000   1.00000

 Dipole moment (field-independent basis, Debye):
    X=             -1.9271    Y=             -0.8827    Z=              0.0000  Tot=              2.1197
 Quadrupole moment (field-independent basis, Debye-Ang):
   XX=            -40.8152   YY=            -57.6140   ZZ=            -47.4739
   XY=              8.1443   XZ=             -0.0000   YZ=              0.0001

 =-419.3030421\MP4SDQ=-419.3135945\CCSD=-419.3209037\CCSD(T)=-419.37563
 Normal termination of Gaussian 16 at Tue Apr 22 06:49:16 2025.
