 Gaussian 16, Revision A.03,
 Gaussian 16:  ES64L-G16RevA.03 25-Dec-2016

 --------------------------
 # ccsd(t)/6-311++g(d,p) sp
 --------------------------

 -------------------
 Title Card Required
 -------------------
 Symbolic Z-matrix:
 Charge =  0 Multiplicity = 2

                         Standard orientation:
 ---------------------------------------------------------------------
 Center     Atomic      Atomic             Coordinates (Angstroms)
 Number     Number       Type             X           Y           Z
 ---------------------------------------------------------------------
      1          6           0        2.622877    0.190122   -0.000000
      2          1           0        3.691880    0.161417    0.000001
      3          6           0        1.504650    0.691375   -0.000003
      4          6           0        0.082905    0.999816   -0.000005
      5          8           0       -0.372364    2.107375   -0.000010
      6          8           0       -0.633671   -0.128523   -0.000000
      7          6           0       -2.067325    0.045025   -0.000001
      8          6           0       -2.684316   -1.333380    0.000005
      9          1           0       -2.342623    0.623563    0.883853
     10          1           0       -2.342623    0.623555   -0.883859
     11          1           0       -2.382177   -1.891979   -0.886778
     12          1           0       -2.382177   -1.891971    0.886793
     13          1           0       -3.772014   -1.246193    0.000005
     14          8           0        2.421361   -1.742486    0.000010
     15          1           0        1.454385   -1.827068    0.000010
 ---------------------------------------------------------------------

 SCF Done:  E(UHF) =  -417.982484864     A.U. after   31 cycles
 E2 =    -0.1251669598D+01 EUMP2 =    -0.41923415446115D+03
 CCSD(T)= -0.41935550051D+03

 The electronic state is 2-A.
 Alpha  occ. eigenvalues --  -20.62465 -20.61410 -20.57313 -11.41939 -11.30652
 Alpha  occ. eigenvalues --  -11.27678 -11.27175 -11.23848  -1.49326  -1.39545
 Alpha  occ. eigenvalues --   -1.37048  -1.10041  -1.05102  -0.92214  -0.84383
 Alpha  occ. eigenvalues --   -0.78379  -0.73726  -0.70542  -0.70292  -0.65277
 Alpha  occ. eigenvalues --   -0.63948  -0.61475  -0.60217  -0.56836  -0.54526
 Alpha  occ. eigenvalues --   -0.53653  -0.53228  -0.49484  -0.48571  -0.43423
 Alpha  occ. eigenvalues --   -0.42412
 Alpha virt. eigenvalues --    0.03639   0.04776   0.05678   0.06080   0.06889
 Alpha virt. eigenvalues --    0.08935   0.09404   0.09538   0.11138   0.12247
 Alpha virt. eigenvalues --    0.12513   0.12981   0.15657   0.15728   0.16033

  Beta  occ. eigenvalues --  -20.62417 -20.57832 -20.56783 -11.42366 -11.30635
  Beta  occ. eigenvalues --  -11.29731 -11.24765 -11.23847  -1.48989  -1.38637
  Beta  occ. eigenvalues --   -1.24475  -1.07727  -1.04872  -0.92962  -0.84092
  Beta  occ. eigenvalues --   -0.77945  -0.73267  -0.70402  -0.69617  -0.62243
  Beta  occ. eigenvalues --   -0.60708  -0.59700  -0.56670  -0.53153  -0.52967
  Beta  occ. eigenvalues --   -0.51082  -0.48384  -0.47373  -0.45099  -0.42497
  Beta virt. eigenvalues --    0.03602   0.04684   0.05259   0.06069   0.06809
  Beta virt. eigenvalues --    0.07218   0.08628   0.09329   0.10384   0.11992
  Beta virt. eigenvalues --    0.12040   0.12462   0.13539   0.15189   0.15735

 Mulliken charges and spin densities:
               1          2
     1  C   -2.067791  -0.996129
     2  H    0.210368   0.081315
     3  C    2.234841   1.014582
     4  C   -0.111086  -0.022863
     5  O   -0.288173   0.105781
     6  O   -0.172452  -0.006072
     7  C    0.013951   0.007108
     8  C   -0.637683  -0.001701
     9  H    0.181959  -0.000092
    10  H    0.181959  -0.000092
    11  H    0.154796   0.000019
    12  H    0.154796   0.000019
    13  H    0.142169   0.000193
    14  O   -0.251322   0.845339
    15  H    0.253667  -0.027408
 Sum of Mulliken charges =  -0.00000   1.00000

 Dipole moment (field-independent basis, Debye):
    X=             -1.8007    Y=             -1.6304    Z=              0.0000  Tot=              2.4291
 Quadrupole moment (field-independent basis, Debye-Ang):
   XX=            -39.7566   YY=            -56.4249   ZZ=            -47.5808
   XY=              5.9940   XZ=             -0.0000   YZ=              0.0000

 718\MP4SDQ=-419.2929801\CCSD=-419.3012497\CCSD(T)=-419.3555005\S2=1.07
 Normal termination of Gaussian 16 at Tue Apr 22 05:56:44 2025.
