 Gaussian 16, Revision A.03,
 Gaussian 16:  ES64L-G16RevA.03 25-Dec-2016

 -------------------
 # freq 6-31+g m062x
 -------------------

 -------------------
 Title Card Required
 -------------------
 Symbolic Z-matrix:
 Charge =  0 Multiplicity = 2

                         Standard orientation:
 ---------------------------------------------------------------------
 Center     Atomic      Atomic             Coordinates (Angstroms)
 Number     Number       Type             X           Y           Z
 ---------------------------------------------------------------------
      1          8           0        2.115269    1.246962    0.035451
      2          1           0        2.781761    1.157988    0.727815
      3          6           0        2.435318   -1.155998   -0.604512
      4          1           0        3.333516   -1.593815   -0.982500
      5          6           0        1.593865   -0.305294   -0.162817
      6          6           0        0.169570   -0.198929    0.317498
      7          8           0       -0.168339   -0.421784    1.445164
      8          8           0       -0.595388    0.307756   -0.639948
      9          6           0       -1.931079    0.693317   -0.252241
     10          6           0       -2.857300   -0.505341   -0.221188
     11          1           0       -2.227783    1.414627   -1.011400
     12          1           0       -1.879129    1.186801    0.719029
     13          1           0       -3.873765   -0.176584    0.003844
     14          1           0       -2.863527   -1.006639   -1.190266
     15          1           0       -2.545654   -1.212389    0.547700
 ---------------------------------------------------------------------

 SCF Done:  E(UM062X) =  -419.972272789     A.U. after   19 cycles

 The electronic state is 2-A.
 Alpha  occ. eigenvalues --  -19.70653 -19.67223 -19.66488 -10.72654 -10.64968
 Alpha  occ. eigenvalues --  -10.61506 -10.61023 -10.54588  -1.28180  -1.18779
 Alpha  occ. eigenvalues --   -1.13759  -0.91839  -0.88401  -0.78538  -0.71885
 Alpha  occ. eigenvalues --   -0.64928  -0.62205  -0.59610  -0.57629  -0.55364
 Alpha  occ. eigenvalues --   -0.53844  -0.49740  -0.48499  -0.46432  -0.45227
 Alpha  occ. eigenvalues --   -0.42389  -0.40618  -0.39449  -0.38228  -0.36138
 Alpha  occ. eigenvalues --   -0.31158
 Alpha virt. eigenvalues --    0.00776   0.01798   0.02240   0.02815   0.03816
 Alpha virt. eigenvalues --    0.04091   0.05329   0.06191   0.07821   0.08087
 Alpha virt. eigenvalues --    0.08787   0.09001   0.09519   0.11244   0.11970

  Beta  occ. eigenvalues --  -19.70649 -19.66735 -19.66491 -10.72586 -10.65144
  Beta  occ. eigenvalues --  -10.61505 -10.60308 -10.54588  -1.28139  -1.18763
  Beta  occ. eigenvalues --   -1.12174  -0.90777  -0.87317  -0.77935  -0.71050
  Beta  occ. eigenvalues --   -0.64634  -0.61131  -0.59006  -0.57436  -0.54854
  Beta  occ. eigenvalues --   -0.53595  -0.49479  -0.46944  -0.45189  -0.44767
  Beta  occ. eigenvalues --   -0.42048  -0.39669  -0.38817  -0.38189  -0.34718
  Beta virt. eigenvalues --   -0.08528   0.01405   0.01453   0.02573   0.02991
  Beta virt. eigenvalues --    0.03915   0.04003   0.05324   0.05955   0.07623
  Beta virt. eigenvalues --    0.08121   0.08450   0.08838   0.09622   0.10905

 Mulliken charges and spin densities:
               1          2
     1  O   -0.511620   0.228464
     2  H    0.428897  -0.004394
     3  C    0.301460   1.059453
     4  H    0.279394  -0.036380
     5  C   -0.499502  -0.311829
     6  C    0.213378   0.058500
     7  O   -0.357668   0.001303
     8  O   -0.198574   0.001867
     9  C   -0.181523   0.002102
    10  C   -0.594239   0.001070
    11  H    0.224609  -0.000154
    12  H    0.234901  -0.000098
    13  H    0.207137   0.000220
    14  H    0.219056  -0.000067
    15  H    0.234296  -0.000056
 Sum of Mulliken charges =  -0.00000   1.00000

 Dipole moment (field-independent basis, Debye):
    X=              0.1961    Y=             -1.1629    Z=             -0.6242  Tot=              1.3343
 Quadrupole moment (field-independent basis, Debye-Ang):
   XX=            -31.8890   YY=            -48.7052   ZZ=            -52.7316
   XY=             -6.3261   XZ=              2.3058   YZ=              4.6000

  Exact polarizability:  78.660  -6.692  66.874  -2.582   3.650  58.006
 Approx polarizability:  73.726  -9.703  77.997  -5.001   3.064  73.119

 ******    3 imaginary frequencies (negative Signs) ******

                      1                      2                      3
                      A                      A                      A
 Frequencies --   -473.9436              -340.4393               -77.1478
 Red. masses --      1.0687                 2.1532                 6.8935
 Frc consts  --      0.1414                 0.1470                 0.0242
 IR Inten    --    117.3053               133.6440                 4.4157

                      4                      5                      6
                      A                      A                      A
 Frequencies --     50.7773                74.0104               161.2413
 Red. masses --      2.4903                 3.5601                 1.7890
 Frc consts  --      0.0038                 0.0115                 0.0274
 IR Inten    --      1.7160                 7.1913                 3.5843

                      7                      8                      9
                      A                      A                      A
 Frequencies --    201.6917               221.3458               268.4854
 Red. masses --      2.4440                 2.2405                 3.1153
 Frc consts  --      0.0586                 0.0647                 0.1323
 IR Inten    --      5.3203                 0.1585                 3.3188

                     10                     11                     12
                      A                      A                      A
 Frequencies --    319.8375               386.8519               438.0343
 Red. masses --      3.2824                 7.1429                 3.8750
 Frc consts  --      0.1978                 0.6298                 0.4381
 IR Inten    --     16.8253                 0.3698                 3.6103

                     13                     14                     15
                      A                      A                      A
 Frequencies --    595.6072               645.4582               710.2294
 Red. masses --      3.6416                 5.1678                 1.3721
 Frc consts  --      0.7611                 1.2685                 0.4078
 IR Inten    --     19.5305                19.5748                53.4696

                     16                     17                     18
                      A                      A                      A
 Frequencies --    740.3650               816.6279               893.3335
 Red. masses --     10.2620                 1.3013                 3.3733
 Frc consts  --      3.3141                 0.5113                 1.5861
 IR Inten    --     13.7792                 6.4978                19.3956

                     19                     20                     21
                      A                      A                      A
 Frequencies --    930.1376              1052.7620              1114.5370
 Red. masses --      2.4130                 1.3113                 3.6048
 Frc consts  --      1.2300                 0.8563                 2.6383
 IR Inten    --      4.5121                38.4560                 8.0940

                     22                     23                     24
                      A                      A                      A
 Frequencies --   1157.0305              1227.1307              1322.1415
 Red. masses --      2.0497                 1.7376                 2.1879
 Frc consts  --      1.6167                 1.5417                 2.2533
 IR Inten    --     19.3387                 5.6584               335.2767

                     25                     26                     27
                      A                      A                      A
 Frequencies --   1370.3638              1443.3002              1456.6441
 Red. masses --      1.6353                 1.3501                 1.2718
 Frc consts  --      1.8093                 1.6570                 1.5899
 IR Inten    --    231.4735                26.2353                15.9240

                     28                     29                     30
                      A                      A                      A
 Frequencies --   1528.3461              1538.3628              1546.6469
 Red. masses --      1.0418                 1.0639                 1.0785
 Frc consts  --      1.4338                 1.4834                 1.5200
 IR Inten    --     14.1049                 2.1012                20.4897

                     31                     32                     33
                      A                      A                      A
 Frequencies --   1844.4357              1920.8445              3107.3654
 Red. masses --      7.3151                11.7067                 1.0352
 Frc consts  --     14.6621                25.4489                 5.8891
 IR Inten    --     40.0879               267.7230                13.6313

                     34                     35                     36
                      A                      A                      A
 Frequencies --   3138.1871              3186.5039              3191.3040
 Red. masses --      1.0602                 1.1000                 1.1027
 Frc consts  --      6.1519                 6.5806                 6.6169
 IR Inten    --     16.8789                14.9997                 4.8448

                     37                     38                     39
                      A                      A                      A
 Frequencies --   3212.3629              3468.1732              3875.7372
 Red. masses --      1.1053                 1.1240                 1.0669
 Frc consts  --      6.7199                 7.9657                 9.4425
 IR Inten    --     17.3403                57.4613                42.2680

 - Thermochemistry -
 -------------------
 Temperature   298.150 Kelvin.  Pressure   1.00000 Atm.
 Atom     1 has atomic number  8 and mass  15.99491

 Molecular mass:   115.03952 amu.
 Principal axes and moments of inertia in atomic units:
                           1         2         3
     Eigenvalues --   419.886241539.341051590.58640
           X            0.99998  -0.00338   0.00475
           Y            0.00255   0.98623   0.16538
           Z           -0.00525  -0.16536   0.98622
 This molecule is an asymmetric top.
 Rotational symmetry number  1.
 Rotational temperatures (Kelvin)      0.20628     0.05627     0.05445
 Rotational constants (GHZ):           4.29817     1.17241     1.13464
    3 imaginary frequencies ignored.
 Zero-point vibrational energy     294019.5 (Joules/Mol)
                                   70.27234 (Kcal/Mol)
 Warning -- explicit consideration of  10 degrees of freedom as
           vibrations may cause significant error
 Vibrational temperatures:     73.06   106.48   231.99   290.19   318.47
          (Kelvin)            386.29   460.17   556.59   630.23   856.95
                              928.67  1021.86  1065.22  1174.95  1285.31
                             1338.26  1514.69  1603.57  1664.71  1765.57
                             1902.27  1971.65  2076.59  2095.79  2198.95
                             2213.36  2225.28  2653.73  2763.67  4470.81
                             4515.15  4584.67  4591.57  4621.87  4989.93
                             5576.32

 Zero-point correction=                           0.111986 (Hartree/Particle)
 Thermal correction to Energy=                    0.120417
 Thermal correction to Enthalpy=                  0.121361
 Thermal correction to Gibbs Free Energy=         0.077502
 Sum of electronic and zero-point Energies=           -419.860287
 Sum of electronic and thermal Energies=              -419.851856
 Sum of electronic and thermal Enthalpies=            -419.850911
 Sum of electronic and thermal Free Energies=         -419.894771

                     E (Thermal)             CV                S
                      KCal/Mol        Cal/Mol-Kelvin    Cal/Mol-Kelvin
 Total                   75.563             28.509             92.310
 Electronic               0.000              0.000              1.377
 Translational            0.889              2.981             40.136
 Rotational               0.889              2.981             28.421
 Vibrational             73.786             22.548             22.375
 Vibration     1          0.595              1.977              4.787
 Vibration     2          0.599              1.966              4.044
 Vibration     3          0.622              1.890              2.535
 Vibration     4          0.639              1.837              2.118
 Vibration     5          0.648              1.809              1.948
 Vibration     6          0.673              1.731              1.606
 Vibration     7          0.706              1.636              1.311
 Vibration     8          0.755              1.498              1.012
 Vibration     9          0.798              1.387              0.833
 Vibration    10          0.953              1.041              0.457

 Normal termination of Gaussian 16 at Fri Jun 20 14:35:15 2025.
