 Gaussian 16, Revision A.03,
 Gaussian 16:  ES64L-G16RevA.03 25-Dec-2016

 -------------------
 # freq 6-31+g m062x
 -------------------

 -------------------
 Title Card Required
 -------------------
 Symbolic Z-matrix:
 Charge =  0 Multiplicity = 2

                         Standard orientation:
 ---------------------------------------------------------------------
 Center     Atomic      Atomic             Coordinates (Angstroms)
 Number     Number       Type             X           Y           Z
 ---------------------------------------------------------------------
      1          8           0        2.191826    1.402493   -0.024067
      2          1           0        2.828702    1.229747    0.688144
      3          6           0        2.456462   -1.193763   -0.540925
      4          1           0        3.341323   -1.674893   -0.887305
      5          6           0        1.475895   -0.600962   -0.166528
      6          6           0        0.158201   -0.196151    0.328066
      7          8           0       -0.175119   -0.322816    1.472675
      8          8           0       -0.593035    0.279631   -0.656629
      9          6           0       -1.924488    0.697323   -0.292579
     10          6           0       -2.861027   -0.490969   -0.192878
     11          1           0       -2.216065    1.374834   -1.092922
     12          1           0       -1.871587    1.246436    0.648101
     13          1           0       -3.874595   -0.140736    0.011934
     14          1           0       -2.871098   -1.047851   -1.131048
     15          1           0       -2.556314   -1.154861    0.616324
 ---------------------------------------------------------------------

 SCF Done:  E(UM062X) =  -419.955796916     A.U. after   24 cycles

 The electronic state is 2-A.
 Alpha  occ. eigenvalues --  -19.70419 -19.69337 -19.66113 -10.72937 -10.61372
 Alpha  occ. eigenvalues --  -10.60047 -10.59486 -10.54511  -1.27925  -1.18560
 Alpha  occ. eigenvalues --   -1.13895  -0.91533  -0.88087  -0.78590  -0.71263
 Alpha  occ. eigenvalues --   -0.64586  -0.62186  -0.58534  -0.56932  -0.54458
 Alpha  occ. eigenvalues --   -0.53799  -0.50642  -0.48394  -0.46633  -0.45214
 Alpha  occ. eigenvalues --   -0.42179  -0.41450  -0.39624  -0.38043  -0.36813
 Alpha  occ. eigenvalues --   -0.35250
 Alpha virt. eigenvalues --   -0.00962   0.01995   0.02552   0.03663   0.03805
 Alpha virt. eigenvalues --    0.04550   0.05344   0.05819   0.07896   0.08056
 Alpha virt. eigenvalues --    0.08363   0.08993   0.09643   0.11633   0.12307

  Beta  occ. eigenvalues --  -19.70423 -19.67759 -19.66131 -10.72916 -10.61372
  Beta  occ. eigenvalues --  -10.60069 -10.59323 -10.54511  -1.27933  -1.18590
  Beta  occ. eigenvalues --   -1.07289  -0.91168  -0.87803  -0.78462  -0.71116
  Beta  occ. eigenvalues --   -0.64533  -0.61805  -0.58378  -0.56777  -0.53927
  Beta  occ. eigenvalues --   -0.51496  -0.49305  -0.46841  -0.45212  -0.41973
  Beta  occ. eigenvalues --   -0.39468  -0.39166  -0.38175  -0.38019  -0.36296
  Beta virt. eigenvalues --   -0.09212  -0.00169   0.02049   0.02614   0.03691
  Beta virt. eigenvalues --    0.03893   0.04642   0.05359   0.05932   0.07964
  Beta virt. eigenvalues --    0.08137   0.08385   0.09097   0.09680   0.11620

 Mulliken charges and spin densities:
               1          2
     1  O   -0.415241   0.874608
     2  H    0.404357  -0.031744
     3  C   -0.104294   0.204964
     4  H    0.327976  -0.009302
     5  C   -0.447614  -0.091086
     6  C    0.420815   0.061558
     7  O   -0.338137  -0.008069
     8  O   -0.181238  -0.000277
     9  C   -0.212472  -0.000332
    10  C   -0.572235  -0.000184
    11  H    0.222312  -0.000064
    12  H    0.234784  -0.000086
    13  H    0.207263   0.000029
    14  H    0.219427  -0.000012
    15  H    0.234297  -0.000003
 Sum of Mulliken charges =  -0.00000   1.00000

 Dipole moment (field-independent basis, Debye):
    X=              0.3669    Y=             -0.8229    Z=             -0.4973  Tot=              1.0291
 Quadrupole moment (field-independent basis, Debye-Ang):
   XX=            -31.1499   YY=            -46.9647   ZZ=            -53.1675
   XY=             -5.6032   XZ=              2.8918   YZ=              4.4530

  Exact polarizability:  81.736  -7.566  69.099  -3.485   3.810  58.100
 Approx polarizability:  81.445 -14.668  71.977  -8.088   3.118  73.494

 ******    4 imaginary frequencies (negative Signs) ******

                      1                      2                      3
                      A                      A                      A
 Frequencies --   -471.4880              -199.1357               -99.7648
 Red. masses --      1.0840                 6.4056                 5.6581
 Frc consts  --      0.1420                 0.1497                 0.0332
 IR Inten    --    116.8284                 1.5643                22.5811

                      4                      5                      6
                      A                      A                      A
 Frequencies --    -50.5513                20.9400                87.0820
 Red. masses --      5.7723                 2.6992                 3.0972
 Frc consts  --      0.0087                 0.0007                 0.0138
 IR Inten    --      2.3710                 0.3982                 5.7625

                      7                      8                      9
                      A                      A                      A
 Frequencies --    119.7956               184.2689               199.3635
 Red. masses --      5.4535                 1.3365                 4.2231
 Frc consts  --      0.0461                 0.0267                 0.0989
 IR Inten    --      0.3270                 2.5962                 0.4509

                     10                     11                     12
                      A                      A                      A
 Frequencies --    310.0202               390.8693               421.6036
 Red. masses --      2.8335                 1.6326                 1.9560
 Frc consts  --      0.1605                 0.1470                 0.2048
 IR Inten    --     19.6942                61.1551                61.1699

                     13                     14                     15
                      A                      A                      A
 Frequencies --    577.3722               619.7331               723.4565
 Red. masses --      4.0461                 5.3902                 1.8713
 Frc consts  --      0.7947                 1.2197                 0.5770
 IR Inten    --      4.2697                12.2463                12.9285

                     16                     17                     18
                      A                      A                      A
 Frequencies --    742.1714               775.0877               815.0614
 Red. masses --      3.0478                 1.3652                 1.2590
 Frc consts  --      0.9891                 0.4832                 0.4928
 IR Inten    --     91.4214                47.2080                 6.1500

                     19                     20                     21
                      A                      A                      A
 Frequencies --    898.3249               944.7235              1113.0333
 Red. masses --      3.4014                 2.5719                 4.1264
 Frc consts  --      1.6173                 1.3524                 3.0119
 IR Inten    --     21.0420                 6.7155                 5.9600

                     22                     23                     24
                      A                      A                      A
 Frequencies --   1158.0137              1227.5216              1329.1016
 Red. masses --      2.1021                 1.7579                 1.8434
 Frc consts  --      1.6609                 1.5606                 1.9186
 IR Inten    --     18.2709                 4.3740               304.9848

                     25                     26                     27
                      A                      A                      A
 Frequencies --   1374.1389              1443.5885              1455.1709
 Red. masses --      1.8357                 1.3804                 1.2767
 Frc consts  --      2.0423                 1.6949                 1.5929
 IR Inten    --    313.3203                45.7976                14.1711

                     28                     29                     30
                      A                      A                      A
 Frequencies --   1527.8796              1537.3339              1545.2427
 Red. masses --      1.0420                 1.0701                 1.0736
 Frc consts  --      1.4332                 1.4900                 1.5104
 IR Inten    --     14.3090                 3.6179                20.9155

                     31                     32                     33
                      A                      A                      A
 Frequencies --   1910.2187              2274.2266              3107.2300
 Red. masses --     12.2413                 5.7803                 1.0351
 Frc consts  --     26.3174                17.6145                 5.8882
 IR Inten    --    308.6963                70.4383                13.8367

                     34                     35                     36
                      A                      A                      A
 Frequencies --   3138.6911              3186.6762              3191.0322
 Red. masses --      1.0602                 1.1002                 1.1026
 Frc consts  --      6.1537                 6.5824                 6.6148
 IR Inten    --     17.1742                14.7479                 5.4360

                     37                     38                     39
                      A                      A                      A
 Frequencies --   3212.0543              3528.0228              3815.8765
 Red. masses --      1.1053                 1.1693                 1.0672
 Frc consts  --      6.7189                 8.5750                 9.1559
 IR Inten    --     17.6639                61.0152                14.9915

 - Thermochemistry -
 -------------------
 Temperature   298.150 Kelvin.  Pressure   1.00000 Atm.
 Atom     1 has atomic number  8 and mass  15.99491

 Molecular mass:   115.03952 amu.
 Principal axes and moments of inertia in atomic units:
                           1         2         3
     Eigenvalues --   457.257951551.360861633.22069
           X            0.99998  -0.00367   0.00540
           Y            0.00317   0.99581   0.09135
           Z           -0.00571  -0.09134   0.99580
 This molecule is an asymmetric top.
 Rotational symmetry number  1.
 Warning -- assumption of classical behavior for rotation
           may cause significant error
 Rotational temperatures (Kelvin)      0.18942     0.05583     0.05303
 Rotational constants (GHZ):           3.94688     1.16333     1.10502
    4 imaginary frequencies ignored.
 Zero-point vibrational energy     292516.4 (Joules/Mol)
                                   69.91310 (Kcal/Mol)
 Warning -- explicit consideration of  10 degrees of freedom as
           vibrations may cause significant error
 Vibrational temperatures:     30.13   125.29   172.36   265.12   286.84
          (Kelvin)            446.05   562.37   606.59   830.71   891.66
                             1040.89  1067.82  1115.18  1172.69  1292.49
                             1359.25  1601.41  1666.12  1766.13  1912.28
                             1977.08  2077.00  2093.67  2198.28  2211.88
                             2223.26  2748.38  3272.10  4470.61  4515.88
                             4584.92  4591.18  4621.43  5076.04  5490.20

 Zero-point correction=                           0.111414 (Hartree/Particle)
 Thermal correction to Energy=                    0.119648
 Thermal correction to Enthalpy=                  0.120592
 Thermal correction to Gibbs Free Energy=         0.076181
 Sum of electronic and zero-point Energies=           -419.844383
 Sum of electronic and thermal Energies=              -419.836149
 Sum of electronic and thermal Enthalpies=            -419.835204
 Sum of electronic and thermal Free Energies=         -419.879616

                     E (Thermal)             CV                S
                      KCal/Mol        Cal/Mol-Kelvin    Cal/Mol-Kelvin
 Total                   75.080             27.315             93.472
 Electronic               0.000              0.000              1.377
 Translational            0.889              2.981             40.136
 Rotational               0.889              2.981             28.540
 Vibrational             73.303             21.353             23.420
 Vibration     1          0.593              1.986              6.543
 Vibration     2          0.601              1.958              3.725
 Vibration     3          0.609              1.933              3.104
 Vibration     4          0.631              1.861              2.285
 Vibration     5          0.637              1.841              2.139
 Vibration     6          0.699              1.655              1.362
 Vibration     7          0.759              1.490              0.997
 Vibration     8          0.784              1.423              0.887
 Vibration     9          0.934              1.080              0.490
 Vibration    10          0.980              0.990              0.417

 Normal termination of Gaussian 16 at Fri Jun 20 14:29:40 2025.
