 Gaussian 16, Revision A.03,
 Gaussian 16:  ES64L-G16RevA.03 25-Dec-2016

 --------------------------
 # freq 6-311++g(d,p) m062x
 --------------------------

 -------------------
 Title Card Required
 -------------------
 Symbolic Z-matrix:
 Charge =  0 Multiplicity = 2

                         Standard orientation:
 ---------------------------------------------------------------------
 Center     Atomic      Atomic             Coordinates (Angstroms)
 Number     Number       Type             X           Y           Z
 ---------------------------------------------------------------------
      1          8           0        2.179857    1.379640   -0.016816
      2          1           0        2.823672    1.222752    0.692173
      3          6           0        2.454872   -1.185476   -0.548152
      4          1           0        3.333139   -1.675501   -0.899303
      5          6           0        1.492515   -0.560016   -0.167252
      6          6           0        0.160552   -0.192560    0.327362
      7          8           0       -0.173705   -0.335922    1.469300
      8          8           0       -0.593336    0.282732   -0.654792
      9          6           0       -1.925698    0.695653   -0.287721
     10          6           0       -2.860445   -0.494359   -0.195908
     11          1           0       -2.218188    1.378356   -1.083306
     12          1           0       -1.872920    1.238368    0.656696
     13          1           0       -3.874459   -0.146936    0.011469
     14          1           0       -2.870034   -1.044806   -1.137881
     15          1           0       -2.554504   -1.163289    0.608642
 ---------------------------------------------------------------------

 SCF Done:  E(UM062X) =  -420.202313666     A.U. after   24 cycles

 The electronic state is 2-A.
 Alpha  occ. eigenvalues --  -19.68156 -19.66154 -19.63018 -10.70626 -10.60445
 Alpha  occ. eigenvalues --  -10.58874 -10.58213 -10.53720  -1.25668  -1.16348
 Alpha  occ. eigenvalues --   -1.12197  -0.90973  -0.87528  -0.78159  -0.70789
 Alpha  occ. eigenvalues --   -0.64545  -0.61978  -0.58533  -0.56755  -0.54396
 Alpha  occ. eigenvalues --   -0.53449  -0.50483  -0.48307  -0.46291  -0.45251
 Alpha  occ. eigenvalues --   -0.42075  -0.41185  -0.39707  -0.38346  -0.36614
 Alpha  occ. eigenvalues --   -0.34519
 Alpha virt. eigenvalues --   -0.00721  -0.00296   0.00522   0.01537   0.02345
 Alpha virt. eigenvalues --    0.02762   0.03402   0.04110   0.05501   0.06639
 Alpha virt. eigenvalues --    0.07273   0.07796   0.08151   0.09106   0.10383

  Beta  occ. eigenvalues --  -19.68161 -19.64699 -19.63037 -10.70603 -10.60445
  Beta  occ. eigenvalues --  -10.58913 -10.58007 -10.53720  -1.25674  -1.16387
  Beta  occ. eigenvalues --   -1.05977  -0.90465  -0.87097  -0.77951  -0.70567
  Beta  occ. eigenvalues --   -0.64456  -0.61535  -0.58440  -0.56489  -0.53593
  Beta  occ. eigenvalues --   -0.51713  -0.49216  -0.46630  -0.45247  -0.42044
  Beta  occ. eigenvalues --   -0.39557  -0.39208  -0.38369  -0.37888  -0.35936
  Beta virt. eigenvalues --   -0.09439  -0.00244   0.00161   0.00820   0.01856
  Beta virt. eigenvalues --    0.02441   0.02803   0.03403   0.04188   0.05531
  Beta virt. eigenvalues --    0.06518   0.07393   0.07839   0.08190   0.09184

 Mulliken charges and spin densities:
               1          2
     1  O   -0.223619   0.813276
     2  H    0.236525  -0.017842
     3  C   -0.632407   0.307012
     4  H    0.196245  -0.014697
     5  C    0.675724  -0.138872
     6  C   -0.346586   0.058382
     7  O   -0.201136  -0.008746
     8  O    0.055704   0.000317
     9  C   -0.260545   0.001912
    10  C   -0.418450  -0.000723
    11  H    0.201594   0.000244
    12  H    0.197827  -0.000727
    13  H    0.161514   0.000302
    14  H    0.165503  -0.000015
    15  H    0.192106   0.000176
 Sum of Mulliken charges =  -0.00000   1.00000

 Dipole moment (field-independent basis, Debye):
    X=              0.1791    Y=             -0.8900    Z=             -0.7833  Tot=              1.1991
 Quadrupole moment (field-independent basis, Debye-Ang):
   XX=            -32.0476   YY=            -46.6113   ZZ=            -51.8589
   XY=             -5.9527   XZ=              2.2431   YZ=              4.0661

  Exact polarizability:  86.420  -5.717  76.953  -3.577   4.895  60.434
 Approx polarizability:  87.742 -12.419  84.564  -7.435   4.288  78.554

 ******    2 imaginary frequencies (negative Signs) ******

                      1                      2                      3
                      A                      A                      A
 Frequencies --   -392.5248               -22.6816                60.5111
 Red. masses --     11.8891                 4.7636                 3.8452
 Frc consts  --      1.0793                 0.0014                 0.0083
 IR Inten    --     51.9981                 7.8701                 2.2678

                      4                      5                      6
                      A                      A                      A
 Frequencies --    113.1918               129.7680               162.4637
 Red. masses --      4.1122                 4.9483                 2.4870
 Frc consts  --      0.0310                 0.0491                 0.0387
 IR Inten    --      0.9033                17.7859                13.2103

                      7                      8                      9
                      A                      A                      A
 Frequencies --    195.8922               229.9948               255.8845
 Red. masses --      1.3874                 1.3201                 2.7531
 Frc consts  --      0.0314                 0.0411                 0.1062
 IR Inten    --     45.2103                 1.5947                12.8836

                     10                     11                     12
                      A                      A                      A
 Frequencies --    338.1495               417.3909               562.4690
 Red. masses --      2.8889                 3.7748                 3.6486
 Frc consts  --      0.1946                 0.3875                 0.6801
 IR Inten    --     12.0101                 0.4600                 7.3655

                     13                     14                     15
                      A                      A                      A
 Frequencies --    607.2301               698.0552               701.6576
 Red. masses --      6.4201                 1.1382                 1.3057
 Frc consts  --      1.3948                 0.3268                 0.3787
 IR Inten    --     11.7665                94.9167                16.7439

                     16                     17                     18
                      A                      A                      A
 Frequencies --    733.6814               772.1904               799.8192
 Red. masses --      1.3284                 9.0012                 1.1891
 Frc consts  --      0.4213                 3.1623                 0.4482
 IR Inten    --     23.8925                60.5766                 4.9274

                     19                     20                     21
                      A                      A                      A
 Frequencies --    895.8260               927.6866              1077.7728
 Red. masses --      3.1478                 2.8740                 4.1130
 Frc consts  --      1.4883                 1.4573                 2.8149
 IR Inten    --     15.4951                 7.3082                20.3070

                     22                     23                     24
                      A                      A                      A
 Frequencies --   1127.8625              1202.9582              1290.7208
 Red. masses --      2.0937                 1.7733                 3.6243
 Frc consts  --      1.5692                 1.5119                 3.5575
 IR Inten    --     20.2119                 6.0656               572.6930

                     25                     26                     27
                      A                      A                      A
 Frequencies --   1348.6505              1400.6971              1430.7727
 Red. masses --      1.2516                 1.2839                 1.3905
 Frc consts  --      1.3413                 1.4842                 1.6772
 IR Inten    --    107.3429                34.5097                 7.0280

                     28                     29                     30
                      A                      A                      A
 Frequencies --   1492.1033              1502.7758              1514.9949
 Red. masses --      1.0408                 1.0606                 1.0855
 Frc consts  --      1.3653                 1.4113                 1.4679
 IR Inten    --     10.5202                 1.5222                15.8897

                     31                     32                     33
                      A                      A                      A
 Frequencies --   1844.9735              2174.6270              3075.2698
 Red. masses --     11.9557                 6.1237                 1.0354
 Frc consts  --     23.9776                17.0620                 5.7693
 IR Inten    --    336.0039                82.8676                10.6859

                     34                     35                     36
                      A                      A                      A
 Frequencies --   3108.1767              3150.1654              3155.1506
 Red. masses --      1.0609                 1.1014                 1.1048
 Frc consts  --      6.0386                 6.4394                 6.4798
 IR Inten    --     15.1875                14.8055                 1.9825

                     37                     38                     39
                      A                      A                      A
 Frequencies --   3175.9319              3480.7307              3810.5063
 Red. masses --      1.1073                 1.1568                 1.0674
 Frc consts  --      6.5807                 8.2578                 9.1317
 IR Inten    --     14.8672                68.2639                46.4020

 - Thermochemistry -
 -------------------
 Temperature   298.150 Kelvin.  Pressure   1.00000 Atm.
 Atom     1 has atomic number  8 and mass  15.99491

 Molecular mass:   115.03952 amu.
 Principal axes and moments of inertia in atomic units:
                           1         2         3
     Eigenvalues --   450.903601549.459641625.88501
           X            0.99998  -0.00363   0.00532
           Y            0.00308   0.99499   0.09995
           Z           -0.00566  -0.09994   0.99498
 This molecule is an asymmetric top.
 Rotational symmetry number  1.
 Warning -- assumption of classical behavior for rotation
           may cause significant error
 Rotational temperatures (Kelvin)      0.19209     0.05590     0.05327
 Rotational constants (GHZ):           4.00250     1.16476     1.11001
    2 imaginary frequencies ignored.
 Zero-point vibrational energy     292885.9 (Joules/Mol)
                                   70.00142 (Kcal/Mol)
 Warning -- explicit consideration of  11 degrees of freedom as
           vibrations may cause significant error
 Vibrational temperatures:     87.06   162.86   186.71   233.75   281.85
          (Kelvin)            330.91   368.16   486.52   600.53   809.27
                              873.67  1004.35  1009.53  1055.60  1111.01
                             1150.76  1288.89  1334.73  1550.67  1622.74
                             1730.79  1857.06  1940.41  2015.29  2058.56
                             2146.80  2162.16  2179.74  2654.51  3128.80
                             4424.63  4471.97  4532.39  4539.56  4569.46
                             5008.00  5482.47

 Zero-point correction=                           0.111554 (Hartree/Particle)
 Thermal correction to Energy=                    0.120488
 Thermal correction to Enthalpy=                  0.121432
 Thermal correction to Gibbs Free Energy=         0.076841
 Sum of electronic and zero-point Energies=           -420.090759
 Sum of electronic and thermal Energies=              -420.081826
 Sum of electronic and thermal Enthalpies=            -420.080882
 Sum of electronic and thermal Free Energies=         -420.125473

                     E (Thermal)             CV                S
                      KCal/Mol        Cal/Mol-Kelvin    Cal/Mol-Kelvin
 Total                   75.607             30.472             93.850
 Electronic               0.000              0.000              1.377
 Translational            0.889              2.981             40.136
 Rotational               0.889              2.981             28.520
 Vibrational             73.830             24.510             23.816
 Vibration     1          0.597              1.973              4.440
 Vibration     2          0.607              1.939              3.213
 Vibration     3          0.612              1.924              2.949
 Vibration     4          0.623              1.888              2.521
 Vibration     5          0.636              1.846              2.171
 Vibration     6          0.652              1.795              1.879
 Vibration     7          0.666              1.753              1.690
 Vibration     8          0.718              1.599              1.221
 Vibration     9          0.780              1.432              0.901
 Vibration    10          0.918              1.112              0.519
 Vibration    11          0.966              1.016              0.437

 1\1\GINC-AJ\Freq\UM062X\6-311++G(d,p)\C5H7O3(2)\AAYUSH\23-Jun-2025\0\\
 # freq 6-311++g(d,p) m062x\\Title Card Required\\0,2\O,2.179857,1.3796
 4,-0.016816\H,2.823672,1.222752,0.692173\C,2.454872,-1.185476,-0.54815
 2\H,3.333139,-1.675501,-0.899303\C,1.492515,-0.560016,-0.167252\C,0.16
 0552,-0.19256,0.327362\O,-0.173705,-0.335922,1.4693\O,-0.593336,0.2827
 32,-0.654792\C,-1.925698,0.695653,-0.287721\C,-2.860445,-0.494359,-0.1
 95908\H,-2.218188,1.378356,-1.083306\H,-1.87292,1.238368,0.656696\H,-3
 .874459,-0.146936,0.011469\H,-2.870034,-1.044806,-1.137881\H,-2.554504

 Normal termination of Gaussian 16 at Mon Jun 23 07:41:21 2025.
