 Gaussian 16, Revision A.03,
 Gaussian 16:  ES64L-G16RevA.03 25-Dec-2016

 --------------------------
 # ccsd(t)/6-311++g(d,p) sp
 --------------------------

 -------------------
 Title Card Required
 -------------------
 Symbolic Z-matrix:
 Charge =  0 Multiplicity = 2

                         Standard orientation:
 ---------------------------------------------------------------------
 Center     Atomic      Atomic             Coordinates (Angstroms)
 Number     Number       Type             X           Y           Z
 ---------------------------------------------------------------------
      1          8           0        2.115269    1.246962    0.035451
      2          1           0        2.781761    1.157988    0.727815
      3          6           0        2.435318   -1.155998   -0.604512
      4          1           0        3.333516   -1.593815   -0.982500
      5          6           0        1.593865   -0.305294   -0.162817
      6          6           0        0.169570   -0.198929    0.317498
      7          8           0       -0.168339   -0.421784    1.445164
      8          8           0       -0.595388    0.307756   -0.639948
      9          6           0       -1.931079    0.693317   -0.252241
     10          6           0       -2.857300   -0.505341   -0.221188
     11          1           0       -2.227783    1.414627   -1.011400
     12          1           0       -1.879129    1.186801    0.719029
     13          1           0       -3.873765   -0.176584    0.003844
     14          1           0       -2.863527   -1.006639   -1.190266
     15          1           0       -2.545654   -1.212389    0.547700
 ---------------------------------------------------------------------

 SCF Done:  E(UHF) =  -417.992101855     A.U. after   27 cycles
 E2 =    -0.1269157752D+01 EUMP2 =    -0.41926125960661D+03
 CCSD(T)= -0.41937508051D+03

 The electronic state is 2-A.
 Alpha  occ. eigenvalues --  -20.61209 -20.59305 -20.55894 -11.41049 -11.31478
 Alpha  occ. eigenvalues --  -11.29594 -11.28625 -11.22525  -1.48216  -1.37953
 Alpha  occ. eigenvalues --   -1.35211  -1.08824  -1.04612  -0.92599  -0.84427
 Alpha  occ. eigenvalues --   -0.76760  -0.73015  -0.70021  -0.67958  -0.65131
 Alpha  occ. eigenvalues --   -0.63162  -0.60608  -0.58259  -0.54477  -0.53681
 Alpha  occ. eigenvalues --   -0.52128  -0.50164  -0.47902  -0.46301  -0.43824
 Alpha  occ. eigenvalues --   -0.41503
 Alpha virt. eigenvalues --    0.03718   0.04508   0.05799   0.06633   0.07000
 Alpha virt. eigenvalues --    0.08231   0.09256   0.11281   0.11472   0.12996
 Alpha virt. eigenvalues --    0.13447   0.13584   0.14422   0.14646   0.16648

  Beta  occ. eigenvalues --  -20.61216 -20.57693 -20.56085 -11.40739 -11.33497
  Beta  occ. eigenvalues --  -11.29598 -11.25357 -11.22525  -1.48279  -1.38264
  Beta  occ. eigenvalues --   -1.30627  -1.07031  -1.03078  -0.90977  -0.82818
  Beta  occ. eigenvalues --   -0.76227  -0.71282  -0.70112  -0.67030  -0.64817
  Beta  occ. eigenvalues --   -0.63152  -0.58843  -0.55151  -0.53871  -0.52359
  Beta  occ. eigenvalues --   -0.50352  -0.49787  -0.47717  -0.46736  -0.41845
  Beta virt. eigenvalues --    0.03858   0.04124   0.04545   0.06431   0.06881
  Beta virt. eigenvalues --    0.07259   0.08488   0.09278   0.10399   0.12982
  Beta virt. eigenvalues --    0.13318   0.13675   0.13978   0.14662   0.16642

 Mulliken charges and spin densities:
               1          2
     1  O   -0.286797   0.350513
     2  H    0.266092  -0.011682
     3  C    0.130977   1.653612
     4  H    0.250186  -0.103849
     5  C   -0.087352  -1.026439
     6  C   -0.193133   0.170054
     7  O   -0.294724  -0.035163
     8  O   -0.043337   0.002892
     9  C   -0.151378   0.000972
    10  C   -0.400788  -0.001323
    11  H    0.169192   0.000050
    12  H    0.184190   0.000001
    13  H    0.130154   0.000058
    14  H    0.144013   0.000103
    15  H    0.182705   0.000199
 Sum of Mulliken charges =  -0.00000   1.00000

 Dipole moment (field-independent basis, Debye):
    X=              0.3534    Y=             -1.0296    Z=             -0.9942  Tot=              1.4743
 Quadrupole moment (field-independent basis, Debye-Ang):
   XX=            -32.4106   YY=            -47.8317   ZZ=            -51.9786
   XY=             -6.1749   XZ=              1.9887   YZ=              4.3609

 =-419.3158839\CCSD=-419.3206\CCSD(T)=-419.3750805\S2=0.999379\S2-1=0.9
 Normal termination of Gaussian 16 at Mon Aug  4 15:23:23 2025.
