 Gaussian 16, Revision A.03,
 Gaussian 16:  ES64L-G16RevA.03 25-Dec-2016

 --------------------------
 # freq 6-311++g(d,p) m062x
 --------------------------

 -------------------
 Title Card Required
 -------------------
 Symbolic Z-matrix:
 Charge =  0 Multiplicity = 2

                         Standard orientation:
 ---------------------------------------------------------------------
 Center     Atomic      Atomic             Coordinates (Angstroms)
 Number     Number       Type             X           Y           Z
 ---------------------------------------------------------------------
      1          8           0        2.204185    1.425850   -0.031442
      2          1           0        2.831770    1.235854    0.685089
      3          6           0        2.457628   -1.203309   -0.533741
      4          1           0        3.350587   -1.672591   -0.875394
      5          6           0        1.459795   -0.640899   -0.165455
      6          6           0        0.154962   -0.201576    0.328667
      7          8           0       -0.176600   -0.309228    1.476076
      8          8           0       -0.592686    0.276086   -0.658435
      9          6           0       -1.923106    0.699370   -0.297454
     10          6           0       -2.861530   -0.487095   -0.189982
     11          1           0       -2.213411    1.371678   -1.102608
     12          1           0       -1.869809    1.254888    0.639390
     13          1           0       -3.874671   -0.134134    0.012195
     14          1           0       -2.871991   -1.050337   -1.124335
     15          1           0       -2.558159   -1.145967    0.623851
 ---------------------------------------------------------------------

 SCF Done:  E(UM062X) =  -420.205189267     A.U. after   24 cycles

 The electronic state is 2-A.
 Alpha  occ. eigenvalues --  -19.68077 -19.67089 -19.62941 -10.70556 -10.60393
 Alpha  occ. eigenvalues --  -10.57969 -10.57624 -10.53694  -1.25562  -1.16248
 Alpha  occ. eigenvalues --   -1.12950  -0.90675  -0.87296  -0.78076  -0.70611
 Alpha  occ. eigenvalues --   -0.64401  -0.61677  -0.58466  -0.56630  -0.54843
 Alpha  occ. eigenvalues --   -0.53474  -0.50616  -0.48421  -0.46376  -0.45230
 Alpha  occ. eigenvalues --   -0.42321  -0.41632  -0.39568  -0.38276  -0.36457
 Alpha  occ. eigenvalues --   -0.35506
 Alpha virt. eigenvalues --   -0.00933  -0.00339   0.00524   0.01544   0.02352
 Alpha virt. eigenvalues --    0.02791   0.03545   0.04210   0.05529   0.06728
 Alpha virt. eigenvalues --    0.07304   0.07787   0.08159   0.09196   0.10287

  Beta  occ. eigenvalues --  -19.68082 -19.65541 -19.62956 -10.70541 -10.60393
  Beta  occ. eigenvalues --  -10.57959 -10.57512 -10.53694  -1.25570  -1.16279
  Beta  occ. eigenvalues --   -1.05748  -0.90362  -0.87002  -0.77947  -0.70478
  Beta  occ. eigenvalues --   -0.64357  -0.61382  -0.58377  -0.56397  -0.53477
  Beta  occ. eigenvalues --   -0.51991  -0.49207  -0.46613  -0.45230  -0.41954
  Beta  occ. eigenvalues --   -0.39503  -0.38969  -0.38279  -0.38057  -0.36070
  Beta virt. eigenvalues --   -0.08865  -0.00348  -0.00148   0.00618   0.01859
  Beta virt. eigenvalues --    0.02456   0.02827   0.03554   0.04300   0.05556
  Beta virt. eigenvalues --    0.06690   0.07406   0.07837   0.08262   0.09302

 Mulliken charges and spin densities:
               1          2
     1  O   -0.212184   0.896686
     2  H    0.236879  -0.019535
     3  C   -1.273197   0.149925
     4  H    0.183681  -0.009500
     5  C    1.215403  -0.073424
     6  C   -0.257610   0.062142
     7  O   -0.195695  -0.006692
     8  O    0.058889   0.000513
     9  C   -0.254373   0.000802
    10  C   -0.419193  -0.000877
    11  H    0.201384   0.000168
    12  H    0.197729  -0.000510
    13  H    0.162033   0.000147
    14  H    0.166044   0.000069
    15  H    0.190211   0.000086
 Sum of Mulliken charges =  -0.00000   1.00000

 Dipole moment (field-independent basis, Debye):
    X=              0.2643    Y=             -0.6430    Z=             -0.7092  Tot=              0.9931
 Quadrupole moment (field-independent basis, Debye-Ang):
   XX=            -31.7646   YY=            -46.5235   ZZ=            -51.9972
   XY=             -5.2988   XZ=              2.5003   YZ=              3.9319

  Exact polarizability:  86.878  -7.464  69.964  -3.985   3.477  60.230
 Approx polarizability:  89.555 -13.189  77.707  -7.942   3.183  78.421

 ******    1 imaginary frequencies (negative Signs) ******

                      1                      2                      3
                      A                      A                      A
 Frequencies --    -37.0231                45.3282               108.3449
 Red. masses --      4.9655                 4.3051                 5.8420
 Frc consts  --      0.0040                 0.0052                 0.0404
 IR Inten    --      7.7016                 3.3788                 5.1404

                      4                      5                      6
                      A                      A                      A
 Frequencies --    112.5044               158.1343               173.7212
 Red. masses --      3.5347                 2.4329                11.3455
 Frc consts  --      0.0264                 0.0358                 0.2017
 IR Inten    --      7.3904                18.5745                 5.8389

                      7                      8                      9
                      A                      A                      A
 Frequencies --    191.6039               228.7581               257.5059
 Red. masses --      1.3839                 1.3049                 2.6990
 Frc consts  --      0.0299                 0.0402                 0.1054
 IR Inten    --     46.9154                 2.3226                15.7808

                     10                     11                     12
                      A                      A                      A
 Frequencies --    338.0657               419.0506               554.0489
 Red. masses --      2.8910                 3.8353                 2.2536
 Frc consts  --      0.1947                 0.3968                 0.4076
 IR Inten    --     11.3953                 0.3291                35.5430

                     13                     14                     15
                      A                      A                      A
 Frequencies --    592.7622               609.4768               720.4707
 Red. masses --      1.4332                 5.4880                 1.3357
 Frc consts  --      0.2967                 1.2011                 0.4085
 IR Inten    --     73.7161                 9.6485                36.8223

                     16                     17                     18
                      A                      A                      A
 Frequencies --    749.3671               778.6205               799.6583
 Red. masses --      1.3256                 8.0676                 1.1986
 Frc consts  --      0.4386                 2.8817                 0.4516
 IR Inten    --     21.0868                53.7931                 4.9508

                     19                     20                     21
                      A                      A                      A
 Frequencies --    895.8273               928.4966              1077.3831
 Red. masses --      3.1251                 2.8604                 4.1519
 Frc consts  --      1.4776                 1.4529                 2.8394
 IR Inten    --     14.6996                 6.5099                20.8327

                     22                     23                     24
                      A                      A                      A
 Frequencies --   1127.5396              1203.0267              1293.0955
 Red. masses --      2.0990                 1.7749                 3.5361
 Frc consts  --      1.5723                 1.5135                 3.4836
 IR Inten    --     21.2583                 5.0411               562.6131

                     25                     26                     27
                      A                      A                      A
 Frequencies --   1347.9900              1400.5552              1429.9875
 Red. masses --      1.2596                 1.2870                 1.3912
 Frc consts  --      1.3485                 1.4874                 1.6761
 IR Inten    --    111.9219                34.5803                 8.8258

                     28                     29                     30
                      A                      A                      A
 Frequencies --   1492.1259              1502.7492              1514.6330
 Red. masses --      1.0409                 1.0611                 1.0852
 Frc consts  --      1.3654                 1.4118                 1.4668
 IR Inten    --     10.4939                 1.8946                17.0136

                     31                     32                     33
                      A                      A                      A
 Frequencies --   1842.0524              2229.3005              3075.1682
 Red. masses --     11.9909                 5.9003                 1.0354
 Frc consts  --     23.9722                17.2768                 5.7687
 IR Inten    --    331.3616                63.2042                10.7231

                     34                     35                     36
                      A                      A                      A
 Frequencies --   3108.4368              3150.2468              3154.9093
 Red. masses --      1.0609                 1.1014                 1.1047
 Frc consts  --      6.0396                 6.4397                 6.4787
 IR Inten    --     16.0037                15.0942                 1.9909

                     37                     38                     39
                      A                      A                      A
 Frequencies --   3175.7948              3486.8036              3800.8578
 Red. masses --      1.1074                 1.1648                 1.0673
 Frc consts  --      6.5804                 8.3433                 9.0844
 IR Inten    --     14.9049                66.7437                38.8204

 - Thermochemistry -
 -------------------
 Temperature   298.150 Kelvin.  Pressure   1.00000 Atm.
 Atom     1 has atomic number  8 and mass  15.99491

 Molecular mass:   115.03952 amu.
 Principal axes and moments of inertia in atomic units:
                           1         2         3
     Eigenvalues --   463.998941553.299611640.94955
           X            0.99998  -0.00374   0.00548
           Y            0.00327   0.99651   0.08345
           Z           -0.00577  -0.08343   0.99650
 This molecule is an asymmetric top.
 Rotational symmetry number  1.
 Warning -- assumption of classical behavior for rotation
           may cause significant error
 Rotational temperatures (Kelvin)      0.18667     0.05576     0.05278
 Rotational constants (GHZ):           3.88954     1.16188     1.09982
    1 imaginary frequencies ignored.
 Zero-point vibrational energy     293530.1 (Joules/Mol)
                                   70.15538 (Kcal/Mol)
 Warning -- explicit consideration of  13 degrees of freedom as
           vibrations may cause significant error
 Vibrational temperatures:     65.22   155.88   161.87   227.52   249.95
          (Kelvin)            275.68   329.13   370.49   486.40   602.92
                              797.15   852.85   876.90  1036.60  1078.17
                             1120.26  1150.53  1288.90  1335.90  1550.11
                             1622.28  1730.89  1860.48  1939.46  2015.09
                             2057.43  2146.84  2162.12  2179.22  2650.30
                             3207.47  4424.48  4472.35  4532.50  4539.21
                             4569.26  5016.73  5468.59

 Zero-point correction=                           0.111800 (Hartree/Particle)
 Thermal correction to Energy=                    0.121460
 Thermal correction to Enthalpy=                  0.122405
 Thermal correction to Gibbs Free Energy=         0.076115
 Sum of electronic and zero-point Energies=           -420.093390
 Sum of electronic and thermal Energies=              -420.083729
 Sum of electronic and thermal Enthalpies=            -420.082785
 Sum of electronic and thermal Free Energies=         -420.129075

                     E (Thermal)             CV                S
                      KCal/Mol        Cal/Mol-Kelvin    Cal/Mol-Kelvin
 Total                   76.218             32.530             97.425
 Electronic               0.000              0.000              1.377
 Translational            0.889              2.981             40.136
 Rotational               0.889              2.981             28.560
 Vibrational             74.440             26.569             27.352
 Vibration     1          0.595              1.979              5.011
 Vibration     2          0.606              1.943              3.298
 Vibration     3          0.607              1.939              3.225
 Vibration     4          0.621              1.894              2.572
 Vibration     5          0.627              1.875              2.395
 Vibration     6          0.634              1.851              2.212
 Vibration     7          0.651              1.797              1.889
 Vibration     8          0.667              1.750              1.679
 Vibration     9          0.718              1.599              1.221
 Vibration    10          0.782              1.429              0.895
 Vibration    11          0.909              1.131              0.536
 Vibration    12          0.950              1.047              0.462
 Vibration    13          0.968              1.012              0.434

 1\1\GINC-AJ\Freq\UM062X\6-311++G(d,p)\C5H7O3(2)\AAYUSH\23-Jun-2025\0\\
 # freq 6-311++g(d,p) m062x\\Title Card Required\\0,2\O,2.204185,1.4258
 5,-0.031442\H,2.83177,1.235854,0.685089\C,2.457628,-1.203309,-0.533741
 \H,3.350587,-1.672591,-0.875394\C,1.459795,-0.640899,-0.165455\C,0.154
 962,-0.201576,0.328667\O,-0.1766,-0.309228,1.476076\O,-0.592686,0.2760
 86,-0.658435\C,-1.923106,0.69937,-0.297454\C,-2.86153,-0.487095,-0.189
 982\H,-2.213411,1.371678,-1.102608\H,-1.869809,1.254888,0.63939\H,-3.8
 74671,-0.134134,0.012195\H,-2.871991,-1.050337,-1.124335\H,-2.558159,-

 Normal termination of Gaussian 16 at Mon Jun 23 07:22:09 2025.
