 Gaussian 16, Revision A.03,
 Gaussian 16:  ES64L-G16RevA.03 25-Dec-2016

 --------------------------
 # freq 6-311++g(d,p) m062x
 --------------------------

 -------------------
 Title Card Required
 -------------------
 Symbolic Z-matrix:
 Charge =  0 Multiplicity = 2

                         Standard orientation:
 ---------------------------------------------------------------------
 Center     Atomic      Atomic             Coordinates (Angstroms)
 Number     Number       Type             X           Y           Z
 ---------------------------------------------------------------------
      1          8           0        2.224021    1.461792   -0.043014
      2          1           0        2.831867    1.245384    0.683561
      3          6           0        2.457336   -1.220146   -0.522985
      4          1           0        3.363480   -1.668601   -0.857845
      5          6           0        1.436685   -0.698433   -0.163244
      6          6           0        0.148774   -0.213034    0.329460
      7          8           0       -0.178612   -0.288246    1.481053
      8          8           0       -0.592226    0.268796   -0.661254
      9          6           0       -1.920241    0.703353   -0.304772
     10          6           0       -2.862339   -0.479506   -0.185539
     11          1           0       -2.207615    1.367948   -1.117296
     12          1           0       -1.865116    1.268564    0.626057
     13          1           0       -3.874756   -0.122290    0.012595
     14          1           0       -2.873409   -1.052258   -1.114076
     15          1           0       -2.561207   -1.130878    0.635206
 ---------------------------------------------------------------------

 SCF Done:  E(UM062X) =  -420.207099274     A.U. after   22 cycles

 The electronic state is 2-A.
 Alpha  occ. eigenvalues --  -19.68058 -19.67520 -19.62947 -10.70558 -10.60380
 Alpha  occ. eigenvalues --  -10.57705 -10.57419 -10.53702  -1.25536  -1.16225
 Alpha  occ. eigenvalues --   -1.13238  -0.90564  -0.87202  -0.78051  -0.70543
 Alpha  occ. eigenvalues --   -0.64354  -0.61565  -0.58452  -0.56572  -0.55099
 Alpha  occ. eigenvalues --   -0.53451  -0.50600  -0.48490  -0.46434  -0.45241
 Alpha  occ. eigenvalues --   -0.42545  -0.41726  -0.39542  -0.38263  -0.36434
 Alpha  occ. eigenvalues --   -0.36001
 Alpha virt. eigenvalues --   -0.01124  -0.00341   0.00516   0.01564   0.02348
 Alpha virt. eigenvalues --    0.02802   0.03590   0.04258   0.05536   0.06783
 Alpha virt. eigenvalues --    0.07388   0.07828   0.08416   0.09387   0.10287

  Beta  occ. eigenvalues --  -19.68062 -19.65944 -19.62959 -10.70548 -10.60380
  Beta  occ. eigenvalues --  -10.57673 -10.57351 -10.53703  -1.25543  -1.16251
  Beta  occ. eigenvalues --   -1.05661  -0.90330  -0.86975  -0.77956  -0.70446
  Beta  occ. eigenvalues --   -0.64325  -0.61344  -0.58375  -0.56375  -0.53422
  Beta  occ. eigenvalues --   -0.52133  -0.49202  -0.46621  -0.45242  -0.41924
  Beta  occ. eigenvalues --   -0.39503  -0.39032  -0.38282  -0.37994  -0.36137
  Beta virt. eigenvalues --   -0.08743  -0.00644  -0.00199   0.00567   0.01871
  Beta virt. eigenvalues --    0.02454   0.02837   0.03610   0.04365   0.05566
  Beta virt. eigenvalues --    0.06777   0.07458   0.07880   0.08536   0.09559

 Mulliken charges and spin densities:
               1          2
     1  O   -0.215283   0.929160
     2  H    0.235242  -0.020792
     3  C   -0.465364   0.142611
     4  H    0.200548  -0.007380
     5  C    0.983622  -0.030452
     6  C   -0.828037  -0.006141
     7  O   -0.195800  -0.005351
     8  O    0.055738   0.000491
     9  C   -0.265539  -0.001131
    10  C   -0.416610  -0.000680
    11  H    0.196124  -0.000141
    12  H    0.198096  -0.000335
    13  H    0.163332   0.000104
    14  H    0.166395   0.000106
    15  H    0.187537  -0.000069
 Sum of Mulliken charges =  -0.00000   1.00000

 Dipole moment (field-independent basis, Debye):
    X=              0.2833    Y=             -0.5732    Z=             -0.6652  Tot=              0.9227
 Quadrupole moment (field-independent basis, Debye-Ang):
   XX=            -31.6685   YY=            -46.5778   ZZ=            -52.0695
   XY=             -5.0685   XZ=              2.6574   YZ=              3.8268

  Exact polarizability:  87.137  -8.360  66.486  -4.158   2.786  60.117
 Approx polarizability:  90.552 -13.408  74.066  -8.145   2.643  78.319

 ******    1 imaginary frequencies (negative Signs) ******

                      1                      2                      3
                      A                      A                      A
 Frequencies --    -26.9559                47.4750               102.2054
 Red. masses --      5.1676                 4.5500                 5.6360
 Frc consts  --      0.0022                 0.0060                 0.0347
 IR Inten    --      7.6802                 2.1586                 5.1107

                      4                      5                      6
                      A                      A                      A
 Frequencies --    114.5819               157.9656               191.7566
 Red. masses --      3.4515                 2.5070                 1.7654
 Frc consts  --      0.0267                 0.0369                 0.0382
 IR Inten    --      3.6063                18.1743                35.0395

                      7                      8                      9
                      A                      A                      A
 Frequencies --    217.3034               229.6667               288.5901
 Red. masses --      2.4464                 1.3403                 3.8997
 Frc consts  --      0.0681                 0.0417                 0.1914
 IR Inten    --     27.2054                 0.7012                 9.2617

                     10                     11                     12
                      A                      A                      A
 Frequencies --    339.2695               422.1128               515.4754
 Red. masses --      2.9316                 3.8809                 1.1123
 Frc consts  --      0.1988                 0.4074                 0.1741
 IR Inten    --     10.6488                 0.3466               115.0497

                     13                     14                     15
                      A                      A                      A
 Frequencies --    566.4602               607.6597               724.3425
 Red. masses --      3.5947                 7.0165                 1.3277
 Frc consts  --      0.6796                 1.5265                 0.4104
 IR Inten    --      8.7551                 7.2573                37.6033

                     16                     17                     18
                      A                      A                      A
 Frequencies --    758.5441               781.3848               799.7839
 Red. masses --      1.3288                 7.5570                 1.2092
 Frc consts  --      0.4505                 2.7185                 0.4557
 IR Inten    --     23.3300                49.4180                 5.1357

                     19                     20                     21
                      A                      A                      A
 Frequencies --    895.7539               927.8581              1075.8913
 Red. masses --      3.1393                 2.8290                 4.1655
 Frc consts  --      1.4841                 1.4350                 2.8409
 IR Inten    --     14.8248                 6.1714                21.1840

                     22                     23                     24
                      A                      A                      A
 Frequencies --   1127.1697              1203.0254              1293.0431
 Red. masses --      2.0995                 1.7753                 3.5171
 Frc consts  --      1.5716                 1.5138                 3.4647
 IR Inten    --     21.9432                 4.8499               557.7231

                     25                     26                     27
                      A                      A                      A
 Frequencies --   1346.7926              1400.2833              1429.2332
 Red. masses --      1.2627                 1.2883                 1.3899
 Frc consts  --      1.3495                 1.4883                 1.6728
 IR Inten    --    112.6912                33.7017                 9.7549

                     28                     29                     30
                      A                      A                      A
 Frequencies --   1492.3134              1502.8923              1514.4887
 Red. masses --      1.0409                 1.0607                 1.0855
 Frc consts  --      1.3657                 1.4116                 1.4669
 IR Inten    --     10.4881                 1.9610                17.5551

                     31                     32                     33
                      A                      A                      A
 Frequencies --   1840.0183              2244.3260              3075.1274
 Red. masses --     12.0010                 5.8351                 1.0353
 Frc consts  --     23.9393                17.3168                 5.7683
 IR Inten    --    329.2426                58.8251                10.6931

                     34                     35                     36
                      A                      A                      A
 Frequencies --   3109.1824              3150.4429              3154.8339
 Red. masses --      1.0608                 1.1014                 1.1047
 Frc consts  --      6.0422                 6.4405                 6.4781
 IR Inten    --     16.3260                15.2116                 2.0734

                     37                     38                     39
                      A                      A                      A
 Frequencies --   3175.9661              3487.5649              3794.8314
 Red. masses --      1.1075                 1.1672                 1.0672
 Frc consts  --      6.5820                 8.3644                 9.0550
 IR Inten    --     14.7236                66.0284                34.5891

 - Thermochemistry -
 -------------------
 Temperature   298.150 Kelvin.  Pressure   1.00000 Atm.
 Atom     1 has atomic number  8 and mass  15.99491

 Molecular mass:   115.03952 amu.
 Principal axes and moments of inertia in atomic units:
                           1         2         3
     Eigenvalues --   474.798421556.025621653.02377
           X            0.99998  -0.00392   0.00560
           Y            0.00350   0.99733   0.07296
           Z           -0.00587  -0.07294   0.99732
 This molecule is an asymmetric top.
 Rotational symmetry number  1.
 Warning -- assumption of classical behavior for rotation
           may cause significant error
 Rotational temperatures (Kelvin)      0.18242     0.05566     0.05240
 Rotational constants (GHZ):           3.80107     1.15984     1.09178
    1 imaginary frequencies ignored.
 Zero-point vibrational energy     293716.8 (Joules/Mol)
                                   70.20000 (Kcal/Mol)
 Warning -- explicit consideration of  13 degrees of freedom as
           vibrations may cause significant error
 Vibrational temperatures:     68.31   147.05   164.86   227.28   275.89
          (Kelvin)            312.65   330.44   415.22   488.13   607.33
                              741.65   815.01   874.29  1042.17  1091.38
                             1124.24  1150.71  1288.79  1334.98  1547.97
                             1621.75  1730.89  1860.40  1937.73  2014.70
                             2056.35  2147.11  2162.33  2179.01  2647.38
                             3229.08  4424.42  4473.42  4532.78  4539.10
                             4569.51  5017.83  5459.92

 Zero-point correction=                           0.111871 (Hartree/Particle)
 Thermal correction to Energy=                    0.121456
 Thermal correction to Enthalpy=                  0.122400
 Thermal correction to Gibbs Free Energy=         0.076344
 Sum of electronic and zero-point Energies=           -420.095228
 Sum of electronic and thermal Energies=              -420.085643
 Sum of electronic and thermal Enthalpies=            -420.084699
 Sum of electronic and thermal Free Energies=         -420.130755

                     E (Thermal)             CV                S
                      KCal/Mol        Cal/Mol-Kelvin    Cal/Mol-Kelvin
 Total                   76.215             32.527             96.933
 Electronic               0.000              0.000              1.377
 Translational            0.889              2.981             40.136
 Rotational               0.889              2.981             28.592
 Vibrational             74.437             26.565             26.828
 Vibration     1          0.595              1.979              4.920
 Vibration     2          0.604              1.947              3.412
 Vibration     3          0.608              1.937              3.190
 Vibration     4          0.621              1.894              2.574
 Vibration     5          0.634              1.851              2.211
 Vibration     6          0.646              1.815              1.981
 Vibration     7          0.652              1.796              1.882
 Vibration     8          0.685              1.695              1.482
 Vibration     9          0.719              1.597              1.216
 Vibration    10          0.784              1.422              0.885
 Vibration    11          0.871              1.216              0.621
 Vibration    12          0.922              1.104              0.511
 Vibration    13          0.966              1.016              0.437

 1\1\GINC-AJ\Freq\UM062X\6-311++G(d,p)\C5H7O3(2)\AAYUSH\23-Jun-2025\0\\
 # freq 6-311++g(d,p) m062x\\Title Card Required\\0,2\O,2.224021,1.4617
 92,-0.043014\H,2.831867,1.245384,0.683561\C,2.457336,-1.220146,-0.5229
 85\H,3.36348,-1.668601,-0.857845\C,1.436685,-0.698433,-0.163244\C,0.14
 8774,-0.213034,0.32946\O,-0.178612,-0.288246,1.481053\O,-0.592226,0.26
 8796,-0.661254\C,-1.920241,0.703353,-0.304772\C,-2.862339,-0.479506,-0
 .185539\H,-2.207615,1.367948,-1.117296\H,-1.865116,1.268564,0.626057\H
 ,-3.874756,-0.12229,0.012595\H,-2.873409,-1.052258,-1.114076\H,-2.5612

 Normal termination of Gaussian 16 at Mon Jun 23 07:05:09 2025.
