 Gaussian 16, Revision A.03,
 Gaussian 16:  ES64L-G16RevA.03 25-Dec-2016

 -------------------
 # freq 6-31+g m062x
 -------------------

 -------------------
 Title Card Required
 -------------------
 Symbolic Z-matrix:
 Charge =  0 Multiplicity = 2

                         Standard orientation:
 ---------------------------------------------------------------------
 Center     Atomic      Atomic             Coordinates (Angstroms)
 Number     Number       Type             X           Y           Z
 ---------------------------------------------------------------------
      1          8           0        2.119994    1.258877    0.029037
      2          1           0        2.784128    1.164451    0.723479
      3          6           0        2.438891   -1.158881   -0.597611
      4          1           0        3.330502   -1.610239   -0.973338
      5          6           0        1.585555   -0.325981   -0.163221
      6          6           0        0.168172   -0.197258    0.318974
      7          8           0       -0.168739   -0.411658    1.448331
      8          8           0       -0.595200    0.304222   -0.641901
      9          6           0       -1.930829    0.692619   -0.256770
     10          6           0       -2.857359   -0.505671   -0.218137
     11          1           0       -2.227214    1.409057   -1.020613
     12          1           0       -1.878893    1.192394    0.711239
     13          1           0       -3.873709   -0.175100    0.004717
     14          1           0       -2.863729   -1.013172   -1.183979
     15          1           0       -2.546110   -1.207888    0.555341
 ---------------------------------------------------------------------

 SCF Done:  E(UM062X) =  -419.968709966     A.U. after   19 cycles

 The electronic state is 2-A.
 Alpha  occ. eigenvalues --  -19.70690 -19.67095 -19.66519 -10.72767 -10.64865
 Alpha  occ. eigenvalues --  -10.61528 -10.61114 -10.54612  -1.28234  -1.18840
 Alpha  occ. eigenvalues --   -1.13228  -0.91997  -0.88478  -0.78621  -0.71903
 Alpha  occ. eigenvalues --   -0.64980  -0.62399  -0.59357  -0.57593  -0.55174
 Alpha  occ. eigenvalues --   -0.53843  -0.49719  -0.48382  -0.46446  -0.45261
 Alpha  occ. eigenvalues --   -0.42343  -0.40482  -0.39588  -0.38252  -0.36302
 Alpha  occ. eigenvalues --   -0.31179
 Alpha virt. eigenvalues --    0.00579   0.01806   0.02238   0.02773   0.03833
 Alpha virt. eigenvalues --    0.04092   0.05313   0.06158   0.07797   0.08069
 Alpha virt. eigenvalues --    0.08710   0.09003   0.09492   0.11247   0.11963

  Beta  occ. eigenvalues --  -19.70687 -19.66532 -19.66524 -10.72699 -10.65044
  Beta  occ. eigenvalues --  -10.61527 -10.60432 -10.54612  -1.28197  -1.18829
  Beta  occ. eigenvalues --   -1.11388  -0.90911  -0.87464  -0.78039  -0.71114
  Beta  occ. eigenvalues --   -0.64685  -0.61371  -0.58856  -0.57374  -0.54592
  Beta  occ. eigenvalues --   -0.53483  -0.49457  -0.46924  -0.45212  -0.44236
  Beta  occ. eigenvalues --   -0.42006  -0.39391  -0.38945  -0.38216  -0.34908
  Beta virt. eigenvalues --   -0.08790   0.01351   0.01471   0.02545   0.02931
  Beta virt. eigenvalues --    0.03901   0.04020   0.05309   0.05921   0.07624
  Beta virt. eigenvalues --    0.08109   0.08405   0.08841   0.09597   0.10945

 Mulliken charges and spin densities:
               1          2
     1  O   -0.507818   0.269593
     2  H    0.424710  -0.005660
     3  C    0.316991   1.029895
     4  H    0.284101  -0.036382
     5  C   -0.518819  -0.324330
     6  C    0.212133   0.062734
     7  O   -0.356711  -0.000268
     8  O   -0.197935   0.001517
     9  C   -0.184457   0.002108
    10  C   -0.592817   0.000946
    11  H    0.224745  -0.000156
    12  H    0.235242  -0.000102
    13  H    0.207329   0.000220
    14  H    0.219086  -0.000064
    15  H    0.234220  -0.000051
 Sum of Mulliken charges =  -0.00000   1.00000

 Dipole moment (field-independent basis, Debye):
    X=              0.1599    Y=             -1.2749    Z=             -0.6407  Tot=              1.4358
 Quadrupole moment (field-independent basis, Debye-Ang):
   XX=            -31.9230   YY=            -48.5750   ZZ=            -52.7555
   XY=             -6.6045   XZ=              2.2852   YZ=              4.6122

  Exact polarizability:  78.890  -6.481  67.871  -2.574   3.775  58.001
 Approx polarizability:  74.167  -9.728  79.336  -5.120   3.284  73.167

 ******    3 imaginary frequencies (negative Signs) ******

                      1                      2                      3
                      A                      A                      A
 Frequencies --   -473.7979              -425.6983               -79.8820
 Red. masses --      1.0718                 3.4871                 6.7321
 Frc consts  --      0.1418                 0.3723                 0.0253
 IR Inten    --    116.2899               109.2405                 4.4735

                      4                      5                      6
                      A                      A                      A
 Frequencies --     48.7235                71.5543               159.2409
 Red. masses --      2.4826                 3.4024                 1.8935
 Frc consts  --      0.0035                 0.0103                 0.0283
 IR Inten    --      2.0918                 8.5820                 4.0759

                      7                      8                      9
                      A                      A                      A
 Frequencies --    192.5416               205.8384               243.9694
 Red. masses --      1.8442                 1.7544                 3.9067
 Frc consts  --      0.0403                 0.0438                 0.1370
 IR Inten    --      8.6198                 1.3981                 2.1641

                     10                     11                     12
                      A                      A                      A
 Frequencies --    318.6039               367.0425               431.4749
 Red. masses --      3.2378                 8.3977                 3.6848
 Frc consts  --      0.1936                 0.6666                 0.4042
 IR Inten    --     16.8120                 0.8708                 3.2373

                     13                     14                     15
                      A                      A                      A
 Frequencies --    590.2264               638.5415               710.8715
 Red. masses --      3.6125                 5.4606                 1.3491
 Frc consts  --      0.7415                 1.3118                 0.4017
 IR Inten    --     17.4428                17.3953                55.0863

                     16                     17                     18
                      A                      A                      A
 Frequencies --    734.9727               816.0111               893.1792
 Red. masses --     10.5579                 1.2977                 3.3606
 Frc consts  --      3.3602                 0.5091                 1.5796
 IR Inten    --     17.0615                 6.7597                20.4581

                     19                     20                     21
                      A                      A                      A
 Frequencies --    929.4279              1024.0083              1112.3480
 Red. masses --      2.3552                 1.2872                 3.9280
 Frc consts  --      1.1987                 0.7952                 2.8635
 IR Inten    --      5.1285                40.6405                 7.9936

                     22                     23                     24
                      A                      A                      A
 Frequencies --   1156.8369              1227.1133              1322.4518
 Red. masses --      2.0499                 1.7379                 2.1602
 Frc consts  --      1.6163                 1.5419                 2.2259
 IR Inten    --     18.6202                 5.7802               334.6025

                     25                     26                     27
                      A                      A                      A
 Frequencies --   1370.7086              1443.2809              1456.5135
 Red. masses --      1.6491                 1.3515                 1.2718
 Frc consts  --      1.8255                 1.6587                 1.5897
 IR Inten    --    237.0696                27.3248                15.6636

                     28                     29                     30
                      A                      A                      A
 Frequencies --   1528.2940              1538.3243              1546.5739
 Red. masses --      1.0418                 1.0636                 1.0787
 Frc consts  --      1.4337                 1.4830                 1.5202
 IR Inten    --     14.1568                 2.0422                20.5096

                     31                     32                     33
                      A                      A                      A
 Frequencies --   1865.4738              1925.9837              3107.4568
 Red. masses --      7.5298                11.0600                 1.0352
 Frc consts  --     15.4388                24.1719                 5.8894
 IR Inten    --     67.8279               242.1904                13.5818

                     34                     35                     36
                      A                      A                      A
 Frequencies --   3138.6788              3186.6824              3191.5572
 Red. masses --      1.0603                 1.0999                 1.1027
 Frc consts  --      6.1539                 6.5809                 6.6181
 IR Inten    --     16.6121                15.2428                 4.5128

                     37                     38                     39
                      A                      A                      A
 Frequencies --   3212.6633              3477.6508              3873.0807
 Red. masses --      1.1053                 1.1259                 1.0670
 Frc consts  --      6.7215                 8.0225                 9.4305
 IR Inten    --     17.2564                61.6727                39.9497

 - Thermochemistry -
 -------------------
 Temperature   298.150 Kelvin.  Pressure   1.00000 Atm.
 Atom     1 has atomic number  8 and mass  15.99491

 Molecular mass:   115.03952 amu.
 Principal axes and moments of inertia in atomic units:
                           1         2         3
     Eigenvalues --   422.307621540.379051593.32869
           X            0.99998  -0.00343   0.00481
           Y            0.00262   0.98732   0.15872
           Z           -0.00530  -0.15870   0.98731
 This molecule is an asymmetric top.
 Rotational symmetry number  1.
 Rotational temperatures (Kelvin)      0.20510     0.05623     0.05436
 Rotational constants (GHZ):           4.27352     1.17162     1.13269
    3 imaginary frequencies ignored.
 Zero-point vibrational energy     293431.4 (Joules/Mol)
                                   70.13179 (Kcal/Mol)
 Warning -- explicit consideration of  10 degrees of freedom as
           vibrations may cause significant error
 Vibrational temperatures:     70.10   102.95   229.11   277.02   296.16
          (Kelvin)            351.02   458.40   528.09   620.80   849.20
                              918.72  1022.79  1057.46  1174.06  1285.09
                             1337.24  1473.32  1600.42  1664.43  1765.54
                             1902.71  1972.14  2076.56  2095.60  2198.87
                             2213.31  2225.17  2684.00  2771.06  4470.94
                             4515.86  4584.93  4591.94  4622.31  5003.56
                             5572.50

 Zero-point correction=                           0.111762 (Hartree/Particle)
 Thermal correction to Energy=                    0.120318
 Thermal correction to Enthalpy=                  0.121262
 Thermal correction to Gibbs Free Energy=         0.077066
 Sum of electronic and zero-point Energies=           -419.856948
 Sum of electronic and thermal Energies=              -419.848392
 Sum of electronic and thermal Enthalpies=            -419.847448
 Sum of electronic and thermal Free Energies=         -419.891644

                     E (Thermal)             CV                S
                      KCal/Mol        Cal/Mol-Kelvin    Cal/Mol-Kelvin
 Total                   75.500             28.715             93.017
 Electronic               0.000              0.000              1.377
 Translational            0.889              2.981             40.136
 Rotational               0.889              2.981             28.429
 Vibrational             73.723             22.753             23.075
 Vibration     1          0.595              1.978              4.869
 Vibration     2          0.598              1.968              4.110
 Vibration     3          0.621              1.892              2.559
 Vibration     4          0.635              1.850              2.203
 Vibration     5          0.640              1.832              2.080
 Vibration     6          0.659              1.773              1.774
 Vibration     7          0.705              1.638              1.317
 Vibration     8          0.740              1.540              1.092
 Vibration     9          0.793              1.402              0.854
 Vibration    10          0.948              1.053              0.467

 Normal termination of Gaussian 16 at Fri Jun 20 14:40:07 2025.
