 Gaussian 16, Revision A.03,
 Gaussian 16:  ES64L-G16RevA.03 25-Dec-2016

 --------------------------
 # freq 6-311++g(d,p) m062x
 --------------------------

 -------------------
 Title Card Required
 -------------------
 Symbolic Z-matrix:
 Charge =  0 Multiplicity = 2

                         Standard orientation:
 ---------------------------------------------------------------------
 Center     Atomic      Atomic             Coordinates (Angstroms)
 Number     Number       Type             X           Y           Z
 ---------------------------------------------------------------------
      1          8           0        2.168158    1.357654   -0.009738
      2          1           0        2.816644    1.213861    0.696746
      3          6           0        2.453365   -1.179001   -0.555447
      4          1           0        3.327710   -1.673186   -0.911147
      5          6           0        1.509561   -0.517932   -0.167343
      6          6           0        0.161905   -0.191045    0.326492
      7          8           0       -0.172517   -0.348222    1.466108
      8          8           0       -0.593613    0.285621   -0.652943
      9          6           0       -1.926844    0.694240   -0.283029
     10          6           0       -2.859758   -0.497542   -0.199133
     11          1           0       -2.220072    1.381989   -1.073955
     12          1           0       -1.874181    1.230643    0.664996
     13          1           0       -3.874255   -0.153026    0.010675
     14          1           0       -2.868728   -1.041605   -1.144821
     15          1           0       -2.552707   -1.171417    0.600846
 ---------------------------------------------------------------------

 SCF Done:  E(UM062X) =  -420.201692582     A.U. after   23 cycles

 The electronic state is 2-A.
 Alpha  occ. eigenvalues --  -19.68232 -19.65476 -19.63110 -10.70698 -10.60492
 Alpha  occ. eigenvalues --  -10.59736 -10.58703 -10.53757  -1.25759  -1.16440
 Alpha  occ. eigenvalues --   -1.11597  -0.91204  -0.87693  -0.78237  -0.70939
 Alpha  occ. eigenvalues --   -0.64667  -0.62199  -0.58596  -0.56844  -0.54221
 Alpha  occ. eigenvalues --   -0.53337  -0.50314  -0.48236  -0.46244  -0.45284
 Alpha  occ. eigenvalues --   -0.42058  -0.40715  -0.39830  -0.38407  -0.36733
 Alpha  occ. eigenvalues --   -0.33814
 Alpha virt. eigenvalues --   -0.00653  -0.00250   0.00511   0.01543   0.02328
 Alpha virt. eigenvalues --    0.02734   0.03247   0.04043   0.05471   0.06560
 Alpha virt. eigenvalues --    0.07234   0.07794   0.08158   0.09057   0.10427

  Beta  occ. eigenvalues --  -19.68236 -19.64124 -19.63130 -10.70668 -10.60492
  Beta  occ. eigenvalues --  -10.59808 -10.58429 -10.53757  -1.25763  -1.16480
  Beta  occ. eigenvalues --   -1.06184  -0.90534  -0.87158  -0.77960  -0.70637
  Beta  occ. eigenvalues --   -0.64536  -0.61664  -0.58507  -0.56567  -0.53672
  Beta  occ. eigenvalues --   -0.51578  -0.49216  -0.46656  -0.45276  -0.42121
  Beta  occ. eigenvalues --   -0.39666  -0.39508  -0.38467  -0.37756  -0.35778
  Beta virt. eigenvalues --   -0.09828  -0.00244   0.00251   0.01013   0.01864
  Beta virt. eigenvalues --    0.02402   0.02779   0.03267   0.04120   0.05504
  Beta virt. eigenvalues --    0.06384   0.07364   0.07832   0.08150   0.09127

 Mulliken charges and spin densities:
               1          2
     1  O   -0.237735   0.737874
     2  H    0.236442  -0.015782
     3  C   -0.361242   0.440427
     4  H    0.204257  -0.018397
     5  C    0.451387  -0.195674
     6  C   -0.378021   0.059113
     7  O   -0.204204  -0.009666
     8  O    0.052975   0.000236
     9  C   -0.264266   0.002553
    10  C   -0.419298  -0.000682
    11  H    0.201625   0.000284
    12  H    0.198586  -0.000802
    13  H    0.161471   0.000386
    14  H    0.165380  -0.000059
    15  H    0.192645   0.000188
 Sum of Mulliken charges =  -0.00000   1.00000

 Dipole moment (field-independent basis, Debye):
    X=              0.1069    Y=             -1.1009    Z=             -0.8343  Tot=              1.3854
 Quadrupole moment (field-independent basis, Debye-Ang):
   XX=            -32.2343   YY=            -46.7808   ZZ=            -51.7774
   XY=             -6.4575   XZ=              2.0787   YZ=              4.1165

  Exact polarizability:  86.086  -5.012  79.536  -3.363   5.411  60.502
 Approx polarizability:  86.657 -11.627  88.409  -7.017   4.831  78.622

 ******    1 imaginary frequencies (negative Signs) ******

                      1                      2                      3
                      A                      A                      A
 Frequencies --   -579.4207                39.5262                69.9774
 Red. masses --     12.0674                 4.4402                 3.6826
 Frc consts  --      2.3870                 0.0041                 0.0106
 IR Inten    --     76.0492                 6.8104                 3.0647

                      4                      5                      6
                      A                      A                      A
 Frequencies --    113.6622               145.0705               170.3908
 Red. masses --      3.8717                 4.2268                 2.7667
 Frc consts  --      0.0295                 0.0524                 0.0473
 IR Inten    --      0.8981                28.1221                 6.8404

                      7                      8                      9
                      A                      A                      A
 Frequencies --    197.5623               232.0533               263.6697
 Red. masses --      1.3568                 1.3548                 2.9608
 Frc consts  --      0.0312                 0.0430                 0.1213
 IR Inten    --     45.0017                 0.9597                 9.5121

                     10                     11                     12
                      A                      A                      A
 Frequencies --    338.8101               418.5269               565.1492
 Red. masses --      2.8995                 3.7420                 3.7688
 Frc consts  --      0.1961                 0.3862                 0.7092
 IR Inten    --     12.2446                 0.7358                 4.7921

                     13                     14                     15
                      A                      A                      A
 Frequencies --    606.3330               667.4107               720.1910
 Red. masses --      5.9383                 1.3448                 1.2930
 Frc consts  --      1.2863                 0.3529                 0.3951
 IR Inten    --     13.8695                26.8268                40.6454

                     16                     17                     18
                      A                      A                      A
 Frequencies --    766.4945               779.7204               799.8611
 Red. masses --      4.3758                 1.3387                 1.1884
 Frc consts  --      1.5147                 0.4795                 0.4479
 IR Inten    --     11.2820               110.9679                 4.9776

                     19                     20                     21
                      A                      A                      A
 Frequencies --    895.6840               925.6327              1076.9165
 Red. masses --      3.1925                 2.8515                 4.0780
 Frc consts  --      1.5090                 1.4395                 2.7865
 IR Inten    --     16.3261                 7.6782                20.3254

                     22                     23                     24
                      A                      A                      A
 Frequencies --   1127.8331              1202.7878              1288.2758
 Red. masses --      2.0882                 1.7720                 3.7072
 Frc consts  --      1.5650                 1.5104                 3.6251
 IR Inten    --     19.6019                 7.0761               576.1469

                     25                     26                     27
                      A                      A                      A
 Frequencies --   1348.5303              1400.6698              1430.9279
 Red. masses --      1.2454                 1.2815                 1.3885
 Frc consts  --      1.3344                 1.4813                 1.6751
 IR Inten    --    102.6861                33.2656                 6.2081

                     28                     29                     30
                      A                      A                      A
 Frequencies --   1492.1846              1502.8597              1515.1954
 Red. masses --      1.0408                 1.0601                 1.0857
 Frc consts  --      1.3654                 1.4108                 1.4685
 IR Inten    --     10.5260                 1.3253                15.3207

                     31                     32                     33
                      A                      A                      A
 Frequencies --   1846.0575              2118.2999              3075.3370
 Red. masses --     11.9105                 6.3633                 1.0354
 Frc consts  --     23.9151                16.8232                 5.7695
 IR Inten    --    337.3848                90.4674                10.6031

                     34                     35                     36
                      A                      A                      A
 Frequencies --   3108.4481              3150.2308              3155.3340
 Red. masses --      1.0609                 1.1013                 1.1048
 Frc consts  --      6.0396                 6.4396                 6.4805
 IR Inten    --     14.7518                14.6718                 1.9792

                     37                     38                     39
                      A                      A                      A
 Frequencies --   3176.1965              3474.4959              3818.6709
 Red. masses --      1.1074                 1.1492                 1.0675
 Frc consts  --      6.5822                 8.1741                 9.1717
 IR Inten    --     14.7269                70.3764                52.1588

 - Thermochemistry -
 -------------------
 Temperature   298.150 Kelvin.  Pressure   1.00000 Atm.
 Atom     1 has atomic number  8 and mass  15.99491

 Molecular mass:   115.03952 amu.
 Principal axes and moments of inertia in atomic units:
                           1         2         3
     Eigenvalues --   445.047251547.749261619.15352
           X            0.99998  -0.00360   0.00525
           Y            0.00301   0.99403   0.10905
           Z           -0.00561  -0.10903   0.99402
 This molecule is an asymmetric top.
 Rotational symmetry number  1.
 Warning -- assumption of classical behavior for rotation
           may cause significant error
 Rotational temperatures (Kelvin)      0.19462     0.05596     0.05349
 Rotational constants (GHZ):           4.05517     1.16604     1.11462
    1 imaginary frequencies ignored.
 Zero-point vibrational energy     293234.5 (Joules/Mol)
                                   70.08472 (Kcal/Mol)
 Warning -- explicit consideration of  12 degrees of freedom as
           vibrations may cause significant error
 Vibrational temperatures:     56.87   100.68   163.53   208.72   245.15
          (Kelvin)            284.25   333.87   379.36   487.47   602.17
                              813.12   872.38   960.26  1036.19  1102.81
                             1121.84  1150.82  1288.69  1331.78  1549.44
                             1622.70  1730.54  1853.54  1940.23  2015.25
                             2058.79  2146.92  2162.28  2180.03  2656.06
                             3047.76  4424.72  4472.36  4532.48  4539.82
                             4569.84  4999.02  5494.22

 Zero-point correction=                           0.111687 (Hartree/Particle)
 Thermal correction to Energy=                    0.121390
 Thermal correction to Enthalpy=                  0.122334
 Thermal correction to Gibbs Free Energy=         0.075580
 Sum of electronic and zero-point Energies=           -420.090005
 Sum of electronic and thermal Energies=              -420.080302
 Sum of electronic and thermal Enthalpies=            -420.079358
 Sum of electronic and thermal Free Energies=         -420.126112

                     E (Thermal)             CV                S
                      KCal/Mol        Cal/Mol-Kelvin    Cal/Mol-Kelvin
 Total                   76.173             32.356             98.402
 Electronic               0.000              0.000              1.377
 Translational            0.889              2.981             40.136
 Rotational               0.889              2.981             28.502
 Vibrational             74.396             26.394             28.387
 Vibration     1          0.594              1.981              5.283
 Vibration     2          0.598              1.968              4.154
 Vibration     3          0.607              1.938              3.205
 Vibration     4          0.616              1.908              2.736
 Vibration     5          0.625              1.879              2.431
 Vibration     6          0.637              1.843              2.156
 Vibration     7          0.653              1.792              1.863
 Vibration     8          0.670              1.739              1.637
 Vibration     9          0.719              1.598              1.218
 Vibration    10          0.781              1.430              0.897
 Vibration    11          0.921              1.107              0.514
 Vibration    12          0.965              1.018              0.439

 Optimization completed.
    -- Stationary point found.

 1\1\GINC-AJ\Freq\UM062X\6-311++G(d,p)\C5H7O3(2)\AAYUSH\23-Jun-2025\0\\
 # freq 6-311++g(d,p) m062x\\Title Card Required\\0,2\O,2.168158,1.3576
 54,-0.009738\H,2.816644,1.213861,0.696746\C,2.453365,-1.179001,-0.5554
 47\H,3.32771,-1.673186,-0.911147\C,1.509561,-0.517932,-0.167343\C,0.16
 1905,-0.191045,0.326492\O,-0.172517,-0.348222,1.466108\O,-0.593613,0.2
 85621,-0.652943\C,-1.926844,0.69424,-0.283029\C,-2.859758,-0.497542,-0
 .199133\H,-2.220072,1.381989,-1.073955\H,-1.874181,1.230643,0.664996\H
 ,-3.874255,-0.153026,0.010675\H,-2.868728,-1.041605,-1.144821\H,-2.552

 Normal termination of Gaussian 16 at Mon Jun 23 07:24:35 2025.
