 Gaussian 16, Revision A.03,
 Gaussian 16:  ES64L-G16RevA.03 25-Dec-2016

 -------------------
 # freq 6-31+g m062x
 -------------------

 -------------------
 Title Card Required
 -------------------
 Symbolic Z-matrix:
 Charge =  0 Multiplicity = 2

                         Standard orientation:
 ---------------------------------------------------------------------
 Center     Atomic      Atomic             Coordinates (Angstroms)
 Number     Number       Type             X           Y           Z
 ---------------------------------------------------------------------
      1          8           0        2.129878    1.281855    0.018066
      2          1           0        2.789966    1.176449    0.715981
      3          6           0        2.444500   -1.163595   -0.585724
      4          1           0        3.325798   -1.636088   -0.956904
      5          6           0        1.568856   -0.368050   -0.164197
      6          6           0        0.165953   -0.194426    0.321435
      7          8           0       -0.169485   -0.394196    1.453559
      8          8           0       -0.594801    0.298402   -0.645167
      9          6           0       -1.930186    0.691906   -0.264388
     10          6           0       -2.857640   -0.505349   -0.212831
     11          1           0       -2.225883    1.400061   -1.036123
     12          1           0       -1.878165    1.202319    0.697980
     13          1           0       -3.873684   -0.171408    0.006322
     14          1           0       -2.864429   -1.023366   -1.173068
     15          1           0       -2.547234   -1.199365    0.568377
 ---------------------------------------------------------------------

 SCF Done:  E(UM062X) =  -419.962091562     A.U. after   20 cycles

 The electronic state is 2-A.
 Alpha  occ. eigenvalues --  -19.70737 -19.66948 -19.66551 -10.72963 -10.64481
 Alpha  occ. eigenvalues --  -10.61559 -10.61223 -10.54646  -1.28308  -1.18924
 Alpha  occ. eigenvalues --   -1.12466  -0.92245  -0.88588  -0.78753  -0.71921
 Alpha  occ. eigenvalues --   -0.65052  -0.62706  -0.59067  -0.57511  -0.54811
 Alpha  occ. eigenvalues --   -0.53755  -0.49726  -0.48233  -0.46472  -0.45316
 Alpha  occ. eigenvalues --   -0.42282  -0.40298  -0.39763  -0.38276  -0.36590
 Alpha  occ. eigenvalues --   -0.31392
 Alpha virt. eigenvalues --    0.00151   0.01790   0.02325   0.02721   0.03850
 Alpha virt. eigenvalues --    0.04124   0.05286   0.06085   0.07751   0.08033
 Alpha virt. eigenvalues --    0.08577   0.08996   0.09462   0.11257   0.11957

  Beta  occ. eigenvalues --  -19.70736 -19.66563 -19.66208 -10.72899 -10.64662
  Beta  occ. eigenvalues --  -10.61558 -10.60617 -10.54646  -1.28281  -1.18927
  Beta  occ. eigenvalues --   -1.10012  -0.91158  -0.87719  -0.78234  -0.71242
  Beta  occ. eigenvalues --   -0.64766  -0.61773  -0.58725  -0.57280  -0.54316
  Beta  occ. eigenvalues --   -0.52928  -0.49399  -0.46935  -0.45274  -0.43201
  Beta  occ. eigenvalues --   -0.41849  -0.39290  -0.38799  -0.38211  -0.35204
  Beta virt. eigenvalues --   -0.09315   0.01150   0.01576   0.02533   0.02837
  Beta virt. eigenvalues --    0.03874   0.04079   0.05285   0.05871   0.07635
  Beta virt. eigenvalues --    0.08095   0.08337   0.08865   0.09566   0.11037

 Mulliken charges and spin densities:
               1          2
     1  O   -0.499829   0.366144
     2  H    0.417035  -0.009083
     3  C    0.340813   0.949279
     4  H    0.292541  -0.034619
     5  C   -0.552071  -0.339788
     6  C    0.211558   0.068615
     7  O   -0.354759  -0.003836
     8  O   -0.196435   0.000789
     9  C   -0.190710   0.001972
    10  C   -0.589610   0.000679
    11  H    0.224872  -0.000158
    12  H    0.235734  -0.000110
    13  H    0.207614   0.000214
    14  H    0.219133  -0.000056
    15  H    0.234115  -0.000042
 Sum of Mulliken charges =  -0.00000   1.00000

 Dipole moment (field-independent basis, Debye):
    X=              0.1097    Y=             -1.4409    Z=             -0.6627  Tot=              1.5898
 Quadrupole moment (field-independent basis, Debye-Ang):
   XX=            -31.9459   YY=            -48.3042   ZZ=            -52.7978
   XY=             -7.0314   XZ=              2.2644   YZ=              4.6315

  Exact polarizability:  79.389  -6.111  70.100  -2.613   4.082  58.029
 Approx polarizability:  75.155 -10.023  81.905  -5.475   3.766  73.290

 ******    3 imaginary frequencies (negative Signs) ******

                      1                      2                      3
                      A                      A                      A
 Frequencies --   -573.2575              -472.9877               -83.5841
 Red. masses --      8.0790                 1.0695                 6.9391
 Frc consts  --      1.5643                 0.1410                 0.0286
 IR Inten    --     38.3268               114.8890                 5.0727

                      4                      5                      6
                      A                      A                      A
 Frequencies --     44.7900                67.6098               153.1519
 Red. masses --      2.5070                 3.5723                 2.2320
 Frc consts  --      0.0030                 0.0096                 0.0308
 IR Inten    --      2.1592                 7.5906                 4.4639

                      7                      8                      9
                      A                      A                      A
 Frequencies --    194.4706               221.8662               240.0197
 Red. masses --      1.9781                 3.0514                 1.3685
 Frc consts  --      0.0441                 0.0885                 0.0465
 IR Inten    --      6.2988                 2.3526                23.9570

                     10                     11                     12
                      A                      A                      A
 Frequencies --    316.3117               351.9467               422.9749
 Red. masses --      3.0949                 6.2908                 3.5801
 Frc consts  --      0.1824                 0.4591                 0.3774
 IR Inten    --     16.3399                 8.1514                 2.6063

                     13                     14                     15
                      A                      A                      A
 Frequencies --    580.5397               626.6980               714.6958
 Red. masses --      3.5400                 5.8909                 1.3307
 Frc consts  --      0.7029                 1.3632                 0.4005
 IR Inten    --     14.5895                15.4552                59.0153

                     16                     17                     18
                      A                      A                      A
 Frequencies --    725.5353               815.1748               893.1296
 Red. masses --     10.1075                 1.2910                 3.3211
 Frc consts  --      3.1348                 0.5054                 1.5608
 IR Inten    --     22.7716                 7.2200                22.8103

                     19                     20                     21
                      A                      A                      A
 Frequencies --    922.3711               962.9448              1110.7729
 Red. masses --      1.8460                 1.5039                 4.0955
 Frc consts  --      0.9253                 0.8216                 2.9772
 IR Inten    --     17.2827                35.9550                 7.5852

                     22                     23                     24
                      A                      A                      A
 Frequencies --   1156.7227              1227.0880              1323.0414
 Red. masses --      2.0528                 1.7391                 2.1157
 Frc consts  --      1.6183                 1.5429                 2.1820
 IR Inten    --     18.1484                 5.9496               335.3680

                     25                     26                     27
                      A                      A                      A
 Frequencies --   1371.2476              1443.2541              1456.2840
 Red. masses --      1.6716                 1.3541                 1.2721
 Frc consts  --      1.8519                 1.6618                 1.5895
 IR Inten    --    247.6527                29.6605                15.0975

                     28                     29                     30
                      A                      A                      A
 Frequencies --   1528.1954              1538.2094              1546.3955
 Red. masses --      1.0419                 1.0638                 1.0785
 Frc consts  --      1.4336                 1.4830                 1.5196
 IR Inten    --     14.2567                 1.9953                20.4290

                     31                     32                     33
                      A                      A                      A
 Frequencies --   1897.6916              1949.7329              3107.5371
 Red. masses --      9.3917                 8.3953                 1.0352
 Frc consts  --     19.9271                18.8035                 5.8897
 IR Inten    --    206.4999               113.3083                13.5109

                     34                     35                     36
                      A                      A                      A
 Frequencies --   3139.3686              3186.9023              3191.8741
 Red. masses --      1.0603                 1.0998                 1.1028
 Frc consts  --      6.1568                 6.5814                 6.6195
 IR Inten    --     16.1491                15.5065                 4.1207

                     37                     38                     39
                      A                      A                      A
 Frequencies --   3213.0545              3491.9592              3866.1193
 Red. masses --      1.1054                 1.1299                 1.0672
 Frc consts  --      6.7236                 8.1174                 9.3981
 IR Inten    --     17.1251                66.8198                36.2346

 - Thermochemistry -
 -------------------
 Temperature   298.150 Kelvin.  Pressure   1.00000 Atm.
 Atom     1 has atomic number  8 and mass  15.99491

 Molecular mass:   115.03952 amu.
 Principal axes and moments of inertia in atomic units:
                           1         2         3
     Eigenvalues --   427.129601542.230421598.78741
           X            0.99998  -0.00351   0.00493
           Y            0.00275   0.98926   0.14617
           Z           -0.00539  -0.14616   0.98925
 This molecule is an asymmetric top.
 Rotational symmetry number  1.
 Rotational temperatures (Kelvin)      0.20278     0.05616     0.05417
 Rotational constants (GHZ):           4.22528     1.17022     1.12882
    3 imaginary frequencies ignored.
 Zero-point vibrational energy     293083.2 (Joules/Mol)
                                   70.04856 (Kcal/Mol)
 Warning -- explicit consideration of  10 degrees of freedom as
           vibrations may cause significant error
 Vibrational temperatures:     64.44    97.28   220.35   279.80   319.22
          (Kelvin)            345.33   455.10   506.37   608.57   835.27
                              901.68  1028.29  1043.88  1172.85  1285.01
                             1327.09  1385.46  1598.15  1664.27  1765.51
                             1903.56  1972.92  2076.52  2095.27  2198.73
                             2213.14  2224.92  2730.35  2805.23  4471.05
                             4516.85  4585.24  4592.39  4622.87  5024.15
                             5562.48

 Zero-point correction=                           0.111629 (Hartree/Particle)
 Thermal correction to Energy=                    0.120241
 Thermal correction to Enthalpy=                  0.121185
 Thermal correction to Gibbs Free Energy=         0.076791
 Sum of electronic and zero-point Energies=           -419.850462
 Sum of electronic and thermal Energies=              -419.841851
 Sum of electronic and thermal Enthalpies=            -419.840907
 Sum of electronic and thermal Free Energies=         -419.885300

                     E (Thermal)             CV                S
                      KCal/Mol        Cal/Mol-Kelvin    Cal/Mol-Kelvin
 Total                   75.452             28.891             93.434
 Electronic               0.000              0.000              1.377
 Translational            0.889              2.981             40.136
 Rotational               0.889              2.981             28.445
 Vibrational             73.675             22.929             23.475
 Vibration     1          0.595              1.979              5.035
 Vibration     2          0.598              1.970              4.222
 Vibration     3          0.619              1.899              2.633
 Vibration     4          0.635              1.848              2.185
 Vibration     5          0.648              1.808              1.944
 Vibration     6          0.657              1.779              1.803
 Vibration     7          0.703              1.642              1.329
 Vibration     8          0.728              1.571              1.157
 Vibration     9          0.785              1.420              0.882
 Vibration    10          0.937              1.073              0.484

 Normal termination of Gaussian 16 at Fri Jun 20 14:40:53 2025.
