 Gaussian 16, Revision A.03,
 Gaussian 16:  ES64L-G16RevA.03 25-Dec-2016

 --------------------------
 # freq 6-311++g(d,p) m062x
 --------------------------

 -------------------
 Title Card Required
 -------------------
 Symbolic Z-matrix:
 Charge =  0 Multiplicity = 2

                         Standard orientation:
 ---------------------------------------------------------------------
 Center     Atomic      Atomic             Coordinates (Angstroms)
 Number     Number       Type             X           Y           Z
 ---------------------------------------------------------------------
      1          8           0        2.217174    1.449679   -0.039070
      2          1           0        2.832557    1.242029    0.683522
      3          6           0        2.457810   -1.214164   -0.526555
      4          1           0        3.359576   -1.669713   -0.863615
      5          6           0        1.444253   -0.679641   -0.164070
      6          6           0        0.150975   -0.208817    0.329201
      7          8           0       -0.178004   -0.295262    1.479428
      8          8           0       -0.592354    0.271599   -0.660279
      9          6           0       -1.921348    0.701894   -0.302333
     10          6           0       -2.862030   -0.482361   -0.187065
     11          1           0       -2.209866    1.369027   -1.112385
     12          1           0       -1.867072    1.263863    0.630540
     13          1           0       -3.874721   -0.126638    0.012419
     14          1           0       -2.872854   -1.051938   -1.117560
     15          1           0       -2.560108   -1.136220    0.631383
 ---------------------------------------------------------------------

 SCF Done:  E(UM062X) =  -420.206573442     A.U. after   24 cycles

 The electronic state is 2-A.
 Alpha  occ. eigenvalues --  -19.68062 -19.67392 -19.62941 -10.70555 -10.60384
 Alpha  occ. eigenvalues --  -10.57769 -10.57472 -10.53698  -1.25540  -1.16229
 Alpha  occ. eigenvalues --   -1.13156  -0.90592  -0.87227  -0.78057  -0.70561
 Alpha  occ. eigenvalues --   -0.64365  -0.61593  -0.58454  -0.56588  -0.55020
 Alpha  occ. eigenvalues --   -0.53459  -0.50611  -0.48466  -0.46415  -0.45235
 Alpha  occ. eigenvalues --   -0.42474  -0.41702  -0.39545  -0.38264  -0.36432
 Alpha  occ. eigenvalues --   -0.35853
 Alpha virt. eigenvalues --   -0.01060  -0.00346   0.00516   0.01549   0.02351
 Alpha virt. eigenvalues --    0.02798   0.03572   0.04242   0.05532   0.06726
 Alpha virt. eigenvalues --    0.07301   0.07781   0.08182   0.09238   0.10242

  Beta  occ. eigenvalues --  -19.68067 -19.65823 -19.62953 -10.70543 -10.60384
  Beta  occ. eigenvalues --  -10.57742 -10.57392 -10.53698  -1.25548  -1.16256
  Beta  occ. eigenvalues --   -1.05683  -0.90336  -0.86980  -0.77952  -0.70454
  Beta  occ. eigenvalues --   -0.64333  -0.61351  -0.58372  -0.56378  -0.53437
  Beta  occ. eigenvalues --   -0.52089  -0.49203  -0.46617  -0.45237  -0.41932
  Beta  occ. eigenvalues --   -0.39500  -0.39000  -0.38280  -0.38020  -0.36113
  Beta virt. eigenvalues --   -0.08762  -0.00538  -0.00198   0.00577   0.01862
  Beta virt. eigenvalues --    0.02456   0.02833   0.03588   0.04340   0.05559
  Beta virt. eigenvalues --    0.06721   0.07397   0.07831   0.08310   0.09368

 Mulliken charges and spin densities:
               1          2
     1  O   -0.210758   0.920358
     2  H    0.236731  -0.020149
     3  C   -1.619052   0.115591
     4  H    0.177681  -0.007828
     5  C    1.549978  -0.058399
     6  C   -0.242964   0.056222
     7  O   -0.193836  -0.005744
     8  O    0.059064   0.000611
     9  C   -0.253913   0.000349
    10  C   -0.419868  -0.000952
    11  H    0.200928   0.000113
    12  H    0.198257  -0.000389
    13  H    0.162418   0.000091
    14  H    0.166408   0.000099
    15  H    0.188925   0.000028
 Sum of Mulliken charges =  -0.00000   1.00000

 Dipole moment (field-independent basis, Debye):
    X=              0.2799    Y=             -0.5871    Z=             -0.6814  Tot=              0.9420
 Quadrupole moment (field-independent basis, Debye-Ang):
   XX=            -31.6872   YY=            -46.5493   ZZ=            -52.0476
   XY=             -5.1255   XZ=              2.6022   YZ=              3.8619

  Exact polarizability:  87.088  -8.085  67.526  -4.109   2.975  60.172
 Approx polarizability:  90.288 -13.341  75.207  -8.084   2.779  78.382

 ******    1 imaginary frequencies (negative Signs) ******

                      1                      2                      3
                      A                      A                      A
 Frequencies --    -29.6287                47.3607               103.8639
 Red. masses --      5.1406                 4.4521                 5.7713
 Frc consts  --      0.0027                 0.0059                 0.0367
 IR Inten    --      7.6011                 2.3165                 5.7261

                      4                      5                      6
                      A                      A                      A
 Frequencies --    114.4617               158.8157               192.5963
 Red. masses --      3.4713                 2.4643                 1.6939
 Frc consts  --      0.0268                 0.0366                 0.0370
 IR Inten    --      3.7537                18.1244                36.6954

                      7                      8                      9
                      A                      A                      A
 Frequencies --    215.5496               229.3969               279.3835
 Red. masses --      2.9210                 1.3202                 3.6143
 Frc consts  --      0.0800                 0.0409                 0.1662
 IR Inten    --     22.9649                 0.9512                11.1727

                     10                     11                     12
                      A                      A                      A
 Frequencies --    338.8339               421.4037               533.3827
 Red. masses --      2.9198                 3.8698                 1.2103
 Frc consts  --      0.1975                 0.4049                 0.2029
 IR Inten    --     10.9111                 0.3403                99.8917

                     13                     14                     15
                      A                      A                      A
 Frequencies --    570.3597               608.5961               723.5290
 Red. masses --      2.8547                 6.8181                 1.3332
 Frc consts  --      0.5472                 1.4879                 0.4112
 IR Inten    --     19.7295                 7.4886                37.7413

                     16                     17                     18
                      A                      A                      A
 Frequencies --    756.0246               781.0984               799.7128
 Red. masses --      1.3303                 7.5905                 1.2064
 Frc consts  --      0.4480                 2.7285                 0.4546
 IR Inten    --     22.2039                51.0206                 5.0570

                     19                     20                     21
                      A                      A                      A
 Frequencies --    895.7888               928.0470              1076.4325
 Red. masses --      3.1339                 2.8401                 4.1623
 Frc consts  --      1.4816                 1.4412                 2.8415
 IR Inten    --     14.7541                 6.2854                21.0996

                     22                     23                     24
                      A                      A                      A
 Frequencies --   1127.2908              1203.0152              1293.1726
 Red. masses --      2.0992                 1.7752                 3.5218
 Frc consts  --      1.5718                 1.5137                 3.4699
 IR Inten    --     21.6946                 4.8908               558.7974

                     25                     26                     27
                      A                      A                      A
 Frequencies --   1347.2426              1400.4034              1429.4781
 Red. masses --      1.2618                 1.2878                 1.3904
 Frc consts  --      1.3494                 1.4880                 1.6739
 IR Inten    --    112.4961                34.0306                 9.4785

                     28                     29                     30
                      A                      A                      A
 Frequencies --   1492.2409              1502.8137              1514.5001
 Red. masses --      1.0409                 1.0610                 1.0852
 Frc consts  --      1.3656                 1.4118                 1.4666
 IR Inten    --     10.4835                 1.9966                17.4220

                     31                     32                     33
                      A                      A                      A
 Frequencies --   1840.5903              2240.5477              3075.1364
 Red. masses --     11.9979                 5.8526                 1.0353
 Frc consts  --     23.9480                17.3105                 5.7684
 IR Inten    --    329.7912                59.6403                10.6970

                     34                     35                     36
                      A                      A                      A
 Frequencies --   3108.8934              3150.3661              3154.8523
 Red. masses --      1.0609                 1.1014                 1.1047
 Frc consts  --      6.0412                 6.4402                 6.4783
 IR Inten    --     16.2474                15.1944                 2.0196

                     37                     38                     39
                      A                      A                      A
 Frequencies --   3175.8911              3487.6635              3796.8444
 Red. masses --      1.1075                 1.1665                 1.0672
 Frc consts  --      6.5814                 8.3601                 9.0648
 IR Inten    --     14.8109                66.3081                35.9027

 - Thermochemistry -
 -------------------
 Temperature   298.150 Kelvin.  Pressure   1.00000 Atm.
 Atom     1 has atomic number  8 and mass  15.99491

 Molecular mass:   115.03952 amu.
 Principal axes and moments of inertia in atomic units:
                           1         2         3
     Eigenvalues --   471.106911555.155721648.94876
           X            0.99998  -0.00385   0.00556
           Y            0.00341   0.99708   0.07627
           Z           -0.00584  -0.07625   0.99707
 This molecule is an asymmetric top.
 Rotational symmetry number  1.
 Warning -- assumption of classical behavior for rotation
           may cause significant error
 Rotational temperatures (Kelvin)      0.18385     0.05569     0.05253
 Rotational constants (GHZ):           3.83085     1.16049     1.09448
    1 imaginary frequencies ignored.
 Zero-point vibrational energy     293776.4 (Joules/Mol)
                                   70.21425 (Kcal/Mol)
 Warning -- explicit consideration of  13 degrees of freedom as
           vibrations may cause significant error
 Vibrational temperatures:     68.14   149.44   164.68   228.50   277.10
          (Kelvin)            310.13   330.05   401.97   487.51   606.31
                              767.42   820.62   875.63  1041.00  1087.75
                             1123.83  1150.61  1288.84  1335.25  1548.75
                             1621.92  1730.87  1860.59  1938.38  2014.87
                             2056.70  2147.00  2162.21  2179.03  2648.20
                             3223.65  4424.44  4473.00  4532.67  4539.13
                             4569.40  5017.97  5462.81

 Zero-point correction=                           0.111894 (Hartree/Particle)
 Thermal correction to Energy=                    0.121475
 Thermal correction to Enthalpy=                  0.122420
 Thermal correction to Gibbs Free Energy=         0.076375
 Sum of electronic and zero-point Energies=           -420.094680
 Sum of electronic and thermal Energies=              -420.085098
 Sum of electronic and thermal Enthalpies=            -420.084154
 Sum of electronic and thermal Free Energies=         -420.130199

                     E (Thermal)             CV                S
                      KCal/Mol        Cal/Mol-Kelvin    Cal/Mol-Kelvin
 Total                   76.227             32.501             96.909
 Electronic               0.000              0.000              1.377
 Translational            0.889              2.981             40.136
 Rotational               0.889              2.981             28.581
 Vibrational             74.449             26.540             26.815
 Vibration     1          0.595              1.979              4.925
 Vibration     2          0.605              1.946              3.380
 Vibration     3          0.607              1.937              3.192
 Vibration     4          0.621              1.893              2.564
 Vibration     5          0.635              1.850              2.203
 Vibration     6          0.645              1.817              1.996
 Vibration     7          0.652              1.796              1.884
 Vibration     8          0.680              1.712              1.537
 Vibration     9          0.719              1.598              1.218
 Vibration    10          0.784              1.424              0.887
 Vibration    11          0.888              1.176              0.580
 Vibration    12          0.926              1.095              0.504
 Vibration    13          0.967              1.014              0.435

 1\1\GINC-AJ\Freq\UM062X\6-311++G(d,p)\C5H7O3(2)\AAYUSH\16-Aug-2025\0\\
 # freq 6-311++g(d,p) m062x\\Title Card Required\\0,2\O,2.145335,1.4641
 59,-0.009509\H,2.762535,1.240728,0.7068\C,2.403683,-1.183454,-0.570765
 \H,3.308309,-1.623365,-0.92069\C,1.386751,-0.666063,-0.19319\C,0.09061
 2,-0.217866,0.313468\O,-0.237096,-0.338393,1.460988\O,-0.656532,0.2847
 53,-0.662011\C,-1.988192,0.695947,-0.291736\C,-2.92078,-0.497392,-0.20
 897\H,-2.281692,1.383312,-1.082862\H,-1.937165,1.232192,0.656338\H,-3.
 935734,-0.154204,0.000709\H,-2.928304,-1.041013,-1.154895\H,-2.613962,

 Normal termination of Gaussian 16 at Sat Aug 16 18:33:30 2025.
