 Gaussian 16, Revision A.03,
 Gaussian 16:  ES64L-G16RevA.03 25-Dec-2016

 --------------------------
 # ccsd(t)/6-311++g(d,p) sp
 --------------------------

 -------------------
 Title Card Required
 -------------------
 Symbolic Z-matrix:
 Charge =  0 Multiplicity = 2

                         Standard orientation:
 ---------------------------------------------------------------------
 Center     Atomic      Atomic             Coordinates (Angstroms)
 Number     Number       Type             X           Y           Z
 ---------------------------------------------------------------------
      1          8           0        2.119994    1.258877    0.029037
      2          1           0        2.784128    1.164451    0.723479
      3          6           0        2.438891   -1.158881   -0.597611
      4          1           0        3.330502   -1.610239   -0.973338
      5          6           0        1.585555   -0.325981   -0.163221
      6          6           0        0.168172   -0.197258    0.318974
      7          8           0       -0.168739   -0.411658    1.448331
      8          8           0       -0.595200    0.304222   -0.641901
      9          6           0       -1.930829    0.692619   -0.256770
     10          6           0       -2.857359   -0.505671   -0.218137
     11          1           0       -2.227214    1.409057   -1.020613
     12          1           0       -1.878893    1.192394    0.711239
     13          1           0       -3.873709   -0.175100    0.004717
     14          1           0       -2.863729   -1.013172   -1.183979
     15          1           0       -2.546110   -1.207888    0.555341
 ---------------------------------------------------------------------

 SCF Done:  E(UHF) =  -417.987631241     A.U. after   28 cycles
 E2 =    -0.1267811329D+01 EUMP2 =    -0.41925544256985D+03
 CCSD(T)= -0.41937122321D+03

 The electronic state is 2-A.
 Alpha  occ. eigenvalues --  -20.61219 -20.59510 -20.55872 -11.41130 -11.31028
 Alpha  occ. eigenvalues --  -11.29601 -11.28571 -11.22532  -1.48236  -1.37957
 Alpha  occ. eigenvalues --   -1.35261  -1.08837  -1.04628  -0.92636  -0.84385
 Alpha  occ. eigenvalues --   -0.76763  -0.73132  -0.69936  -0.67816  -0.65133
 Alpha  occ. eigenvalues --   -0.63176  -0.60797  -0.58241  -0.54489  -0.53709
 Alpha  occ. eigenvalues --   -0.52178  -0.50203  -0.47936  -0.46264  -0.43893
 Alpha  occ. eigenvalues --   -0.41626
 Alpha virt. eigenvalues --    0.03699   0.04506   0.05814   0.06639   0.07002
 Alpha virt. eigenvalues --    0.08227   0.09245   0.11277   0.11415   0.12922
 Alpha virt. eigenvalues --    0.13398   0.13577   0.14404   0.14643   0.16689

  Beta  occ. eigenvalues --  -20.61225 -20.57575 -20.56097 -11.40806 -11.33141
  Beta  occ. eigenvalues --  -11.29604 -11.25380 -11.22532  -1.48313  -1.38321
  Beta  occ. eigenvalues --   -1.29596  -1.07181  -1.03189  -0.91058  -0.82878
  Beta  occ. eigenvalues --   -0.76252  -0.71477  -0.70073  -0.66853  -0.64628
  Beta  occ. eigenvalues --   -0.63130  -0.58808  -0.55088  -0.53912  -0.51808
  Beta  occ. eigenvalues --   -0.49882  -0.49579  -0.47749  -0.46789  -0.42026
  Beta virt. eigenvalues --    0.03838   0.04103   0.04538   0.06433   0.06889
  Beta virt. eigenvalues --    0.07306   0.08487   0.09270   0.10407   0.12890
  Beta virt. eigenvalues --    0.13259   0.13654   0.13985   0.14682   0.16572

 Mulliken charges and spin densities:
               1          2
     1  O   -0.274447   0.425197
     2  H    0.263455  -0.014126
     3  C    0.115957   1.622358
     4  H    0.248561  -0.105975
     5  C   -0.054828  -1.065294
     6  C   -0.219743   0.177346
     7  O   -0.294399  -0.042715
     8  O   -0.043541   0.002908
     9  C   -0.152616   0.001345
    10  C   -0.399133  -0.001550
    11  H    0.169591   0.000082
    12  H    0.184226   0.000013
    13  H    0.130110   0.000073
    14  H    0.144026   0.000088
    15  H    0.182780   0.000250
 Sum of Mulliken charges =  -0.00000   1.00000

 Dipole moment (field-independent basis, Debye):
    X=              0.3468    Y=             -1.0541    Z=             -0.9934  Tot=              1.4893
 Quadrupole moment (field-independent basis, Debye-Ang):
   XX=            -32.3737   YY=            -47.6554   ZZ=            -52.0176
   XY=             -6.2468   XZ=              2.0094   YZ=              4.3722

 063\PMP3-0=-419.2977228\MP4SDQ=-419.3109547\CCSD=-419.3164938\CCSD(T)=
 Normal termination of Gaussian 16 at Mon Aug 25 18:17:32 2025.
