 Gaussian 16, Revision A.03,
 Gaussian 16:  ES64L-G16RevA.03 25-Dec-2016

 --------------------------
 # freq 6-311++g(d,p) m062x
 --------------------------

 -------------------
 Title Card Required
 -------------------
 Symbolic Z-matrix:
 Charge =  0 Multiplicity = 2

                         Standard orientation:
 ---------------------------------------------------------------------
 Center     Atomic      Atomic             Coordinates (Angstroms)
 Number     Number       Type             X           Y           Z
 ---------------------------------------------------------------------
      1          8           0        2.124868    1.270496    0.023276
      2          1           0        2.786880    1.170581    0.719551
      3          6           0        2.441934   -1.161379   -0.591383
      4          1           0        3.327905   -1.624259   -0.964834
      5          6           0        1.577218   -0.346916   -0.163685
      6          6           0        0.166973   -0.195756    0.320280
      7          8           0       -0.169118   -0.402516    1.451105
      8          8           0       -0.595002    0.301124   -0.643629
      9          6           0       -1.930530    0.692158   -0.260791
     10          6           0       -2.857474   -0.505659   -0.215365
     11          1           0       -2.226576    1.404236   -1.028798
     12          1           0       -1.878566    1.197538    0.704265
     13          1           0       -3.873683   -0.173366    0.005542
     14          1           0       -2.864034   -1.018697   -1.178275
     15          1           0       -2.546640   -1.203558    0.562191
 ---------------------------------------------------------------------

 SCF Done:  E(UM062X) =  -420.217609109     A.U. after   19 cycles

 The electronic state is 2-A.
 Alpha  occ. eigenvalues --  -19.68326 -19.64295 -19.63270 -10.70419 -10.63184
 Alpha  occ. eigenvalues --  -10.60536 -10.59533 -10.53794  -1.25833  -1.16516
 Alpha  occ. eigenvalues --   -1.11338  -0.91276  -0.87830  -0.78162  -0.71238
 Alpha  occ. eigenvalues --   -0.64816  -0.62012  -0.58886  -0.57309  -0.54685
 Alpha  occ. eigenvalues --   -0.53341  -0.49788  -0.48348  -0.46113  -0.45255
 Alpha  occ. eigenvalues --   -0.42190  -0.40274  -0.39688  -0.38480  -0.36251
 Alpha  occ. eigenvalues --   -0.31314
 Alpha virt. eigenvalues --   -0.00328   0.00222   0.01174   0.01433   0.02039
 Alpha virt. eigenvalues --    0.02650   0.02953   0.04033   0.05432   0.06592
 Alpha virt. eigenvalues --    0.07152   0.07822   0.08353   0.08985   0.10512

  Beta  occ. eigenvalues --  -19.68323 -19.63686 -19.63275 -10.70365 -10.63344
  Beta  occ. eigenvalues --  -10.60536 -10.58923 -10.53794  -1.25801  -1.16516
  Beta  occ. eigenvalues --   -1.09195  -0.90166  -0.86713  -0.77517  -0.70431
  Beta  occ. eigenvalues --   -0.64530  -0.61152  -0.58656  -0.56899  -0.54101
  Beta  occ. eigenvalues --   -0.52889  -0.49374  -0.46675  -0.45212  -0.43703
  Beta  occ. eigenvalues --   -0.41895  -0.39207  -0.38925  -0.38387  -0.34879
  Beta virt. eigenvalues --   -0.08762  -0.00271   0.00334   0.01666   0.02090
  Beta virt. eigenvalues --    0.02227   0.02744   0.03165   0.04133   0.05478
  Beta virt. eigenvalues --    0.06234   0.07299   0.07825   0.08099   0.08986

 Mulliken charges and spin densities:
               1          2
     1  O   -0.282712   0.299862
     2  H    0.254840  -0.000567
     3  C    0.095680   0.960400
     4  H    0.227556  -0.029014
     5  C   -0.090236  -0.310229
     6  C   -0.257258   0.075020
     7  O   -0.216698  -0.001694
     8  O    0.046407   0.002597
     9  C   -0.267903   0.002937
    10  C   -0.429377   0.001015
    11  H    0.199668   0.000244
    12  H    0.200118  -0.000640
    13  H    0.161827   0.000647
    14  H    0.165361  -0.000225
    15  H    0.192727  -0.000355
 Sum of Mulliken charges =  -0.00000   1.00000

 Dipole moment (field-independent basis, Debye):
    X=              0.0122    Y=             -1.2502    Z=             -0.9005  Tot=              1.5408
 Quadrupole moment (field-independent basis, Debye-Ang):
   XX=            -32.7732   YY=            -47.7463   ZZ=            -51.5868
   XY=             -6.6192   XZ=              1.8249   YZ=              4.1268

  Exact polarizability:  83.808  -5.734  71.455  -2.917   4.056  60.189
 Approx polarizability:  81.905  -8.462  87.070  -4.950   3.942  78.230

 ******    1 imaginary frequencies (negative Signs) ******

                      1                      2                      3
                      A                      A                      A
 Frequencies --   -531.5704                66.1901                95.9848
 Red. masses --      6.8534                 1.9125                 4.1154
 Frc consts  --      1.1410                 0.0049                 0.0223
 IR Inten    --     68.9863                19.2606                 5.6276

                      4                      5                      6
                      A                      A                      A
 Frequencies --    114.5878               146.5504               192.4822
 Red. masses --      2.6748                 1.9128                 2.0634
 Frc consts  --      0.0207                 0.0242                 0.0450
 IR Inten    --      7.9207                47.1958                 7.6912

                      7                      8                      9
                      A                      A                      A
 Frequencies --    229.1253               239.4302               260.2767
 Red. masses --      1.8165                 1.2935                 3.0691
 Frc consts  --      0.0562                 0.0437                 0.1225
 IR Inten    --     17.6641                18.6423                 1.1073

                     10                     11                     12
                      A                      A                      A
 Frequencies --    344.9001               356.8459               439.1479
 Red. masses --      3.0860                 9.1988                 3.5603
 Frc consts  --      0.2163                 0.6901                 0.4045
 IR Inten    --     12.4246                 2.4577                 3.2772

                     13                     14                     15
                      A                      A                      A
 Frequencies --    594.8140               633.5587               692.7967
 Red. masses --      3.8413                 5.2297                 1.4082
 Frc consts  --      0.8007                 1.2368                 0.3982
 IR Inten    --      9.4393                14.8223                39.5688

                     16                     17                     18
                      A                      A                      A
 Frequencies --    781.7378               802.2827               894.6480
 Red. masses --      7.8720                 1.2504                 3.2406
 Frc consts  --      2.8344                 0.4742                 1.5282
 IR Inten    --     17.1957                 4.7848                17.5503

                     19                     20                     21
                      A                      A                      A
 Frequencies --    917.3463              1055.6572              1082.0965
 Red. masses --      2.8040                 1.4507                 2.3561
 Frc consts  --      1.3903                 0.9525                 1.6254
 IR Inten    --      2.8375                44.1746                28.8033

                     22                     23                     24
                      A                      A                      A
 Frequencies --   1128.1286              1202.6774              1284.5968
 Red. masses --      2.0707                 1.7672                 3.8177
 Frc consts  --      1.5527                 1.5061                 3.7118
 IR Inten    --     19.3848                 8.2624               538.3185

                     25                     26                     27
                      A                      A                      A
 Frequencies --   1348.1051              1401.0560              1431.6932
 Red. masses --      1.2358                 1.2784                 1.3867
 Frc consts  --      1.3232                 1.4785                 1.6746
 IR Inten    --     91.1600                26.9622                 7.2670

                     28                     29                     30
                      A                      A                      A
 Frequencies --   1492.8059              1503.3863              1516.0205
 Red. masses --      1.0408                 1.0593                 1.0864
 Frc consts  --      1.3665                 1.4106                 1.4712
 IR Inten    --     10.2415                 1.2186                15.2595

                     31                     32                     33
                      A                      A                      A
 Frequencies --   1825.0373              1876.4712              3075.3282
 Red. masses --      8.6738                 9.2895                 1.0354
 Frc consts  --     17.0217                19.2720                 5.7696
 IR Inten    --    168.1580               168.0699                10.5165

                     34                     35                     36
                      A                      A                      A
 Frequencies --   3108.4225              3150.0990              3155.3099
 Red. masses --      1.0607                 1.1015                 1.1048
 Frc consts  --      6.0384                 6.4397                 6.4804
 IR Inten    --     15.4253                14.3604                 2.3971

                     37                     38                     39
                      A                      A                      A
 Frequencies --   3176.0616              3439.7107              3855.1957
 Red. masses --      1.1075                 1.1243                 1.0676
 Frc consts  --      6.5823                 7.8372                 9.3489
 IR Inten    --     14.6020                77.0265                68.2762

 - Thermochemistry -
 -------------------
 Temperature   298.150 Kelvin.  Pressure   1.00000 Atm.
 Atom     1 has atomic number  8 and mass  15.99491

 Molecular mass:   115.03952 amu.
 Principal axes and moments of inertia in atomic units:
                           1         2         3
     Eigenvalues --   424.718751541.337271596.05822
           X            0.99998  -0.00347   0.00487
           Y            0.00269   0.98833   0.15232
           Z           -0.00534  -0.15230   0.98832
 This molecule is an asymmetric top.
 Rotational symmetry number  1.
 Rotational temperatures (Kelvin)      0.20393     0.05619     0.05427
 Rotational constants (GHZ):           4.24926     1.17089     1.13075
    1 imaginary frequencies ignored.
 Zero-point vibrational energy     292550.1 (Joules/Mol)
                                   69.92116 (Kcal/Mol)
 Warning -- explicit consideration of  12 degrees of freedom as
           vibrations may cause significant error
 Vibrational temperatures:     95.23   138.10   164.87   210.85   276.94
          (Kelvin)            329.66   344.49   374.48   496.23   513.42
                              631.84   855.80   911.55   996.78  1124.75
                             1154.31  1287.20  1319.86  1518.86  1556.90
                             1623.13  1730.38  1848.25  1939.62  2015.81
                             2059.89  2147.81  2163.04  2181.22  2625.82
                             2699.82  4424.71  4472.33  4532.29  4539.79
                             4569.64  4948.98  5546.77

 Zero-point correction=                           0.111426 (Hartree/Particle)
 Thermal correction to Energy=                    0.121051
 Thermal correction to Enthalpy=                  0.121995
 Thermal correction to Gibbs Free Energy=         0.076098
 Sum of electronic and zero-point Energies=           -420.106183
 Sum of electronic and thermal Energies=              -420.096558
 Sum of electronic and thermal Enthalpies=            -420.095614
 Sum of electronic and thermal Free Energies=         -420.141511

                     E (Thermal)             CV                S
                      KCal/Mol        Cal/Mol-Kelvin    Cal/Mol-Kelvin
 Total                   75.961             32.414             96.599
 Electronic               0.000              0.000              1.377
 Translational            0.889              2.981             40.136
 Rotational               0.889              2.981             28.437
 Vibrational             74.183             26.452             26.648
 Vibration     1          0.598              1.970              4.264
 Vibration     2          0.603              1.952              3.534
 Vibration     3          0.608              1.937              3.190
 Vibration     4          0.617              1.906              2.717
 Vibration     5          0.634              1.850              2.204
 Vibration     6          0.652              1.797              1.886
 Vibration     7          0.657              1.780              1.807
 Vibration     8          0.668              1.745              1.660
 Vibration     9          0.723              1.586              1.189
 Vibration    10          0.732              1.561              1.136
 Vibration    11          0.799              1.385              0.829
 Vibration    12          0.953              1.043              0.459

 1\1\GINC-AJ\Freq\UM062X\6-311++G(d,p)\C5H7O3(2)\AAYUSH\23-Jun-2025\0\\
 # freq 6-311++g(d,p) m062x\\Title Card Required\\0,2\O,2.124868,1.2704
 96,0.023276\H,2.78688,1.170581,0.719551\C,2.441934,-1.161379,-0.591383
 \H,3.327905,-1.624259,-0.964834\C,1.577218,-0.346916,-0.163685\C,0.166
 973,-0.195756,0.32028\O,-0.169118,-0.402516,1.451105\O,-0.595002,0.301
 124,-0.643629\C,-1.93053,0.692158,-0.260791\C,-2.857474,-0.505659,-0.2
 15365\H,-2.226576,1.404236,-1.028798\H,-1.878566,1.197538,0.704265\H,-
 3.873683,-0.173366,0.005542\H,-2.864034,-1.018697,-1.178275\H,-2.54664

 Normal termination of Gaussian 16 at Mon Jun 23 07:26:55 2025.
