 Gaussian 16, Revision A.03,
 Gaussian 16:  ES64L-G16RevA.03 25-Dec-2016

 --------------------------
 # ccsd(t)/6-311++g(d,p) sp
 --------------------------

 -------------------
 Title Card Required
 -------------------
 Symbolic Z-matrix:
 Charge =  0 Multiplicity = 2

                         Standard orientation:
 ---------------------------------------------------------------------
 Center     Atomic      Atomic             Coordinates (Angstroms)
 Number     Number       Type             X           Y           Z
 ---------------------------------------------------------------------
      1          8           0        2.224021    1.461792   -0.043014
      2          1           0        2.831867    1.245384    0.683561
      3          6           0        2.457336   -1.220146   -0.522985
      4          1           0        3.363480   -1.668601   -0.857845
      5          6           0        1.436685   -0.698433   -0.163244
      6          6           0        0.148774   -0.213034    0.329460
      7          8           0       -0.178612   -0.288246    1.481053
      8          8           0       -0.592226    0.268796   -0.661254
      9          6           0       -1.920241    0.703353   -0.304772
     10          6           0       -2.862339   -0.479506   -0.185539
     11          1           0       -2.207615    1.367948   -1.117296
     12          1           0       -1.865116    1.268564    0.626057
     13          1           0       -3.874756   -0.122290    0.012595
     14          1           0       -2.873409   -1.052258   -1.114076
     15          1           0       -2.561207   -1.130878    0.635206
 ---------------------------------------------------------------------

 SCF Done:  E(UHF) =  -417.991086099     A.U. after   38 cycles
 E2 =    -0.1260865170D+01 EUMP2 =    -0.41925195126983D+03
 CCSD(T)= -0.41935677819D+03

 The electronic state is 2-A.
 Alpha  occ. eigenvalues --  -20.62984 -20.61085 -20.55701 -11.41514 -11.29518
 Alpha  occ. eigenvalues --  -11.26714 -11.25822 -11.22482  -1.48076  -1.38550
 Alpha  occ. eigenvalues --   -1.37783  -1.07737  -1.04100  -0.92552  -0.83727
 Alpha  occ. eigenvalues --   -0.76314  -0.73014  -0.69563  -0.67860  -0.66787
 Alpha  occ. eigenvalues --   -0.65306  -0.62965  -0.58182  -0.55696  -0.54088
 Alpha  occ. eigenvalues --   -0.53936  -0.50340  -0.47873  -0.46097  -0.42768
 Alpha  occ. eigenvalues --   -0.42179
 Alpha virt. eigenvalues --    0.03743   0.04558   0.05786   0.06598   0.07021
 Alpha virt. eigenvalues --    0.08294   0.09380   0.09765   0.11098   0.12524
 Alpha virt. eigenvalues --    0.13496   0.13839   0.14641   0.15743   0.16452

  Beta  occ. eigenvalues --  -20.61092 -20.58887 -20.55969 -11.41314 -11.29518
  Beta  occ. eigenvalues --  -11.26770 -11.25576 -11.22483  -1.48191  -1.38218
  Beta  occ. eigenvalues --   -1.23181  -1.07773  -1.03683  -0.92081  -0.83534
  Beta  occ. eigenvalues --   -0.76251  -0.72488  -0.69614  -0.66593  -0.63383
  Beta  occ. eigenvalues --   -0.63002  -0.58415  -0.55224  -0.54026  -0.50752
  Beta  occ. eigenvalues --   -0.50005  -0.48441  -0.46747  -0.42968  -0.42300
  Beta virt. eigenvalues --    0.03801   0.04562   0.05057   0.06522   0.06994
  Beta virt. eigenvalues --    0.08192   0.09152   0.09554   0.10344   0.11339
  Beta virt. eigenvalues --    0.13125   0.13511   0.13985   0.14801   0.16460

 Mulliken charges and spin densities:
               1          2
     1  O   -0.167520   0.990526
     2  H    0.234841  -0.038546
     3  C   -0.561759   0.532633
     4  H    0.224533  -0.037363
     5  C    1.227324  -0.458951
     6  C   -0.927353   0.068596
     7  O   -0.272277  -0.055286
     8  O   -0.028935   0.000905
     9  C   -0.155515  -0.001441
    10  C   -0.378420  -0.000793
    11  H    0.167092  -0.000338
    12  H    0.182192   0.000232
    13  H    0.131436  -0.000041
    14  H    0.145704   0.000122
    15  H    0.178657  -0.000255
 Sum of Mulliken charges =  -0.00000   1.00000

 Dipole moment (field-independent basis, Debye):
    X=              0.5989    Y=             -0.2195    Z=             -0.7286  Tot=              0.9684
 Quadrupole moment (field-independent basis, Debye-Ang):
   XX=            -31.0036   YY=            -46.3591   ZZ=            -52.6735
   XY=             -4.4153   XZ=              2.8203   YZ=              4.0233

 Normal termination of Gaussian 16 at Wed Aug  6 09:16:49 2025.
