 Gaussian 16, Revision A.03,
 Gaussian 16:  ES64L-G16RevA.03 25-Dec-2016

 -------------------
 # freq 6-31+g m062x
 -------------------

 -------------------
 Title Card Required
 -------------------
 Symbolic Z-matrix:
 Charge =  0 Multiplicity = 2

                         Standard orientation:
 ---------------------------------------------------------------------
 Center     Atomic      Atomic             Coordinates (Angstroms)
 Number     Number       Type             X           Y           Z
 ---------------------------------------------------------------------
      1          8           0        2.204185    1.425850   -0.031442
      2          1           0        2.831770    1.235854    0.685089
      3          6           0        2.457628   -1.203309   -0.533741
      4          1           0        3.350587   -1.672591   -0.875394
      5          6           0        1.459795   -0.640899   -0.165455
      6          6           0        0.154962   -0.201576    0.328667
      7          8           0       -0.176600   -0.309228    1.476076
      8          8           0       -0.592686    0.276086   -0.658435
      9          6           0       -1.923106    0.699370   -0.297454
     10          6           0       -2.861530   -0.487095   -0.189982
     11          1           0       -2.213411    1.371678   -1.102608
     12          1           0       -1.869809    1.254888    0.639390
     13          1           0       -3.874671   -0.134134    0.012195
     14          1           0       -2.871991   -1.050337   -1.124335
     15          1           0       -2.558159   -1.145967    0.623851
 ---------------------------------------------------------------------

 SCF Done:  E(UM062X) =  -419.957609034     A.U. after   24 cycles

 The electronic state is 2-A.
 Alpha  occ. eigenvalues --  -19.70383 -19.69734 -19.66079 -10.72905 -10.61345
 Alpha  occ. eigenvalues --  -10.59714 -10.59271 -10.54504  -1.27870  -1.18508
 Alpha  occ. eigenvalues --   -1.14195  -0.91404  -0.87997  -0.78560  -0.71189
 Alpha  occ. eigenvalues --   -0.64527  -0.62058  -0.58498  -0.56862  -0.54606
 Alpha  occ. eigenvalues --   -0.53836  -0.50677  -0.48447  -0.46658  -0.45208
 Alpha  occ. eigenvalues --   -0.42317  -0.41591  -0.39571  -0.38014  -0.36764
 Alpha  occ. eigenvalues --   -0.35724
 Alpha virt. eigenvalues --   -0.01060   0.02014   0.02541   0.03682   0.03829
 Alpha virt. eigenvalues --    0.04580   0.05354   0.05843   0.07934   0.08111
 Alpha virt. eigenvalues --    0.08352   0.09001   0.09653   0.11675   0.12319

  Beta  occ. eigenvalues --  -19.70387 -19.68119 -19.66094 -10.72888 -10.61345
  Beta  occ. eigenvalues --  -10.59717 -10.59145 -10.54504  -1.27879  -1.18535
  Beta  occ. eigenvalues --   -1.07240  -0.91109  -0.87759  -0.78458  -0.71072
  Beta  occ. eigenvalues --   -0.64489  -0.61748  -0.58355  -0.56722  -0.53881
  Beta  occ. eigenvalues --   -0.51565  -0.49326  -0.46830  -0.45209  -0.41930
  Beta  occ. eigenvalues --   -0.39454  -0.39009  -0.38277  -0.38008  -0.36372
  Beta virt. eigenvalues --   -0.09047  -0.00427   0.02069   0.02593   0.03771
  Beta virt. eigenvalues --    0.03887   0.04676   0.05368   0.05971   0.08054
  Beta virt. eigenvalues --    0.08134   0.08386   0.09121   0.09684   0.11676

 Mulliken charges and spin densities:
               1          2
     1  O   -0.407784   0.907970
     2  H    0.403809  -0.033125
     3  C   -0.239097   0.141749
     4  H    0.334512  -0.007279
     5  C   -0.376300  -0.062581
     6  C    0.462489   0.061314
     7  O   -0.333635  -0.006995
     8  O   -0.178167  -0.000149
     9  C   -0.212877  -0.000455
    10  C   -0.570978  -0.000317
    11  H    0.222027  -0.000050
    12  H    0.234942  -0.000081
    13  H    0.207397   0.000008
    14  H    0.219560  -0.000008
    15  H    0.234103  -0.000002
 Sum of Mulliken charges =  -0.00000   1.00000

 Dipole moment (field-independent basis, Debye):
    X=              0.4019    Y=             -0.7361    Z=             -0.4647  Tot=              0.9588
 Quadrupole moment (field-independent basis, Debye-Ang):
   XX=            -31.0304   YY=            -46.9377   ZZ=            -53.2301
   XY=             -5.3436   XZ=              3.0179   YZ=              4.3806

  Exact polarizability:  81.948  -8.300  66.080  -3.638   3.218  58.020
 Approx polarizability:  82.323 -14.876  68.833  -8.275   2.634  73.461

 ******    3 imaginary frequencies (negative Signs) ******

                      1                      2                      3
                      A                      A                      A
 Frequencies --   -471.8705              -146.1306               -77.5074
 Red. masses --      1.0824                 4.3036                 4.4671
 Frc consts  --      0.1420                 0.0541                 0.0158
 IR Inten    --    118.7831                20.2534                14.3906

                      4                      5                      6
                      A                      A                      A
 Frequencies --     12.6601                73.7968                89.4251
 Red. masses --      2.8790                 4.7877                 3.0946
 Frc consts  --      0.0003                 0.0154                 0.0146
 IR Inten    --      0.6270                 0.1650                 6.0031

                      7                      8                      9
                      A                      A                      A
 Frequencies --    143.3439               183.4811               197.1440
 Red. masses --      6.2523                 1.4361                 3.2410
 Frc consts  --      0.0757                 0.0285                 0.0742
 IR Inten    --      2.1689                 3.6190                 0.9306

                     10                     11                     12
                      A                      A                      A
 Frequencies --    305.8078               341.7679               413.5650
 Red. masses --      2.3773                 1.5024                 3.5766
 Frc consts  --      0.1310                 0.1034                 0.3604
 IR Inten    --     37.4557                86.9718                 7.2343

                     13                     14                     15
                      A                      A                      A
 Frequencies --    574.7265               621.5038               750.2662
 Red. masses --      4.1544                 5.3540                 5.6916
 Frc consts  --      0.8085                 1.2185                 1.8876
 IR Inten    --      2.9343                12.5319                38.2386

                     16                     17                     18
                      A                      A                      A
 Frequencies --    753.6410               791.1900               815.0943
 Red. masses --      1.4469                 1.3995                 1.2620
 Frc consts  --      0.4842                 0.5161                 0.4940
 IR Inten    --     74.7024                39.7825                 5.4788

                     19                     20                     21
                      A                      A                      A
 Frequencies --    898.5207               944.8496              1112.4125
 Red. masses --      3.3958                 2.5625                 4.1313
 Frc consts  --      1.6153                 1.3478                 3.0121
 IR Inten    --     20.6408                 6.4600                 6.4319

                     22                     23                     24
                      A                      A                      A
 Frequencies --   1157.9148              1227.4785              1329.3724
 Red. masses --      2.1059                 1.7597                 1.8156
 Frc consts  --      1.6635                 1.5621                 1.8904
 IR Inten    --     18.4064                 4.1755               296.4653

                     25                     26                     27
                      A                      A                      A
 Frequencies --   1373.9577              1443.2523              1454.9390
 Red. masses --      1.8585                 1.3870                 1.2740
 Frc consts  --      2.0671                 1.7022                 1.5890
 IR Inten    --    317.8052                46.5442                14.7610

                     28                     29                     30
                      A                      A                      A
 Frequencies --   1527.9454              1537.3100              1545.1107
 Red. masses --      1.0421                 1.0707                 1.0731
 Frc consts  --      1.4334                 1.4908                 1.5094
 IR Inten    --     14.3041                 4.0695                21.1727

                     31                     32                     33
                      A                      A                      A
 Frequencies --   1908.9789              2293.7663              3107.2138
 Red. masses --     12.2551                 5.7020                 1.0351
 Frc consts  --     26.3130                17.6756                 5.8880
 IR Inten    --    306.5307                63.9703                13.8151

                     34                     35                     36
                      A                      A                      A
 Frequencies --   3138.9298              3186.7741              3190.9626
 Red. masses --      1.0602                 1.1002                 1.1025
 Frc consts  --      6.1546                 6.5832                 6.6141
 IR Inten    --     17.5900                14.5736                 5.7566

                     37                     38                     39
                      A                      A                      A
 Frequencies --   3211.9692              3529.9240              3810.8325
 Red. masses --      1.1054                 1.1724                 1.0672
 Frc consts  --      6.7189                 8.6073                 9.1315
 IR Inten    --     17.6965                60.6792                13.1100

 - Thermochemistry -
 -------------------
 Temperature   298.150 Kelvin.  Pressure   1.00000 Atm.
 Atom     1 has atomic number  8 and mass  15.99491

 Molecular mass:   115.03952 amu.
 Principal axes and moments of inertia in atomic units:
                           1         2         3
     Eigenvalues --   463.999151553.299631640.94969
           X            0.99998  -0.00374   0.00548
           Y            0.00327   0.99651   0.08345
           Z           -0.00577  -0.08343   0.99650
 This molecule is an asymmetric top.
 Rotational symmetry number  1.
 Warning -- assumption of classical behavior for rotation
           may cause significant error
 Rotational temperatures (Kelvin)      0.18667     0.05576     0.05278
 Rotational constants (GHZ):           3.88954     1.16188     1.09982
    3 imaginary frequencies ignored.
 Zero-point vibrational energy     293084.1 (Joules/Mol)
                                   70.04877 (Kcal/Mol)
 Warning -- explicit consideration of  10 degrees of freedom as
           vibrations may cause significant error
 Vibrational temperatures:     18.22   106.18   128.66   206.24   263.99
          (Kelvin)            283.65   439.99   491.73   595.03   826.90
                              894.21  1079.47  1084.32  1138.35  1172.74
                             1292.77  1359.43  1600.51  1665.98  1766.07
                             1912.67  1976.82  2076.52  2093.33  2198.37
                             2211.85  2223.07  2746.59  3300.22  4470.59
                             4516.22  4585.06  4591.08  4621.31  5078.77
                             5482.94

 Zero-point correction=                           0.111630 (Hartree/Particle)
 Thermal correction to Energy=                    0.120674
 Thermal correction to Enthalpy=                  0.121618
 Thermal correction to Gibbs Free Energy=         0.074874
 Sum of electronic and zero-point Energies=           -419.845979
 Sum of electronic and thermal Energies=              -419.836935
 Sum of electronic and thermal Enthalpies=            -419.835991
 Sum of electronic and thermal Free Energies=         -419.882735

                     E (Thermal)             CV                S
                      KCal/Mol        Cal/Mol-Kelvin    Cal/Mol-Kelvin
 Total                   75.724             29.295             98.380
 Electronic               0.000              0.000              1.377
 Translational            0.889              2.981             40.136
 Rotational               0.889              2.981             28.560
 Vibrational             73.946             23.334             28.307
 Vibration     1          0.593              1.987              7.542
 Vibration     2          0.599              1.966              4.049
 Vibration     3          0.602              1.957              3.673
 Vibration     4          0.616              1.910              2.759
 Vibration     5          0.631              1.862              2.293
 Vibration     6          0.637              1.844              2.160
 Vibration     7          0.696              1.663              1.385
 Vibration     8          0.721              1.592              1.204
 Vibration     9          0.777              1.441              0.914
 Vibration    10          0.931              1.086              0.495

 Normal termination of Gaussian 16 at Fri Jun 20 14:36:54 2025.
