 Gaussian 16, Revision A.03,
 Gaussian 16:  ES64L-G16RevA.03 25-Dec-2016

 --------------------------
 # ccsd(t)/6-311++g(d,p) sp
 --------------------------

 -------------------
 Title Card Required
 -------------------
 Symbolic Z-matrix:
 Charge =  0 Multiplicity = 2

                         Standard orientation:
 ---------------------------------------------------------------------
 Center     Atomic      Atomic             Coordinates (Angstroms)
 Number     Number       Type             X           Y           Z
 ---------------------------------------------------------------------
      1          8           0        2.185803    1.390990   -0.020440
      2          1           0        2.826422    1.226485    0.690064
      3          6           0        2.455701   -1.189475   -0.544519
      4          1           0        3.337111   -1.675368   -0.893273
      5          6           0        1.484143   -0.580604   -0.166939
      6          6           0        0.159479   -0.194158    0.327726
      7          8           0       -0.174402   -0.329408    1.470989
      8          8           0       -0.593194    0.281208   -0.655719
      9          6           0       -1.925107    0.696447   -0.290155
     10          6           0       -2.860747   -0.492708   -0.194368
     11          1           0       -2.217175    1.376547   -1.088122
     12          1           0       -1.872289    1.242372    0.652399
     13          1           0       -3.874535   -0.143869    0.011731
     14          1           0       -2.870586   -1.046394   -1.134434
     15          1           0       -2.555405   -1.159108    0.612518
 ---------------------------------------------------------------------

 SCF Done:  E(UHF) =  -417.983258543     A.U. after   39 cycles
 E2 =    -0.1257731940D+01 EUMP2 =    -0.41924099048242D+03
 CCSD(T)= -0.41935371758D+03

 The electronic state is 2-A.
 Alpha  occ. eigenvalues --  -20.62553 -20.61035 -20.55547 -11.41399 -11.29500
 Alpha  occ. eigenvalues --  -11.26825 -11.25954 -11.22435  -1.48039  -1.38319
 Alpha  occ. eigenvalues --   -1.37670  -1.07831  -1.04244  -0.92555  -0.83767
 Alpha  occ. eigenvalues --   -0.76340  -0.73041  -0.69629  -0.67901  -0.66313
 Alpha  occ. eigenvalues --   -0.65025  -0.62901  -0.58151  -0.55389  -0.53930
 Alpha  occ. eigenvalues --   -0.53703  -0.50285  -0.47614  -0.45940  -0.42971
 Alpha  occ. eigenvalues --   -0.42133
 Alpha virt. eigenvalues --    0.03722   0.04548   0.05763   0.06605   0.07030
 Alpha virt. eigenvalues --    0.08267   0.09289   0.10395   0.11258   0.12420
 Alpha virt. eigenvalues --    0.13433   0.13793   0.14427   0.15028   0.16603

  Beta  occ. eigenvalues --  -20.61044 -20.58603 -20.55919 -11.41094 -11.29500
  Beta  occ. eigenvalues --  -11.27495 -11.25024 -11.22436  -1.48194  -1.38279
  Beta  occ. eigenvalues --   -1.23946  -1.07821  -1.03588  -0.91767  -0.83353
  Beta  occ. eigenvalues --   -0.76195  -0.72155  -0.69692  -0.66561  -0.63643
  Beta  occ. eigenvalues --   -0.62969  -0.58516  -0.55207  -0.53976  -0.50818
  Beta  occ. eigenvalues --   -0.49877  -0.48460  -0.46856  -0.43616  -0.42283
  Beta virt. eigenvalues --    0.03801   0.04551   0.04817   0.06517   0.06994
  Beta virt. eigenvalues --    0.08039   0.08909   0.09437   0.10765   0.11638
  Beta virt. eigenvalues --    0.13081   0.13619   0.14052   0.14802   0.15755

 Mulliken charges and spin densities:
               1          2
     1  O   -0.158422   0.936667
     2  H    0.243008  -0.034108
     3  C   -1.066994   0.833507
     4  H    0.207461  -0.065009
     5  C    1.183585  -0.803097
     6  C   -0.378448   0.206512
     7  O   -0.277511  -0.076596
     8  O   -0.027940   0.001275
     9  C   -0.152865   0.002345
    10  C   -0.380484  -0.001947
    11  H    0.171722   0.000176
    12  H    0.181038  -0.000003
    13  H    0.129877   0.000015
    14  H    0.144841   0.000102
    15  H    0.181132   0.000159
 Sum of Mulliken charges =  -0.00000   1.00000

 Dipole moment (field-independent basis, Debye):
    X=              0.5902    Y=             -0.2640    Z=             -0.7915  Tot=              1.0220
 Quadrupole moment (field-independent basis, Debye-Ang):
   XX=            -31.2842   YY=            -46.1761   ZZ=            -52.5166
   XY=             -4.5359   XZ=              2.6119   YZ=              4.1965

 PMP3-0=-419.2802563\MP4SDQ=-419.2963132\CCSD=-419.3002468\CCSD(T)=-419
 Normal termination of Gaussian 16 at Fri Aug 29 23:37:08 2025.
