 Gaussian 16, Revision A.03,
 Gaussian 16:  ES64L-G16RevA.03 25-Dec-2016

 --------------------------
 # ccsd(t)/6-311++g(d,p) sp
 --------------------------

 -------------------
 Title Card Required
 -------------------
 Symbolic Z-matrix:
 Charge =  0 Multiplicity = 2

                         Standard orientation:
 ---------------------------------------------------------------------
 Center     Atomic      Atomic             Coordinates (Angstroms)
 Number     Number       Type             X           Y           Z
 ---------------------------------------------------------------------
      1          8           0        2.129878    1.281855    0.018066
      2          1           0        2.789966    1.176449    0.715981
      3          6           0        2.444500   -1.163595   -0.585724
      4          1           0        3.325798   -1.636088   -0.956904
      5          6           0        1.568856   -0.368050   -0.164197
      6          6           0        0.165953   -0.194426    0.321435
      7          8           0       -0.169485   -0.394196    1.453559
      8          8           0       -0.594801    0.298402   -0.645167
      9          6           0       -1.930186    0.691906   -0.264388
     10          6           0       -2.857640   -0.505349   -0.212831
     11          1           0       -2.225883    1.400061   -1.036123
     12          1           0       -1.878165    1.202319    0.697980
     13          1           0       -3.873684   -0.171408    0.006322
     14          1           0       -2.864429   -1.023366   -1.173068
     15          1           0       -2.547234   -1.199365    0.568377
 ---------------------------------------------------------------------

 SCF Done:  E(UHF) =  -417.980912539     A.U. after   28 cycles
 E2 =    -0.1263173512D+01 EUMP2 =    -0.41924408605091D+03
 CCSD(T)= -0.41936414381D+03

 The electronic state is 2-A.
 Alpha  occ. eigenvalues --  -20.61190 -20.60146 -20.55772 -11.41223 -11.29810
 Alpha  occ. eigenvalues --  -11.29589 -11.28284 -11.22520  -1.48220  -1.37906
 Alpha  occ. eigenvalues --   -1.35818  -1.08669  -1.04603  -0.92637  -0.84244
 Alpha  occ. eigenvalues --   -0.76706  -0.73219  -0.69825  -0.67704  -0.65194
 Alpha  occ. eigenvalues --   -0.63227  -0.61518  -0.58213  -0.54520  -0.53738
 Alpha  occ. eigenvalues --   -0.52514  -0.50270  -0.47889  -0.46151  -0.43849
 Alpha  occ. eigenvalues --   -0.41904
 Alpha virt. eigenvalues --    0.03686   0.04510   0.05817   0.06640   0.07008
 Alpha virt. eigenvalues --    0.08227   0.09238   0.11295   0.11332   0.12752
 Alpha virt. eigenvalues --    0.13368   0.13607   0.14397   0.14686   0.16776

  Beta  occ. eigenvalues --  -20.61196 -20.57578 -20.56066 -11.40872 -11.32053
  Beta  occ. eigenvalues --  -11.29591 -11.25277 -11.22520  -1.48327  -1.38376
  Beta  occ. eigenvalues --   -1.27861  -1.07416  -1.03334  -0.91172  -0.82952
  Beta  occ. eigenvalues --   -0.76256  -0.71706  -0.70002  -0.66690  -0.64311
  Beta  occ. eigenvalues --   -0.63058  -0.58751  -0.55073  -0.53957  -0.51260
  Beta  occ. eigenvalues --   -0.49579  -0.48777  -0.47340  -0.46849  -0.42233
  Beta virt. eigenvalues --    0.03818   0.04162   0.04541   0.06450   0.06916
  Beta virt. eigenvalues --    0.07427   0.08515   0.09272   0.10475   0.12719
  Beta virt. eigenvalues --    0.13186   0.13647   0.14015   0.14726   0.16431

 Mulliken charges and spin densities:
               1          2
     1  O   -0.240295   0.577166
     2  H    0.259138  -0.019549
     3  C    0.050632   1.538707
     4  H    0.242602  -0.106814
     5  C    0.044941  -1.125255
     6  C   -0.280565   0.190367
     7  O   -0.293685  -0.058305
     8  O   -0.043429   0.002863
     9  C   -0.154506   0.002098
    10  C   -0.395523  -0.001928
    11  H    0.170108   0.000139
    12  H    0.183784   0.000024
    13  H    0.129855   0.000101
    14  H    0.144053   0.000057
    15  H    0.182889   0.000328
 Sum of Mulliken charges =  -0.00000   1.00000

 Dipole moment (field-independent basis, Debye):
    X=              0.3734    Y=             -0.9696    Z=             -0.9693  Tot=              1.4209
 Quadrupole moment (field-independent basis, Debye-Ang):
   XX=            -32.2280   YY=            -47.2513   ZZ=            -52.1102
   XY=             -6.0766   XZ=              2.1003   YZ=              4.3786

 Normal termination of Gaussian 16 at Mon Aug 25 19:56:19 2025.
