 Gaussian 16, Revision A.03,
 Gaussian 16:  ES64L-G16RevA.03 25-Dec-2016

 -------------------
 # freq 6-31+g m062x
 -------------------

 -------------------
 Title Card Required
 -------------------
 Symbolic Z-matrix:
 Charge =  0 Multiplicity = 2

                         Standard orientation:
 ---------------------------------------------------------------------
 Center     Atomic      Atomic             Coordinates (Angstroms)
 Number     Number       Type             X           Y           Z
 ---------------------------------------------------------------------
      1          8           0        2.140278    1.303931    0.008952
      2          1           0        2.796983    1.187654    0.709714
      3          6           0        2.448378   -1.167545   -0.575749
      4          1           0        3.323243   -1.653944   -0.942476
      5          6           0        1.552063   -0.410765   -0.165316
      6          6           0        0.164377   -0.192294    0.323362
      7          8           0       -0.170226   -0.379483    1.457738
      8          8           0       -0.594409    0.293864   -0.647801
      9          6           0       -1.929383    0.691946   -0.270584
     10          6           0       -2.858105   -0.503972   -0.208335
     11          1           0       -2.224358    1.393307   -1.048749
     12          1           0       -1.877181    1.211057    0.687065
     13          1           0       -3.873764   -0.166892    0.007763
     14          1           0       -2.865449   -1.030630   -1.163853
     15          1           0       -2.548594   -1.191267    0.579160
 ---------------------------------------------------------------------

 SCF Done:  E(UM062X) =  -419.956838969     A.U. after   21 cycles

 The electronic state is 2-A.
 Alpha  occ. eigenvalues --  -19.70741 -19.67002 -19.66536 -10.73101 -10.63819
 Alpha  occ. eigenvalues --  -10.61566 -10.61186 -10.54656  -1.28326  -1.18949
 Alpha  occ. eigenvalues --   -1.12127  -0.92352  -0.88623  -0.78823  -0.71883
 Alpha  occ. eigenvalues --   -0.65062  -0.62871  -0.58922  -0.57426  -0.54579
 Alpha  occ. eigenvalues --   -0.53564  -0.49807  -0.48187  -0.46504  -0.45342
 Alpha  occ. eigenvalues --   -0.42231  -0.40287  -0.39788  -0.38271  -0.36829
 Alpha  occ. eigenvalues --   -0.31867
 Alpha virt. eigenvalues --   -0.00265   0.01772   0.02470   0.02756   0.03846
 Alpha virt. eigenvalues --    0.04186   0.05270   0.06004   0.07719   0.08006
 Alpha virt. eigenvalues --    0.08480   0.08983   0.09464   0.11281   0.11976

  Beta  occ. eigenvalues --  -19.70741 -19.66554 -19.66054 -10.73043 -10.63988
  Beta  occ. eigenvalues --  -10.61565 -10.60668 -10.54656  -1.28311  -1.18966
  Beta  occ. eigenvalues --   -1.08923  -0.91341  -0.87898  -0.78388  -0.71334
  Beta  occ. eigenvalues --   -0.64806  -0.62036  -0.58672  -0.57210  -0.54241
  Beta  occ. eigenvalues --   -0.52241  -0.49320  -0.46953  -0.45311  -0.42551
  Beta  occ. eigenvalues --   -0.41392  -0.39461  -0.38533  -0.38073  -0.35403
  Beta virt. eigenvalues --   -0.09775   0.00930   0.01676   0.02597   0.02799
  Beta virt. eigenvalues --    0.03863   0.04162   0.05276   0.05848   0.07661
  Beta virt. eigenvalues --    0.08098   0.08306   0.08904   0.09559   0.11146

 Mulliken charges and spin densities:
               1          2
     1  O   -0.488514   0.479193
     2  H    0.410677  -0.013771
     3  C    0.345942   0.834476
     4  H    0.299742  -0.030656
     5  C   -0.576309  -0.333412
     6  C    0.217100   0.069567
     7  O   -0.352710  -0.007369
     8  O   -0.194481   0.000072
     9  C   -0.197089   0.001652
    10  C   -0.586038   0.000402
    11  H    0.224759  -0.000153
    12  H    0.235922  -0.000116
    13  H    0.207735   0.000196
    14  H    0.219173  -0.000049
    15  H    0.234093  -0.000033
 Sum of Mulliken charges =  -0.00000   1.00000

 Dipole moment (field-independent basis, Debye):
    X=              0.0965    Y=             -1.5026    Z=             -0.6666  Tot=              1.6467
 Quadrupole moment (field-independent basis, Debye-Ang):
   XX=            -31.8961   YY=            -48.0067   ZZ=            -52.8422
   XY=             -7.2206   XZ=              2.2827   YZ=              4.6397

  Exact polarizability:  79.948  -5.848  72.609  -2.721   4.482  58.110
 Approx polarizability:  76.304 -10.765  83.695  -5.992   4.236  73.441

 ******    3 imaginary frequencies (negative Signs) ******

                      1                      2                      3
                      A                      A                      A
 Frequencies --   -681.6592              -471.9714               -87.3226
 Red. masses --     11.8041                 1.0711                 7.0469
 Frc consts  --      3.2316                 0.1406                 0.0317
 IR Inten    --      0.9325               113.5158                 5.8895

                      4                      5                      6
                      A                      A                      A
 Frequencies --     39.8184                58.9754               141.7990
 Red. masses --      2.6494                 3.4849                 2.7800
 Frc consts  --      0.0025                 0.0071                 0.0329
 IR Inten    --      2.8245                 5.4914                 4.8711

                      7                      8                      9
                      A                      A                      A
 Frequencies --    186.8035               208.2386               279.9103
 Red. masses --      2.0235                 2.8577                 2.6630
 Frc consts  --      0.0416                 0.0730                 0.1229
 IR Inten    --      4.6725                 0.4535                 8.0905

                     10                     11                     12
                      A                      A                      A
 Frequencies --    315.6727               406.3314               428.8393
 Red. masses --      2.8967                 2.4965                 1.9886
 Frc consts  --      0.1701                 0.2429                 0.2155
 IR Inten    --     17.1490                16.5207                22.3854

                     13                     14                     15
                      A                      A                      A
 Frequencies --    572.0569               617.9105               717.2972
 Red. masses --      3.4193                 6.1734                 4.2345
 Frc consts  --      0.6593                 1.3888                 1.2837
 IR Inten    --     14.5887                14.6875                53.1603

                     16                     17                     18
                      A                      A                      A
 Frequencies --    721.6577               814.7703               864.2528
 Red. masses --      1.5841                 1.2838                 1.2718
 Frc consts  --      0.4861                 0.5021                 0.5597
 IR Inten    --     38.9346                 7.5742                57.9363

                     19                     20                     21
                      A                      A                      A
 Frequencies --    894.2479               940.1207              1110.5720
 Red. masses --      3.3382                 2.4568                 4.1288
 Frc consts  --      1.5728                 1.2794                 3.0003
 IR Inten    --     22.8555                 7.4045                 6.8795

                     22                     23                     24
                      A                      A                      A
 Frequencies --   1156.8221              1227.0923              1323.6840
 Red. masses --      2.0584                 1.7411                 2.0798
 Frc consts  --      1.6230                 1.5446                 2.1470
 IR Inten    --     18.0663                 6.0354               338.0441

                     25                     26                     27
                      A                      A                      A
 Frequencies --   1371.6677              1443.2661              1456.0926
 Red. masses --      1.6901                 1.3565                 1.2726
 Frc consts  --      1.8735                 1.6648                 1.5898
 IR Inten    --    258.2517                32.3201                14.5012

                     28                     29                     30
                      A                      A                      A
 Frequencies --   1528.1038              1538.0618              1546.1890
 Red. masses --      1.0419                 1.0645                 1.0779
 Frc consts  --      1.4334                 1.4837                 1.5182
 IR Inten    --     14.3404                 2.0168                20.2764

                     31                     32                     33
                      A                      A                      A
 Frequencies --   1909.0816              2001.6046              3107.5308
 Red. masses --     11.3385                 7.1087                 1.0352
 Frc consts  --     24.3474                16.7801                 5.8896
 IR Inten    --    289.0819                52.4415                13.4938

                     34                     35                     36
                      A                      A                      A
 Frequencies --   3139.6577              3186.9770              3191.9633
 Red. masses --      1.0603                 1.0998                 1.1028
 Frc consts  --      6.1580                 6.5816                 6.6198
 IR Inten    --     15.8205                15.5710                 3.9909

                     37                     38                     39
                      A                      A                      A
 Frequencies --   3213.1783              3501.2851              3856.6409
 Red. masses --      1.1054                 1.1349                 1.0673
 Frc consts  --      6.7244                 8.1971                 9.3532
 IR Inten    --     17.0760                67.7957                32.6778

 - Thermochemistry -
 -------------------
 Temperature   298.150 Kelvin.  Pressure   1.00000 Atm.
 Atom     1 has atomic number  8 and mass  15.99491

 Molecular mass:   115.03952 amu.
 Principal axes and moments of inertia in atomic units:
                           1         2         3
     Eigenvalues --   431.991761543.873201604.29531
           X            0.99998  -0.00356   0.00503
           Y            0.00285   0.99089   0.13461
           Z           -0.00546  -0.13459   0.99089
 This molecule is an asymmetric top.
 Rotational symmetry number  1.
 Rotational temperatures (Kelvin)      0.20050     0.05610     0.05399
 Rotational constants (GHZ):           4.17772     1.16897     1.12494
    3 imaginary frequencies ignored.
 Zero-point vibrational energy     293193.8 (Joules/Mol)
                                   70.07500 (Kcal/Mol)
 Warning -- explicit consideration of  11 degrees of freedom as
           vibrations may cause significant error
 Vibrational temperatures:     57.29    84.85   204.02   268.77   299.61
          (Kelvin)            402.73   454.18   584.62   617.00   823.06
                              889.04  1032.03  1038.30  1172.27  1243.47
                             1286.62  1352.62  1597.87  1664.41  1765.51
                             1904.49  1973.52  2076.54  2094.99  2198.60
                             2212.93  2224.62  2746.74  2879.86  4471.04
                             4517.27  4585.35  4592.52  4623.05  5037.57
                             5548.85

 Zero-point correction=                           0.111672 (Hartree/Particle)
 Thermal correction to Energy=                    0.120274
 Thermal correction to Enthalpy=                  0.121218
 Thermal correction to Gibbs Free Energy=         0.076623
 Sum of electronic and zero-point Energies=           -419.845167
 Sum of electronic and thermal Energies=              -419.836565
 Sum of electronic and thermal Enthalpies=            -419.835621
 Sum of electronic and thermal Free Energies=         -419.880216

                     E (Thermal)             CV                S
                      KCal/Mol        Cal/Mol-Kelvin    Cal/Mol-Kelvin
 Total                   75.473             28.888             93.860
 Electronic               0.000              0.000              1.377
 Translational            0.889              2.981             40.136
 Rotational               0.889              2.981             28.461
 Vibrational             73.696             22.926             23.886
 Vibration     1          0.594              1.981              5.268
 Vibration     2          0.596              1.974              4.491
 Vibration     3          0.615              1.911              2.779
 Vibration     4          0.632              1.858              2.259
 Vibration     5          0.642              1.828              2.059
 Vibration     6          0.680              1.711              1.534
 Vibration     7          0.703              1.644              1.332
 Vibration     8          0.771              1.456              0.940
 Vibration     9          0.790              1.407              0.862
 Vibration    10          0.928              1.092              0.500
 Vibration    11          0.978              0.994              0.420

 Normal termination of Gaussian 16 at Fri Jun 20 14:33:42 2025.
