 Gaussian 16, Revision A.03,
 Gaussian 16:  ES64L-G16RevA.03 25-Dec-2016

 --------------------------
 # freq 6-311++g(d,p) m062x
 --------------------------

 -------------------
 Title Card Required
 -------------------
 Symbolic Z-matrix:
 Charge =  0 Multiplicity = 2

                         Standard orientation:
 ---------------------------------------------------------------------
 Center     Atomic      Atomic             Coordinates (Angstroms)
 Number     Number       Type             X           Y           Z
 ---------------------------------------------------------------------
      1          8           0        2.210579    1.437703   -0.035226
      2          1           0        2.832482    1.238910    0.684076
      3          6           0        2.457881   -1.208574   -0.530137
      4          1           0        3.355231   -1.671111   -0.869463
      5          6           0        1.451959   -0.660437   -0.164803
      6          6           0        0.153044   -0.204993    0.328941
      7          8           0       -0.177326   -0.302259    1.477768
      8          8           0       -0.592513    0.273992   -0.659347
      9          6           0       -1.922289    0.700567   -0.299899
     10          6           0       -2.861771   -0.484867   -0.188535
     11          1           0       -2.211776    1.370272   -1.107498
     12          1           0       -1.868601    1.259311    0.634974
     13          1           0       -3.874696   -0.130543    0.012298
     14          1           0       -2.872405   -1.051283   -1.120962
     15          1           0       -2.559108   -1.141222    0.627614
 ---------------------------------------------------------------------

 SCF Done:  E(UM062X) =  -420.205908725     A.U. after   24 cycles

 The electronic state is 2-A.
 Alpha  occ. eigenvalues --  -19.68068 -19.67250 -19.62939 -10.70554 -10.60387
 Alpha  occ. eigenvalues --  -10.57855 -10.57540 -10.53695  -1.25549  -1.16237
 Alpha  occ. eigenvalues --   -1.13062  -0.90630  -0.87258  -0.78066  -0.70584
 Alpha  occ. eigenvalues --   -0.64381  -0.61631  -0.58459  -0.56608  -0.54936
 Alpha  occ. eigenvalues --   -0.53467  -0.50617  -0.48444  -0.46396  -0.45232
 Alpha  occ. eigenvalues --   -0.42399  -0.41672  -0.39554  -0.38269  -0.36441
 Alpha  occ. eigenvalues --   -0.35689
 Alpha virt. eigenvalues --   -0.00996  -0.00343   0.00520   0.01547   0.02352
 Alpha virt. eigenvalues --    0.02795   0.03561   0.04227   0.05531   0.06731
 Alpha virt. eigenvalues --    0.07303   0.07784   0.08168   0.09217   0.10265

  Beta  occ. eigenvalues --  -19.68073 -19.65690 -19.62953 -10.70540 -10.60387
  Beta  occ. eigenvalues --  -10.57836 -10.57445 -10.53695  -1.25557  -1.16266
  Beta  occ. eigenvalues --   -1.05713  -0.90347  -0.86990  -0.77949  -0.70465
  Beta  occ. eigenvalues --   -0.64343  -0.61364  -0.58373  -0.56386  -0.53456
  Beta  occ. eigenvalues --   -0.52042  -0.49205  -0.46614  -0.45233  -0.41942
  Beta  occ. eigenvalues --   -0.39500  -0.38977  -0.38278  -0.38043  -0.36092
  Beta virt. eigenvalues --   -0.08800  -0.00436  -0.00182   0.00595   0.01861
  Beta virt. eigenvalues --    0.02456   0.02830   0.03573   0.04321   0.05558
  Beta virt. eigenvalues --    0.06710   0.07402   0.07834   0.08285   0.09334

 Mulliken charges and spin densities:
               1          2
     1  O   -0.211320   0.909461
     2  H    0.236828  -0.019840
     3  C   -1.446437   0.129996
     4  H    0.180694  -0.008598
     5  C    1.377723  -0.064973
     6  C   -0.245670   0.060000
     7  O   -0.194677  -0.006209
     8  O    0.059069   0.000559
     9  C   -0.253832   0.000570
    10  C   -0.419562  -0.000919
    11  H    0.201199   0.000142
    12  H    0.197963  -0.000450
    13  H    0.162215   0.000117
    14  H    0.166224   0.000085
    15  H    0.189583   0.000057
 Sum of Mulliken charges =  -0.00000   1.00000

 Dipole moment (field-independent basis, Debye):
    X=              0.2740    Y=             -0.6112    Z=             -0.6950  Tot=              0.9652
 Quadrupole moment (field-independent basis, Debye-Ang):
   XX=            -31.7192   YY=            -46.5332   ZZ=            -52.0241
   XY=             -5.2026   XZ=              2.5524   YZ=              3.8964

  Exact polarizability:  86.985  -7.796  68.656  -4.053   3.208  60.197
 Approx polarizability:  89.937 -13.277  76.385  -8.020   2.967  78.399

 ******    1 imaginary frequencies (negative Signs) ******

                      1                      2                      3
                      A                      A                      A
 Frequencies --    -33.6962                46.6962               106.1170
 Red. masses --      5.0684                 4.3646                 5.9078
 Frc consts  --      0.0034                 0.0056                 0.0392
 IR Inten    --      7.7257                 2.6110                 6.1075

                      4                      5                      6
                      A                      A                      A
 Frequencies --    113.8500               158.4401               191.1526
 Red. masses --      3.4528                 2.4380                 1.8076
 Frc consts  --      0.0264                 0.0361                 0.0389
 IR Inten    --      4.6889                18.6105                33.3434

                      7                      8                      9
                      A                      A                      A
 Frequencies --    203.1335               228.9077               266.3643
 Red. masses --      3.3201                 1.3030                 3.0152
 Frc consts  --      0.0807                 0.0402                 0.1260
 IR Inten    --     21.1687                 1.8761                14.2843

                     10                     11                     12
                      A                      A                      A
 Frequencies --    338.3644               420.1089               546.7294
 Red. masses --      2.9012                 3.8524                 1.5602
 Frc consts  --      0.1957                 0.4006                 0.2748
 IR Inten    --     11.1943                 0.3336                67.9859

                     13                     14                     15
                      A                      A                      A
 Frequencies --    578.3207               608.8243               722.1548
 Red. masses --      1.8846                 6.5795                 1.3343
 Frc consts  --      0.3714                 1.4369                 0.4100
 IR Inten    --     47.4831                 7.6757                37.3858

                     16                     17                     18
                      A                      A                      A
 Frequencies --    752.9307               779.8758               799.6604
 Red. masses --      1.3289                 7.7968                 1.2022
 Frc consts  --      0.4439                 2.7940                 0.4529
 IR Inten    --     21.4839                52.4868                 4.9944

                     19                     20                     21
                      A                      A                      A
 Frequencies --    895.7982               928.2765              1076.9369
 Red. masses --      3.1287                 2.8506                 4.1574
 Frc consts  --      1.4792                 1.4472                 2.8409
 IR Inten    --     14.7066                 6.3900                20.9628

                     22                     23                     24
                      A                      A                      A
 Frequencies --   1127.4121              1203.0162              1293.1696
 Red. masses --      2.0992                 1.7751                 3.5293
 Frc consts  --      1.5721                 1.5136                 3.4773
 IR Inten    --     21.4792                 4.9521               560.7556

                     25                     26                     27
                      A                      A                      A
 Frequencies --   1347.6385              1400.4814              1429.7313
 Red. masses --      1.2606                 1.2874                 1.3908
 Frc consts  --      1.3489                 1.4877                 1.6750
 IR Inten    --    112.1907                34.3082                 9.1688

                     28                     29                     30
                      A                      A                      A
 Frequencies --   1492.1746              1502.7743              1514.5593
 Red. masses --      1.0409                 1.0611                 1.0852
 Frc consts  --      1.3655                 1.4119                 1.4667
 IR Inten    --     10.4886                 1.9538                17.2268

                     31                     32                     33
                      A                      A                      A
 Frequencies --   1841.3059              2235.7669              3075.1512
 Red. masses --     11.9951                 5.8730                 1.0353
 Frc consts  --     23.9610                17.2966                 5.7685
 IR Inten    --    330.5231                61.0588                10.7127

                     34                     35                     36
                      A                      A                      A
 Frequencies --   3108.6429              3150.2992              3154.8792
 Red. masses --      1.0609                 1.1014                 1.1047
 Frc consts  --      6.0403                 6.4399                 6.4785
 IR Inten    --     16.1385                15.1499                 1.9988

                     37                     38                     39
                      A                      A                      A
 Frequencies --   3175.8314              3487.3137              3798.8398
 Red. masses --      1.1074                 1.1658                 1.0673
 Frc consts  --      6.5808                 8.3530                 9.0745
 IR Inten    --     14.8652                66.5168                37.2894

 - Thermochemistry -
 -------------------
 Temperature   298.150 Kelvin.  Pressure   1.00000 Atm.
 Atom     1 has atomic number  8 and mass  15.99491

 Molecular mass:   115.03952 amu.
 Principal axes and moments of inertia in atomic units:
                           1         2         3
     Eigenvalues --   467.508291554.245781644.92270
           X            0.99998  -0.00379   0.00552
           Y            0.00334   0.99681   0.07977
           Z           -0.00580  -0.07975   0.99680
 This molecule is an asymmetric top.
 Rotational symmetry number  1.
 Warning -- assumption of classical behavior for rotation
           may cause significant error
 Rotational temperatures (Kelvin)      0.18527     0.05573     0.05266
 Rotational constants (GHZ):           3.86034     1.16117     1.09716
    1 imaginary frequencies ignored.
 Zero-point vibrational energy     293693.0 (Joules/Mol)
                                   70.19430 (Kcal/Mol)
 Warning -- explicit consideration of  13 degrees of freedom as
           vibrations may cause significant error
 Vibrational temperatures:     67.19   152.68   163.80   227.96   275.03
          (Kelvin)            292.26   329.35   383.24   486.83   604.44
                              786.62   832.07   875.96  1039.02  1083.30
                             1122.07  1150.53  1288.85  1335.58  1549.47
                             1622.09  1730.87  1860.58  1938.95  2014.98
                             2057.06  2146.91  2162.16  2179.11  2649.23
                             3216.77  4424.46  4472.64  4532.58  4539.17
                             4569.31  5017.47  5465.68

 Zero-point correction=                           0.111862 (Hartree/Particle)
 Thermal correction to Energy=                    0.121472
 Thermal correction to Enthalpy=                  0.122416
 Thermal correction to Gibbs Free Energy=         0.076292
 Sum of electronic and zero-point Energies=           -420.094047
 Sum of electronic and thermal Energies=              -420.084437
 Sum of electronic and thermal Enthalpies=            -420.083493
 Sum of electronic and thermal Free Energies=         -420.129617

                     E (Thermal)             CV                S
                      KCal/Mol        Cal/Mol-Kelvin    Cal/Mol-Kelvin
 Total                   76.225             32.511             97.076
 Electronic               0.000              0.000              1.377
 Translational            0.889              2.981             40.136
 Rotational               0.889              2.981             28.571
 Vibrational             74.447             26.549             26.992
 Vibration     1          0.595              1.979              4.953
 Vibration     2          0.605              1.944              3.339
 Vibration     3          0.607              1.938              3.202
 Vibration     4          0.621              1.893              2.568
 Vibration     5          0.634              1.852              2.217
 Vibration     6          0.639              1.835              2.105
 Vibration     7          0.652              1.797              1.887
 Vibration     8          0.672              1.735              1.620
 Vibration     9          0.719              1.599              1.220
 Vibration    10          0.783              1.427              0.892
 Vibration    11          0.902              1.147              0.551
 Vibration    12          0.935              1.078              0.488
 Vibration    13          0.968              1.013              0.435

 1\1\GINC-AJ\Freq\UM062X\6-311++G(d,p)\C5H7O3(2)\AAYUSH\16-Aug-2025\0\\
 # freq 6-311++g(d,p) m062x\\Title Card Required\\0,2\O,2.140151,1.4498
 32,-0.01093\H,2.76355,1.237289,0.703126\C,2.402581,-1.18219,-0.569917\
 H,3.302437,-1.631138,-0.920666\C,1.39367,-0.648931,-0.191055\C,0.09237
 3,-0.213154,0.314034\O,-0.236864,-0.340152,1.460282\O,-0.656438,0.2852
 93,-0.662095\C,-1.988494,0.695285,-0.291951\C,-2.921018,-0.497947,-0.2
 09022\H,-2.282262,1.382668,-1.082981\H,-1.937596,1.231513,0.65617\H,-3
 .935886,-0.154495,0.000692\H,-2.928817,-1.041653,-1.154899\H,-2.614148

 Normal termination of Gaussian 16 at Sat Aug 16 18:31:10 2025.
