 Gaussian 16, Revision A.03,
 Gaussian 16:  ES64L-G16RevA.03 25-Dec-2016

 --------------------------
 # freq 6-311++g(d,p) m062x
 --------------------------

 -------------------
 Title Card Required
 -------------------
 Symbolic Z-matrix:
 Charge =  0 Multiplicity = 2

                         Standard orientation:
 ---------------------------------------------------------------------
 Center     Atomic      Atomic             Coordinates (Angstroms)
 Number     Number       Type             X           Y           Z
 ---------------------------------------------------------------------
      1          8           0        2.129878    1.281855    0.018066
      2          1           0        2.789966    1.176449    0.715981
      3          6           0        2.444500   -1.163595   -0.585724
      4          1           0        3.325798   -1.636088   -0.956904
      5          6           0        1.568856   -0.368050   -0.164197
      6          6           0        0.165953   -0.194426    0.321435
      7          8           0       -0.169485   -0.394196    1.453559
      8          8           0       -0.594801    0.298402   -0.645167
      9          6           0       -1.930186    0.691906   -0.264388
     10          6           0       -2.857640   -0.505349   -0.212831
     11          1           0       -2.225883    1.400061   -1.036123
     12          1           0       -1.878165    1.202319    0.697980
     13          1           0       -3.873684   -0.171408    0.006322
     14          1           0       -2.864429   -1.023366   -1.173068
     15          1           0       -2.547234   -1.199365    0.568377
 ---------------------------------------------------------------------

 SCF Done:  E(UM062X) =  -420.213955907     A.U. after   19 cycles

 The electronic state is 2-A.
 Alpha  occ. eigenvalues --  -19.68350 -19.64211 -19.63289 -10.70516 -10.62945
 Alpha  occ. eigenvalues --  -10.60552 -10.59592 -10.53810  -1.25870  -1.16554
 Alpha  occ. eigenvalues --   -1.11016  -0.91397  -0.87885  -0.78232  -0.71255
 Alpha  occ. eigenvalues --   -0.64854  -0.62172  -0.58824  -0.57218  -0.54538
 Alpha  occ. eigenvalues --   -0.53307  -0.49780  -0.48265  -0.46122  -0.45285
 Alpha  occ. eigenvalues --   -0.42176  -0.40182  -0.39770  -0.38492  -0.36388
 Alpha  occ. eigenvalues --   -0.31455
 Alpha virt. eigenvalues --   -0.00352   0.00182   0.01000   0.01452   0.02059
 Alpha virt. eigenvalues --    0.02638   0.02924   0.04005   0.05423   0.06538
 Alpha virt. eigenvalues --    0.07150   0.07812   0.08315   0.08974   0.10496

  Beta  occ. eigenvalues --  -19.68349 -19.63512 -19.63297 -10.70464 -10.63106
  Beta  occ. eigenvalues --  -10.60551 -10.59021 -10.53810  -1.25843  -1.16562
  Beta  occ. eigenvalues --   -1.08553  -0.90278  -0.86844  -0.77619  -0.70507
  Beta  occ. eigenvalues --   -0.64575  -0.61355  -0.58645  -0.56829  -0.53968
  Beta  occ. eigenvalues --   -0.52654  -0.49347  -0.46672  -0.45249  -0.43177
  Beta  occ. eigenvalues --   -0.41794  -0.39272  -0.38799  -0.38324  -0.35026
  Beta virt. eigenvalues --   -0.09034  -0.00269   0.00329   0.01665   0.02084
  Beta virt. eigenvalues --    0.02135   0.02733   0.03119   0.04102   0.05469
  Beta virt. eigenvalues --    0.06192   0.07295   0.07823   0.08085   0.08989

 Mulliken charges and spin densities:
               1          2
     1  O   -0.282791   0.350215
     2  H    0.251231  -0.001932
     3  C    0.083005   0.915755
     4  H    0.226819  -0.029066
     5  C   -0.055488  -0.314604
     6  C   -0.278166   0.077496
     7  O   -0.215319  -0.003466
     8  O    0.046495   0.002081
     9  C   -0.268345   0.003055
    10  C   -0.428020   0.000681
    11  H    0.200198   0.000275
    12  H    0.200331  -0.000674
    13  H    0.161824   0.000616
    14  H    0.165350  -0.000200
    15  H    0.192877  -0.000233
 Sum of Mulliken charges =  -0.00000   1.00000

 Dipole moment (field-independent basis, Debye):
    X=             -0.0076    Y=             -1.3365    Z=             -0.9117  Tot=              1.6178
 Quadrupole moment (field-independent basis, Debye-Ang):
   XX=            -32.7565   YY=            -47.6407   ZZ=            -51.5987
   XY=             -6.8499   XZ=              1.8085   YZ=              4.1407

  Exact polarizability:  84.071  -5.543  72.567  -2.942   4.219  60.204
 Approx polarizability:  82.413  -8.564  88.424  -5.127   4.196  78.289

 ******    1 imaginary frequencies (negative Signs) ******

                      1                      2                      3
                      A                      A                      A
 Frequencies --   -591.1081                78.2205                94.2415
 Red. masses --      9.0572                 2.5226                 4.2853
 Frc consts  --      1.8646                 0.0091                 0.0224
 IR Inten    --     37.3572                 8.5133                 6.0288

                      4                      5                      6
                      A                      A                      A
 Frequencies --    115.9567               160.8168               193.5659
 Red. masses --      2.9454                 1.5136                 2.0192
 Frc consts  --      0.0233                 0.0231                 0.0446
 IR Inten    --      4.5035                68.3005                 6.2870

                      7                      8                      9
                      A                      A                      A
 Frequencies --    226.7221               255.1601               263.6827
 Red. masses --      2.3742                 2.6624                 1.1838
 Frc consts  --      0.0719                 0.1021                 0.0485
 IR Inten    --      5.1716                 1.1520                28.9061

                     10                     11                     12
                      A                      A                      A
 Frequencies --    343.9266               358.8272               435.8951
 Red. masses --      3.0588                 5.8909                 3.5616
 Frc consts  --      0.2132                 0.4469                 0.3987
 IR Inten    --     12.2911                 7.8514                 2.9564

                     13                     14                     15
                      A                      A                      A
 Frequencies --    589.2843               627.7739               695.2486
 Red. masses --      3.8499                 5.5675                 1.3862
 Frc consts  --      0.7877                 1.2928                 0.3948
 IR Inten    --      7.7105                13.9150                39.8397

                     16                     17                     18
                      A                      A                      A
 Frequencies --    778.2503               801.5203               894.5575
 Red. masses --      9.0389                 1.2242                 3.2290
 Frc consts  --      3.2256                 0.4634                 1.5224
 IR Inten    --     20.0166                 4.8512                18.0587

                     19                     20                     21
                      A                      A                      A
 Frequencies --    917.4708              1032.9490              1076.9775
 Red. masses --      2.7862                 1.2072                 3.5014
 Frc consts  --      1.3818                 0.7589                 2.3928
 IR Inten    --      3.1237                51.0451                24.3923

                     22                     23                     24
                      A                      A                      A
 Frequencies --   1127.9660              1202.6343              1284.7837
 Red. masses --      2.0725                 1.7677                 3.8034
 Frc consts  --      1.5536                 1.5063                 3.6990
 IR Inten    --     18.8263                 8.3563               543.5456

                     25                     26                     27
                      A                      A                      A
 Frequencies --   1348.1792              1400.9527              1431.5360
 Red. masses --      1.2375                 1.2786                 1.3866
 Frc consts  --      1.3252                 1.4786                 1.6742
 IR Inten    --     92.6803                27.7247                 6.9557

                     28                     29                     30
                      A                      A                      A
 Frequencies --   1492.7045              1503.3174              1515.9384
 Red. masses --      1.0408                 1.0591                 1.0865
 Frc consts  --      1.3663                 1.4102                 1.4711
 IR Inten    --     10.2912                 1.1878                15.2115

                     31                     32                     33
                      A                      A                      A
 Frequencies --   1835.6055              1893.5106              3075.3795
 Red. masses --      9.8096                 8.1927                 1.0354
 Frc consts  --     19.4742                17.3067                 5.7698
 IR Inten    --    243.6874                96.7900                10.4853

                     34                     35                     36
                      A                      A                      A
 Frequencies --   3108.7002              3150.2010              3155.4402
 Red. masses --      1.0607                 1.1014                 1.1047
 Frc consts  --      6.0398                 6.4399                 6.4809
 IR Inten    --     15.1901                14.4334                 2.2804

                     37                     38                     39
                      A                      A                      A
 Frequencies --   3176.3007              3446.4517              3851.0827
 Red. masses --      1.1075                 1.1261                 1.0677
 Frc consts  --      6.5834                 7.8809                 9.3293
 IR Inten    --     14.5392                79.1513                66.7949

 - Thermochemistry -
 -------------------
 Temperature   298.150 Kelvin.  Pressure   1.00000 Atm.
 Atom     1 has atomic number  8 and mass  15.99491

 Molecular mass:   115.03952 amu.
 Principal axes and moments of inertia in atomic units:
                           1         2         3
     Eigenvalues --   427.129591542.230231598.78721
           X            0.99998  -0.00351   0.00493
           Y            0.00275   0.98926   0.14617
           Z           -0.00539  -0.14616   0.98925
 This molecule is an asymmetric top.
 Rotational symmetry number  1.
 Rotational temperatures (Kelvin)      0.20278     0.05616     0.05417
 Rotational constants (GHZ):           4.22528     1.17022     1.12882
    1 imaginary frequencies ignored.
 Zero-point vibrational energy     292736.6 (Joules/Mol)
                                   69.96572 (Kcal/Mol)
 Warning -- explicit consideration of  12 degrees of freedom as
           vibrations may cause significant error
 Vibrational temperatures:    112.54   135.59   166.84   231.38   278.50
          (Kelvin)            326.20   367.12   379.38   494.83   516.27
                              627.16   847.85   903.23  1000.31  1119.73
                             1153.21  1287.07  1320.04  1486.18  1549.53
                             1622.89  1730.32  1848.52  1939.73  2015.66
                             2059.66  2147.67  2162.94  2181.10  2641.03
                             2724.34  4424.79  4472.73  4532.44  4539.97
                             4569.99  4958.68  5540.85

 Zero-point correction=                           0.111497 (Hartree/Particle)
 Thermal correction to Energy=                    0.121060
 Thermal correction to Enthalpy=                  0.122004
 Thermal correction to Gibbs Free Energy=         0.076382
 Sum of electronic and zero-point Energies=           -420.102458
 Sum of electronic and thermal Energies=              -420.092896
 Sum of electronic and thermal Enthalpies=            -420.091951
 Sum of electronic and thermal Free Energies=         -420.137574

                     E (Thermal)             CV                S
                      KCal/Mol        Cal/Mol-Kelvin    Cal/Mol-Kelvin
 Total                   75.966             32.418             96.022
 Electronic               0.000              0.000              1.377
 Translational            0.889              2.981             40.136
 Rotational               0.889              2.981             28.445
 Vibrational             74.189             26.457             26.064
 Vibration     1          0.600              1.964              3.935
 Vibration     2          0.603              1.953              3.570
 Vibration     3          0.608              1.936              3.167
 Vibration     4          0.622              1.890              2.540
 Vibration     5          0.635              1.849              2.193
 Vibration     6          0.650              1.800              1.905
 Vibration     7          0.666              1.754              1.695
 Vibration     8          0.670              1.739              1.637
 Vibration     9          0.723              1.588              1.194
 Vibration    10          0.734              1.557              1.127
 Vibration    11          0.796              1.392              0.840
 Vibration    12          0.947              1.055              0.468

 1\1\GINC-AJ\Freq\UM062X\6-311++G(d,p)\C5H7O3(2)\AAYUSH\23-Jun-2025\0\\
 # freq 6-311++g(d,p) m062x\\Title Card Required\\0,2\O,2.129878,1.2818
 55,0.018066\H,2.789966,1.176449,0.715981\C,2.4445,-1.163595,-0.585724\
 H,3.325798,-1.636088,-0.956904\C,1.568856,-0.36805,-0.164197\C,0.16595
 3,-0.194426,0.321435\O,-0.169485,-0.394196,1.453559\O,-0.594801,0.2984
 02,-0.645167\C,-1.930186,0.691906,-0.264388\C,-2.85764,-0.505349,-0.21
 2831\H,-2.225883,1.400061,-1.036123\H,-1.878165,1.202319,0.69798\H,-3.
 873684,-0.171408,0.006322\H,-2.864429,-1.023366,-1.173068\H,-2.547234,

 Normal termination of Gaussian 16 at Mon Jun 23 07:34:04 2025.
