 Gaussian 16, Revision A.03,
 Gaussian 16:  ES64L-G16RevA.03 25-Dec-2016

 -------------------
 # freq 6-31+g m062x
 -------------------

 -------------------
 Title Card Required
 -------------------
 Symbolic Z-matrix:
 Charge =  0 Multiplicity = 2

                         Standard orientation:
 ---------------------------------------------------------------------
 Center     Atomic      Atomic             Coordinates (Angstroms)
 Number     Number       Type             X           Y           Z
 ---------------------------------------------------------------------
      1          8           0        2.151129    1.325388    0.001102
      2          1           0        2.804836    1.198464    0.704298
      3          6           0        2.450868   -1.171372   -0.567094
      4          1           0        3.322997   -1.665275   -0.929511
      5          6           0        1.535182   -0.453825   -0.166453
      6          6           0        0.163312   -0.190921    0.324859
      7          8           0       -0.171023   -0.366590    1.461246
      8          8           0       -0.594052    0.290239   -0.650003
      9          6           0       -1.928444    0.692583   -0.275821
     10          6           0       -2.858715   -0.501773   -0.204412
     11          1           0       -2.222696    1.388182   -1.059422
     12          1           0       -1.876013    1.219055    0.677767
     13          1           0       -3.873930   -0.161687    0.009066
     14          1           0       -2.866705   -1.035796   -1.155824
     15          1           0       -2.550144   -1.183379    0.588390
 ---------------------------------------------------------------------

 SCF Done:  E(UM062X) =  -419.953622883     A.U. after   22 cycles

 The electronic state is 2-A.
 Alpha  occ. eigenvalues --  -19.70695 -19.67306 -19.66466 -10.73157 -10.62883
 Alpha  occ. eigenvalues --  -10.61544 -10.60942 -10.54638  -1.28280  -1.18906
 Alpha  occ. eigenvalues --   -1.12216  -0.92281  -0.88570  -0.78816  -0.71768
 Alpha  occ. eigenvalues --   -0.64995  -0.62866  -0.58815  -0.57323  -0.54450
 Alpha  occ. eigenvalues --   -0.53412  -0.49986  -0.48200  -0.46542  -0.45333
 Alpha  occ. eigenvalues --   -0.42173  -0.40344  -0.39828  -0.38241  -0.36988
 Alpha  occ. eigenvalues --   -0.32613
 Alpha virt. eigenvalues --   -0.00586   0.01789   0.02540   0.02965   0.03833
 Alpha virt. eigenvalues --    0.04266   0.05270   0.05919   0.07715   0.07995
 Alpha virt. eigenvalues --    0.08421   0.08974   0.09494   0.11338   0.12034

  Beta  occ. eigenvalues --  -19.70697 -19.66487 -19.66139 -10.73108 -10.63023
  Beta  occ. eigenvalues --  -10.61544 -10.60523 -10.54638  -1.28275  -1.18934
  Beta  occ. eigenvalues --   -1.08142  -0.91419  -0.87983  -0.78479  -0.71354
  Beta  occ. eigenvalues --   -0.64790  -0.62130  -0.58616  -0.57128  -0.54185
  Beta  occ. eigenvalues --   -0.51726  -0.49248  -0.46949  -0.45311  -0.42306
  Beta  occ. eigenvalues --   -0.40693  -0.39545  -0.38410  -0.37889  -0.35584
  Beta virt. eigenvalues --   -0.10037   0.00702   0.01778   0.02652   0.02922
  Beta virt. eigenvalues --    0.03870   0.04269   0.05284   0.05851   0.07706
  Beta virt. eigenvalues --    0.08114   0.08312   0.08954   0.09577   0.11267

 Mulliken charges and spin densities:
               1          2
     1  O   -0.472191   0.600511
     2  H    0.406295  -0.019410
     3  C    0.313533   0.683136
     4  H    0.305964  -0.025028
     5  C   -0.584451  -0.294525
     6  C    0.237447   0.064356
     7  O   -0.350508  -0.009742
     8  O   -0.191997  -0.000482
     9  C   -0.202978   0.001164
    10  C   -0.582302   0.000174
    11  H    0.224366  -0.000139
    12  H    0.235773  -0.000117
    13  H    0.207673   0.000164
    14  H    0.219212  -0.000039
    15  H    0.234164  -0.000023
 Sum of Mulliken charges =  -0.00000   1.00000

 Dipole moment (field-independent basis, Debye):
    X=              0.1269    Y=             -1.4365    Z=             -0.6482  Tot=              1.5811
 Quadrupole moment (field-independent basis, Debye-Ang):
   XX=            -31.7704   YY=            -47.6825   ZZ=            -52.8980
   XY=             -7.1077   XZ=              2.3573   YZ=              4.6313

  Exact polarizability:  80.535  -5.719  74.936  -2.868   4.905  58.219
 Approx polarizability:  77.582 -11.917  83.729  -6.621   4.519  73.576

 ******    3 imaginary frequencies (negative Signs) ******

                      1                      2                      3
                      A                      A                      A
 Frequencies --   -708.4988              -470.1347               -92.5720
 Red. masses --     12.8096                 1.0739                 7.2290
 Frc consts  --      3.7885                 0.1398                 0.0365
 IR Inten    --     18.7232               112.9452                 6.6943

                      4                      5                      6
                      A                      A                      A
 Frequencies --     26.9132                46.2795               124.4487
 Red. masses --      3.3757                 2.8208                 3.2404
 Frc consts  --      0.0014                 0.0036                 0.0296
 IR Inten    --      5.8526                 2.1080                 5.4096

                      7                      8                      9
                      A                      A                      A
 Frequencies --    174.2141               194.8236               261.9661
 Red. masses --      3.5076                 1.6048                 3.9624
 Frc consts  --      0.0627                 0.0359                 0.1602
 IR Inten    --      2.9844                 1.0532                 1.9650

                     10                     11                     12
                      A                      A                      A
 Frequencies --    313.5539               409.0928               541.6332
 Red. masses --      2.9281                 3.5927                 1.3347
 Frc consts  --      0.1696                 0.3543                 0.2307
 IR Inten    --     17.5835                 1.1797                35.0163

                     13                     14                     15
                      A                      A                      A
 Frequencies --    564.1986               612.8888               714.5973
 Red. masses --      3.0714                 6.1977                 8.8128
 Frc consts  --      0.5760                 1.3717                 2.6515
 IR Inten    --     24.6897                12.8828                50.0307

                     16                     17                     18
                      A                      A                      A
 Frequencies --    724.0847               777.3916               814.6755
 Red. masses --      1.2266                 1.3740                 1.2760
 Frc consts  --      0.3789                 0.4893                 0.4989
 IR Inten    --     58.4476                65.1090                 7.3644

                     19                     20                     21
                      A                      A                      A
 Frequencies --    894.8363               939.2675              1111.0149
 Red. masses --      3.3950                 2.5428                 4.1369
 Frc consts  --      1.6017                 1.3217                 3.0086
 IR Inten    --     23.9772                 5.9372                 6.1252

                     22                     23                     24
                      A                      A                      A
 Frequencies --   1157.0683              1227.1265              1324.4498
 Red. masses --      2.0662                 1.7440                 2.0461
 Frc consts  --      1.6298                 1.5473                 2.1147
 IR Inten    --     18.0092                 6.0096               340.7162

                     25                     26                     27
                      A                      A                      A
 Frequencies --   1372.0653              1443.3264              1455.9210
 Red. masses --      1.7074                 1.3591                 1.2736
 Frc consts  --      1.8938                 1.6681                 1.5906
 IR Inten    --    269.1664                35.3091                13.9501

                     28                     29                     30
                      A                      A                      A
 Frequencies --   1528.0170              1537.8793              1545.9599
 Red. masses --      1.0419                 1.0656                 1.0768
 Frc consts  --      1.4333                 1.4849                 1.5164
 IR Inten    --     14.3888                 2.1311                20.1399

                     31                     32                     33
                      A                      A                      A
 Frequencies --   1912.1344              2071.9844              3107.4745
 Red. masses --     11.9338                 6.6533                 1.0351
 Frc consts  --     25.7079                16.8290                 5.8893
 IR Inten    --    307.7634                66.9854                13.5444

                     34                     35                     36
                      A                      A                      A
 Frequencies --   3139.5823              3186.9421              3191.8552
 Red. masses --      1.0603                 1.0998                 1.1027
 Frc consts  --      6.1577                 6.5816                 6.6192
 IR Inten    --     15.6984                15.5024                 4.0712

                     37                     38                     39
                      A                      A                      A
 Frequencies --   3213.0560              3507.9956              3845.2744
 Red. masses --      1.1054                 1.1420                 1.0673
 Frc consts  --      6.7238                 8.2803                 9.2985
 IR Inten    --     17.1390                66.1497                27.5361

 - Thermochemistry -
 -------------------
 Temperature   298.150 Kelvin.  Pressure   1.00000 Atm.
 Atom     1 has atomic number  8 and mass  15.99491

 Molecular mass:   115.03952 amu.
 Principal axes and moments of inertia in atomic units:
                           1         2         3
     Eigenvalues --   436.977341545.392731609.94847
           X            0.99998  -0.00358   0.00512
           Y            0.00292   0.99229   0.12393
           Z           -0.00553  -0.12391   0.99228
 This molecule is an asymmetric top.
 Rotational symmetry number  1.
 Warning -- assumption of classical behavior for rotation
           may cause significant error
 Rotational temperatures (Kelvin)      0.19821     0.05605     0.05380
 Rotational constants (GHZ):           4.13006     1.16782     1.12099
    3 imaginary frequencies ignored.
 Zero-point vibrational energy     293168.8 (Joules/Mol)
                                   70.06902 (Kcal/Mol)
 Warning -- explicit consideration of  11 degrees of freedom as
           vibrations may cause significant error
 Vibrational temperatures:     38.72    66.59   179.05   250.66   280.31
          (Kelvin)            376.91   451.13   588.59   779.29   811.76
                              881.81  1028.15  1041.80  1118.49  1172.14
                             1287.47  1351.40  1598.50  1664.76  1765.56
                             1905.59  1974.10  2076.62  2094.75  2198.48
                             2212.67  2224.29  2751.13  2981.12  4470.96
                             4517.16  4585.30  4592.37  4622.87  5047.22
                             5532.49

 Zero-point correction=                           0.111662 (Hartree/Particle)
 Thermal correction to Energy=                    0.120359
 Thermal correction to Enthalpy=                  0.121303
 Thermal correction to Gibbs Free Energy=         0.075910
 Sum of electronic and zero-point Energies=           -419.841961
 Sum of electronic and thermal Energies=              -419.833264
 Sum of electronic and thermal Enthalpies=            -419.832320
 Sum of electronic and thermal Free Energies=         -419.877713

                     E (Thermal)             CV                S
                      KCal/Mol        Cal/Mol-Kelvin    Cal/Mol-Kelvin
 Total                   75.526             28.891             95.539
 Electronic               0.000              0.000              1.377
 Translational            0.889              2.981             40.136
 Rotational               0.889              2.981             28.477
 Vibrational             73.749             22.930             25.549
 Vibration     1          0.593              1.984              6.045
 Vibration     2          0.595              1.979              4.970
 Vibration     3          0.610              1.929              3.030
 Vibration     4          0.627              1.874              2.390
 Vibration     5          0.635              1.847              2.181
 Vibration     6          0.669              1.742              1.649
 Vibration     7          0.701              1.648              1.344
 Vibration     8          0.773              1.450              0.930
 Vibration     9          0.897              1.158              0.562
 Vibration    10          0.920              1.109              0.516
 Vibration    11          0.972              1.005              0.428

 Normal termination of Gaussian 16 at Fri Jun 20 14:44:58 2025.
