 Gaussian 16, Revision A.03,
 Gaussian 16:  ES64L-G16RevA.03 25-Dec-2016

 -------------------
 # freq 6-31+g m062x
 -------------------

 -------------------
 Title Card Required
 -------------------
 Symbolic Z-matrix:
 Charge =  0 Multiplicity = 2

                         Standard orientation:
 ---------------------------------------------------------------------
 Center     Atomic      Atomic             Coordinates (Angstroms)
 Number     Number       Type             X           Y           Z
 ---------------------------------------------------------------------
      1          8           0        2.179857    1.379640   -0.016816
      2          1           0        2.823672    1.222752    0.692173
      3          6           0        2.454872   -1.185476   -0.548152
      4          1           0        3.333139   -1.675501   -0.899303
      5          6           0        1.492515   -0.560016   -0.167252
      6          6           0        0.160552   -0.192560    0.327362
      7          8           0       -0.173705   -0.335922    1.469300
      8          8           0       -0.593336    0.282732   -0.654792
      9          6           0       -1.925698    0.695653   -0.287721
     10          6           0       -2.860445   -0.494359   -0.195908
     11          1           0       -2.218188    1.378356   -1.083306
     12          1           0       -1.872920    1.238368    0.656696
     13          1           0       -3.874459   -0.146936    0.011469
     14          1           0       -2.870034   -1.044806   -1.137881
     15          1           0       -2.554504   -1.163289    0.608642
 ---------------------------------------------------------------------

 SCF Done:  E(UM062X) =  -419.954028506     A.U. after   24 cycles

 The electronic state is 2-A.
 Alpha  occ. eigenvalues --  -19.70478 -19.68823 -19.66182 -10.72998 -10.61413
 Alpha  occ. eigenvalues --  -10.60574 -10.59811 -10.54534  -1.28008  -1.18639
 Alpha  occ. eigenvalues --   -1.13475  -0.91712  -0.88210  -0.78637  -0.71367
 Alpha  occ. eigenvalues --   -0.64674  -0.62365  -0.58589  -0.57022  -0.54357
 Alpha  occ. eigenvalues --   -0.53690  -0.50542  -0.48336  -0.46611  -0.45235
 Alpha  occ. eigenvalues --   -0.42099  -0.41173  -0.39710  -0.38090  -0.36892
 Alpha  occ. eigenvalues --   -0.34656
 Alpha virt. eigenvalues --   -0.00880   0.01953   0.02560   0.03569   0.03799
 Alpha virt. eigenvalues --    0.04491   0.05325   0.05813   0.07833   0.08027
 Alpha virt. eigenvalues --    0.08375   0.08985   0.09616   0.11566   0.12258

  Beta  occ. eigenvalues --  -19.70482 -19.67302 -19.66202 -10.72971 -10.61413
  Beta  occ. eigenvalues --  -10.60621 -10.59597 -10.54534  -1.28015  -1.18671
  Beta  occ. eigenvalues --   -1.07376  -0.91249  -0.87868  -0.78475  -0.71178
  Beta  occ. eigenvalues --   -0.64596  -0.61895  -0.58424  -0.56858  -0.53989
  Beta  occ. eigenvalues --   -0.51436  -0.49276  -0.46864  -0.45230  -0.42037
  Beta  occ. eigenvalues --   -0.39522  -0.39401  -0.38168  -0.37927  -0.36172
  Beta virt. eigenvalues --   -0.09495   0.00098   0.02004   0.02634   0.03549
  Beta virt. eigenvalues --    0.03894   0.04569   0.05343   0.05904   0.07875
  Beta virt. eigenvalues --    0.08140   0.08377   0.09067   0.09662   0.11540

 Mulliken charges and spin densities:
               1          2
     1  O   -0.426448   0.826517
     2  H    0.404365  -0.029811
     3  C    0.037171   0.300286
     4  H    0.321164  -0.012244
     5  C   -0.506483  -0.133722
     6  C    0.364526   0.058899
     7  O   -0.342656  -0.009147
     8  O   -0.184404  -0.000468
     9  C   -0.211586  -0.000099
    10  C   -0.574227  -0.000070
    11  H    0.222767  -0.000082
    12  H    0.234850  -0.000094
    13  H    0.207251   0.000059
    14  H    0.219331  -0.000018
    15  H    0.234379  -0.000006
 Sum of Mulliken charges =  -0.00000   1.00000

 Dipole moment (field-independent basis, Debye):
    X=              0.3104    Y=             -0.9609    Z=             -0.5368  Tot=              1.1436
 Quadrupole moment (field-independent basis, Debye-Ang):
   XX=            -31.3097   YY=            -47.0573   ZZ=            -53.0936
   XY=             -5.9757   XZ=              2.7454   YZ=              4.5212

  Exact polarizability:  81.524  -6.708  72.576  -3.290   4.485  58.200
 Approx polarizability:  80.477 -14.270  75.722  -7.823   3.681  73.547

 ******    4 imaginary frequencies (negative Signs) ******

                      1                      2                      3
                      A                      A                      A
 Frequencies --   -470.2539              -364.6694              -107.9466
 Red. masses --      1.0942                 9.0346                 6.9634
 Frc consts  --      0.1426                 0.7079                 0.0478
 IR Inten    --    113.0717                26.4377                13.2715

                      4                      5                      6
                      A                      A                      A
 Frequencies --    -57.5335                24.6755                89.8467
 Red. masses --      4.6589                 2.6847                 3.1403
 Frc consts  --      0.0091                 0.0010                 0.0149
 IR Inten    --      6.0109                 0.3806                 5.6668

                      7                      8                      9
                      A                      A                      A
 Frequencies --    127.0703               185.5560               208.1858
 Red. masses --      5.5579                 1.2736                 4.8065
 Frc consts  --      0.0529                 0.0258                 0.1227
 IR Inten    --      0.3688                 2.1646                 0.1039

                     10                     11                     12
                      A                      A                      A
 Frequencies --    310.8580               403.3289               481.9220
 Red. masses --      2.9001                 3.2948                 1.2339
 Frc consts  --      0.1651                 0.3158                 0.1688
 IR Inten    --     17.6781                 2.5572               110.0744

                     13                     14                     15
                      A                      A                      A
 Frequencies --    584.7395               618.5635               695.0903
 Red. masses --      3.4938                 5.0201                 1.5919
 Frc consts  --      0.7038                 1.1317                 0.4532
 IR Inten    --     12.4347                11.5655                12.6015

                     16                     17                     18
                      A                      A                      A
 Frequencies --    731.1694               762.6903               815.0286
 Red. masses --      4.1772                 1.3663                 1.2594
 Frc consts  --      1.3157                 0.4683                 0.4929
 IR Inten    --     87.7716                48.9606                 6.6769

                     19                     20                     21
                      A                      A                      A
 Frequencies --    897.7285               943.8149              1113.0242
 Red. masses --      3.4073                 2.5733                 4.1289
 Frc consts  --      1.6179                 1.3505                 3.0136
 IR Inten    --     21.9766                 6.9248                 5.5666

                     22                     23                     24
                      A                      A                      A
 Frequencies --   1157.9146              1227.4765              1328.1237
 Red. masses --      2.0941                 1.7547                 1.8922
 Frc consts  --      1.6543                 1.5577                 1.9665
 IR Inten    --     18.1527                 4.7911               317.6086

                     25                     26                     27
                      A                      A                      A
 Frequencies --   1373.8102              1443.6883              1455.4172
 Red. masses --      1.8000                 1.3733                 1.2775
 Frc consts  --      2.0016                 1.6865                 1.5944
 IR Inten    --    304.0801                43.8924                13.6828

                     28                     29                     30
                      A                      A                      A
 Frequencies --   1527.8670              1537.4312              1545.4143
 Red. masses --      1.0420                 1.0691                 1.0743
 Frc consts  --      1.4331                 1.4888                 1.5118
 IR Inten    --     14.3335                 3.0909                20.5938

                     31                     32                     33
                      A                      A                      A
 Frequencies --   1911.4286              2240.9944              3107.2834
 Red. masses --     12.2187                 5.9119                 1.0351
 Frc consts  --     26.3021                17.4929                 5.8885
 IR Inten    --    311.2007                80.6571                13.8047

                     34                     35                     36
                      A                      A                      A
 Frequencies --   3138.7336              3186.6798              3191.2118
 Red. masses --      1.0602                 1.1001                 1.1026
 Frc consts  --      6.1540                 6.5818                 6.6160
 IR Inten    --     16.6326                14.9710                 5.0168

                     37                     38                     39
                      A                      A                      A
 Frequencies --   3212.2689              3524.2404              3822.0266
 Red. masses --      1.1053                 1.1642                 1.0673
 Frc consts  --      6.7198                 8.5196                 9.1857
 IR Inten    --     17.5628                61.6542                16.8585

 - Thermochemistry -
 -------------------
 Temperature   298.150 Kelvin.  Pressure   1.00000 Atm.
 Atom     1 has atomic number  8 and mass  15.99491

 Molecular mass:   115.03952 amu.
 Principal axes and moments of inertia in atomic units:
                           1         2         3
     Eigenvalues --   450.903661549.459891625.88523
           X            0.99998  -0.00363   0.00532
           Y            0.00308   0.99499   0.09995
           Z           -0.00566  -0.09993   0.99498
 This molecule is an asymmetric top.
 Rotational symmetry number  1.
 Warning -- assumption of classical behavior for rotation
           may cause significant error
 Rotational temperatures (Kelvin)      0.19209     0.05590     0.05327
 Rotational constants (GHZ):           4.00250     1.16476     1.11001
    4 imaginary frequencies ignored.
 Zero-point vibrational energy     292638.3 (Joules/Mol)
                                   69.94223 (Kcal/Mol)
 Warning -- explicit consideration of  10 degrees of freedom as
           vibrations may cause significant error
 Vibrational temperatures:     35.50   129.27   182.83   266.97   299.53
          (Kelvin)            447.26   580.30   693.38   841.31   889.97
                             1000.08  1051.99  1097.34  1172.64  1291.63
                             1357.94  1601.39  1665.98  1766.06  1910.87
                             1976.61  2077.15  2094.02  2198.26  2212.02
                             2223.51  2750.12  3224.29  4470.69  4515.94
                             4584.92  4591.44  4621.74  5070.60  5499.04

 Zero-point correction=                           0.111460 (Hartree/Particle)
 Thermal correction to Energy=                    0.119603
 Thermal correction to Enthalpy=                  0.120547
 Thermal correction to Gibbs Free Energy=         0.076516
 Sum of electronic and zero-point Energies=           -419.842568
 Sum of electronic and thermal Energies=              -419.834425
 Sum of electronic and thermal Enthalpies=            -419.833481
 Sum of electronic and thermal Free Energies=         -419.877512

                     E (Thermal)             CV                S
                      KCal/Mol        Cal/Mol-Kelvin    Cal/Mol-Kelvin
 Total                   75.052             27.215             92.672
 Electronic               0.000              0.000              1.377
 Translational            0.889              2.981             40.136
 Rotational               0.889              2.981             28.520
 Vibrational             73.275             21.253             22.638
 Vibration     1          0.593              1.985              6.217
 Vibration     2          0.602              1.956              3.663
 Vibration     3          0.611              1.926              2.990
 Vibration     4          0.632              1.860              2.272
 Vibration     5          0.641              1.828              2.060
 Vibration     6          0.700              1.653              1.358
 Vibration     7          0.769              1.463              0.950
 Vibration     8          0.838              1.290              0.705
 Vibration     9          0.942              1.064              0.477
 Vibration    10          0.978              0.993              0.419

 Normal termination of Gaussian 16 at Fri Jun 20 14:43:22 2025.
