 Gaussian 16, Revision A.03,
 Gaussian 16:  ES64L-G16RevA.03 25-Dec-2016

 --------------------------
 # freq 6-311++g(d,p) m062x
 --------------------------

 -------------------
 Title Card Required
 -------------------
 Symbolic Z-matrix:
 Charge =  0 Multiplicity = 2

                         Standard orientation:
 ---------------------------------------------------------------------
 Center     Atomic      Atomic             Coordinates (Angstroms)
 Number     Number       Type             X           Y           Z
 ---------------------------------------------------------------------
      1          8           0        2.224021    1.461792   -0.043014
      2          1           0        2.831867    1.245384    0.683561
      3          6           0        2.457336   -1.220146   -0.522985
      4          1           0        3.363480   -1.668601   -0.857845
      5          6           0        1.436685   -0.698433   -0.163244
      6          6           0        0.148774   -0.213034    0.329460
      7          8           0       -0.178612   -0.288246    1.481053
      8          8           0       -0.592226    0.268796   -0.661254
      9          6           0       -1.920241    0.703353   -0.304772
     10          6           0       -2.862339   -0.479506   -0.185539
     11          1           0       -2.207615    1.367948   -1.117296
     12          1           0       -1.865116    1.268564    0.626057
     13          1           0       -3.874756   -0.122290    0.012595
     14          1           0       -2.873409   -1.052258   -1.114076
     15          1           0       -2.561207   -1.130878    0.635206
 ---------------------------------------------------------------------

 SCF Done:  E(UM062X) =  -420.207099288     A.U. after   22 cycles

 The electronic state is 2-A.
 Alpha  occ. eigenvalues --  -19.68058 -19.67520 -19.62947 -10.70558 -10.60380
 Alpha  occ. eigenvalues --  -10.57705 -10.57419 -10.53702  -1.25536  -1.16225
 Alpha  occ. eigenvalues --   -1.13238  -0.90564  -0.87202  -0.78051  -0.70543
 Alpha  occ. eigenvalues --   -0.64354  -0.61565  -0.58452  -0.56572  -0.55099
 Alpha  occ. eigenvalues --   -0.53451  -0.50600  -0.48490  -0.46434  -0.45241
 Alpha  occ. eigenvalues --   -0.42545  -0.41726  -0.39542  -0.38263  -0.36434
 Alpha  occ. eigenvalues --   -0.36001
 Alpha virt. eigenvalues --   -0.01124  -0.00341   0.00516   0.01564   0.02348
 Alpha virt. eigenvalues --    0.02802   0.03590   0.04258   0.05536   0.06783
 Alpha virt. eigenvalues --    0.07388   0.07828   0.08416   0.09387   0.10287

  Beta  occ. eigenvalues --  -19.68062 -19.65944 -19.62959 -10.70548 -10.60380
  Beta  occ. eigenvalues --  -10.57673 -10.57351 -10.53703  -1.25543  -1.16251
  Beta  occ. eigenvalues --   -1.05661  -0.90330  -0.86975  -0.77956  -0.70446
  Beta  occ. eigenvalues --   -0.64325  -0.61344  -0.58375  -0.56375  -0.53422
  Beta  occ. eigenvalues --   -0.52133  -0.49202  -0.46621  -0.45242  -0.41924
  Beta  occ. eigenvalues --   -0.39503  -0.39032  -0.38282  -0.37994  -0.36137
  Beta virt. eigenvalues --   -0.08743  -0.00644  -0.00199   0.00567   0.01871
  Beta virt. eigenvalues --    0.02454   0.02837   0.03610   0.04365   0.05566
  Beta virt. eigenvalues --    0.06777   0.07458   0.07880   0.08536   0.09559

 Mulliken charges and spin densities:
               1          2
     1  O   -0.215283   0.929160
     2  H    0.235242  -0.020792
     3  C   -0.465365   0.142611
     4  H    0.200548  -0.007380
     5  C    0.983623  -0.030452
     6  C   -0.828037  -0.006141
     7  O   -0.195800  -0.005351
     8  O    0.055738   0.000491
     9  C   -0.265539  -0.001131
    10  C   -0.416610  -0.000680
    11  H    0.196123  -0.000141
    12  H    0.198096  -0.000335
    13  H    0.163332   0.000104
    14  H    0.166395   0.000106
    15  H    0.187537  -0.000069
 Sum of Mulliken charges =  -0.00000   1.00000

 Dipole moment (field-independent basis, Debye):
    X=              0.2833    Y=             -0.5732    Z=             -0.6652  Tot=              0.9227
 Quadrupole moment (field-independent basis, Debye-Ang):
   XX=            -31.6685   YY=            -46.5778   ZZ=            -52.0695
   XY=             -5.0685   XZ=              2.6574   YZ=              3.8268

  Exact polarizability:  87.137  -8.360  66.486  -4.158   2.786  60.117
 Approx polarizability:  90.552 -13.408  74.066  -8.145   2.643  78.319

 ******    1 imaginary frequencies (negative Signs) ******

                      1                      2                      3
                      A                      A                      A
 Frequencies --    -26.9503                47.4760               102.2069
 Red. masses --      5.1678                 4.5500                 5.6361
 Frc consts  --      0.0022                 0.0060                 0.0347
 IR Inten    --      7.6792                 2.1585                 5.1091

                      4                      5                      6
                      A                      A                      A
 Frequencies --    114.5838               157.9684               191.7640
 Red. masses --      3.4517                 2.5071                 1.7658
 Frc consts  --      0.0267                 0.0369                 0.0383
 IR Inten    --      3.6054                18.1705                35.0300

                      7                      8                      9
                      A                      A                      A
 Frequencies --    217.3080               229.6698               288.5920
 Red. masses --      2.4455                 1.3403                 3.8995
 Frc consts  --      0.0680                 0.0417                 0.1913
 IR Inten    --     27.2209                 0.7013                 9.2633

                     10                     11                     12
                      A                      A                      A
 Frequencies --    339.2707               422.1132               515.4805
 Red. masses --      2.9316                 3.8809                 1.1123
 Frc consts  --      0.1988                 0.4074                 0.1741
 IR Inten    --     10.6486                 0.3466               115.0485

                     13                     14                     15
                      A                      A                      A
 Frequencies --    566.4607               607.6598               724.3400
 Red. masses --      3.5946                 7.0164                 1.3277
 Frc consts  --      0.6796                 1.5265                 0.4104
 IR Inten    --      8.7564                 7.2573                37.6031

                     16                     17                     18
                      A                      A                      A
 Frequencies --    758.5418               781.3850               799.7854
 Red. masses --      1.3288                 7.5574                 1.2092
 Frc consts  --      0.4505                 2.7187                 0.4557
 IR Inten    --     23.3312                49.4168                 5.1356

                     19                     20                     21
                      A                      A                      A
 Frequencies --    895.7544               927.8583              1075.8918
 Red. masses --      3.1393                 2.8289                 4.1655
 Frc consts  --      1.4841                 1.4350                 2.8409
 IR Inten    --     14.8249                 6.1712                21.1838

                     22                     23                     24
                      A                      A                      A
 Frequencies --   1127.1701              1203.0261              1293.0435
 Red. masses --      2.0995                 1.7752                 3.5172
 Frc consts  --      1.5716                 1.5138                 3.4647
 IR Inten    --     21.9432                 4.8499               557.7259

                     25                     26                     27
                      A                      A                      A
 Frequencies --   1346.7932              1400.2839              1429.2340
 Red. masses --      1.2627                 1.2883                 1.3899
 Frc consts  --      1.3495                 1.4883                 1.6728
 IR Inten    --    112.6895                33.7011                 9.7548

                     28                     29                     30
                      A                      A                      A
 Frequencies --   1492.3137              1502.8927              1514.4891
 Red. masses --      1.0409                 1.0607                 1.0855
 Frc consts  --      1.3657                 1.4116                 1.4669
 IR Inten    --     10.4880                 1.9607                17.5553

                     31                     32                     33
                      A                      A                      A
 Frequencies --   1840.0169              2244.3242              3075.1256
 Red. masses --     12.0010                 5.8351                 1.0353
 Frc consts  --     23.9392                17.3168                 5.7683
 IR Inten    --    329.2425                58.8250                10.6933

                     34                     35                     36
                      A                      A                      A
 Frequencies --   3109.1782              3150.4404              3154.8313
 Red. masses --      1.0608                 1.1014                 1.1047
 Frc consts  --      6.0422                 6.4405                 6.4781
 IR Inten    --     16.3261                15.2129                 2.0718

                     37                     38                     39
                      A                      A                      A
 Frequencies --   3175.9628              3487.5680              3794.8257
 Red. masses --      1.1075                 1.1672                 1.0672
 Frc consts  --      6.5820                 8.3644                 9.0549
 IR Inten    --     14.7237                66.0285                34.5891

 - Thermochemistry -
 -------------------
 Temperature   298.150 Kelvin.  Pressure   1.00000 Atm.
 Atom     1 has atomic number  8 and mass  15.99491

 Molecular mass:   115.03952 amu.
 Principal axes and moments of inertia in atomic units:
                           1         2         3
     Eigenvalues --   474.798561556.025641653.02390
           X            0.99998  -0.00392   0.00560
           Y            0.00350   0.99733   0.07296
           Z           -0.00587  -0.07294   0.99732
 This molecule is an asymmetric top.
 Rotational symmetry number  1.
 Warning -- assumption of classical behavior for rotation
           may cause significant error
 Rotational temperatures (Kelvin)      0.18242     0.05566     0.05240
 Rotational constants (GHZ):           3.80107     1.15984     1.09178
    1 imaginary frequencies ignored.
 Zero-point vibrational energy     293716.9 (Joules/Mol)
                                   70.20002 (Kcal/Mol)
 Warning -- explicit consideration of  13 degrees of freedom as
           vibrations may cause significant error
 Vibrational temperatures:     68.31   147.05   164.86   227.28   275.91
          (Kelvin)            312.66   330.44   415.22   488.13   607.33
                              741.66   815.01   874.29  1042.16  1091.37
                             1124.24  1150.71  1288.79  1334.98  1547.97
                             1621.75  1730.89  1860.40  1937.74  2014.70
                             2056.35  2147.11  2162.33  2179.01  2647.37
                             3229.08  4424.42  4473.41  4532.78  4539.10
                             4569.50  5017.83  5459.91

 Zero-point correction=                           0.111871 (Hartree/Particle)
 Thermal correction to Energy=                    0.121456
 Thermal correction to Enthalpy=                  0.122400
 Thermal correction to Gibbs Free Energy=         0.076344
 Sum of electronic and zero-point Energies=           -420.095228
 Sum of electronic and thermal Energies=              -420.085643
 Sum of electronic and thermal Enthalpies=            -420.084699
 Sum of electronic and thermal Free Energies=         -420.130755

                     E (Thermal)             CV                S
                      KCal/Mol        Cal/Mol-Kelvin    Cal/Mol-Kelvin
 Total                   76.215             32.527             96.933
 Electronic               0.000              0.000              1.377
 Translational            0.889              2.981             40.136
 Rotational               0.889              2.981             28.592
 Vibrational             74.437             26.565             26.828
 Vibration     1          0.595              1.979              4.920
 Vibration     2          0.604              1.947              3.412
 Vibration     3          0.608              1.937              3.190
 Vibration     4          0.621              1.894              2.574
 Vibration     5          0.634              1.851              2.211
 Vibration     6          0.646              1.815              1.981
 Vibration     7          0.652              1.796              1.882
 Vibration     8          0.685              1.695              1.482
 Vibration     9          0.719              1.597              1.216
 Vibration    10          0.784              1.422              0.885
 Vibration    11          0.871              1.216              0.621
 Vibration    12          0.922              1.104              0.511
 Vibration    13          0.966              1.016              0.437

 1\1\GINC-AJ\Freq\UM062X\6-311++G(d,p)\C5H7O3(2)\AAYUSH\16-Aug-2025\0\\
 # freq 6-311++g(d,p) m062x\\Title Card Required\\0,2\O,2.150652,1.4787
 87,-0.008026\H,2.760658,1.244529,0.711166\C,2.404466,-1.184954,-0.5716
 46\H,3.313837,-1.615662,-0.920751\C,1.380039,-0.682694,-0.195333\C,0.0
 88733,-0.222963,0.312861\O,-0.237271,-0.336654,1.461687\O,-0.656665,0.
 283792,-0.661991\C,-1.987771,0.69665,-0.291522\C,-2.92057,-0.496655,-0
 .208883\H,-2.280855,1.384042,-1.082762\H,-1.936402,1.232924,0.656485\H
 ,-3.935596,-0.153695,0.00076\H,-2.927826,-1.040194,-1.154854\H,-2.6138

 Normal termination of Gaussian 16 at Sat Aug 16 18:35:45 2025.
