 Gaussian 16, Revision A.03,
 Gaussian 16:  ES64L-G16RevA.03 25-Dec-2016

 --------------------------
 # ccsd(t)/6-311++g(d,p) sp
 --------------------------

 -------------------
 Title Card Required
 -------------------
 Symbolic Z-matrix:
 Charge =  0 Multiplicity = 2

                         Standard orientation:
 ---------------------------------------------------------------------
 Center     Atomic      Atomic             Coordinates (Angstroms)
 Number     Number       Type             X           Y           Z
 ---------------------------------------------------------------------
      1          8           0        2.179857    1.379640   -0.016816
      2          1           0        2.823672    1.222752    0.692173
      3          6           0        2.454872   -1.185476   -0.548152
      4          1           0        3.333139   -1.675501   -0.899303
      5          6           0        1.492515   -0.560016   -0.167252
      6          6           0        0.160552   -0.192560    0.327362
      7          8           0       -0.173705   -0.335922    1.469300
      8          8           0       -0.593336    0.282732   -0.654792
      9          6           0       -1.925698    0.695653   -0.287721
     10          6           0       -2.860445   -0.494359   -0.195908
     11          1           0       -2.218188    1.378356   -1.083306
     12          1           0       -1.872920    1.238368    0.656696
     13          1           0       -3.874459   -0.146936    0.011469
     14          1           0       -2.870034   -1.044806   -1.137881
     15          1           0       -2.554504   -1.163289    0.608642
 ---------------------------------------------------------------------

 SCF Done:  E(UHF) =  -417.981819690     A.U. after   39 cycles
 E2 =    -0.1257126483D+01 EUMP2 =    -0.41923894617242D+03
 CCSD(T)= -0.41935331963D+03

 The electronic state is 2-A.
 Alpha  occ. eigenvalues --  -20.62431 -20.61033 -20.55533 -11.41381 -11.29501
 Alpha  occ. eigenvalues --  -11.26887 -11.26066 -11.22434  -1.48043  -1.38224
 Alpha  occ. eigenvalues --   -1.37662  -1.07870  -1.04277  -0.92551  -0.83780
 Alpha  occ. eigenvalues --   -0.76355  -0.73052  -0.69642  -0.67897  -0.66176
 Alpha  occ. eigenvalues --   -0.64934  -0.62886  -0.58149  -0.55304  -0.53912
 Alpha  occ. eigenvalues --   -0.53655  -0.50282  -0.47589  -0.45926  -0.43028
 Alpha  occ. eigenvalues --   -0.42137
 Alpha virt. eigenvalues --    0.03721   0.04547   0.05763   0.06607   0.07030
 Alpha virt. eigenvalues --    0.08261   0.09281   0.10512   0.11288   0.12442
 Alpha virt. eigenvalues --    0.13433   0.13780   0.14430   0.14998   0.16651

  Beta  occ. eigenvalues --  -20.61042 -20.58532 -20.55915 -11.41060 -11.29502
  Beta  occ. eigenvalues --  -11.27720 -11.24959 -11.22435  -1.48201  -1.38292
  Beta  occ. eigenvalues --   -1.24138  -1.07819  -1.03574  -0.91702  -0.83308
  Beta  occ. eigenvalues --   -0.76190  -0.72100  -0.69712  -0.66561  -0.63692
  Beta  occ. eigenvalues --   -0.62965  -0.58535  -0.55198  -0.53971  -0.50831
  Beta  occ. eigenvalues --   -0.49847  -0.48464  -0.46874  -0.43808  -0.42289
  Beta virt. eigenvalues --    0.03805   0.04548   0.04769   0.06515   0.06992
  Beta virt. eigenvalues --    0.08000   0.08864   0.09416   0.10781   0.11761
  Beta virt. eigenvalues --    0.13091   0.13639   0.14062   0.14808   0.15800

 Mulliken charges and spin densities:
               1          2
     1  O   -0.158945   0.921803
     2  H    0.244394  -0.033394
     3  C   -0.899253   0.907123
     4  H    0.210125  -0.070250
     5  C    1.032583  -0.856748
     6  C   -0.393480   0.207815
     7  O   -0.279435  -0.078712
     8  O   -0.029737   0.001345
     9  C   -0.153565   0.002539
    10  C   -0.381183  -0.002032
    11  H    0.171604   0.000191
    12  H    0.180995  -0.000012
    13  H    0.129690   0.000032
    14  H    0.144693   0.000093
    15  H    0.181512   0.000206
 Sum of Mulliken charges =  -0.00000   1.00000

 Dipole moment (field-independent basis, Debye):
    X=              0.5790    Y=             -0.2959    Z=             -0.8043  Tot=              1.0343
 Quadrupole moment (field-independent basis, Debye-Ang):
   XX=            -31.3621   YY=            -46.1854   ZZ=            -52.4832
   XY=             -4.6069   XZ=              2.5737   YZ=              4.2234

 06\PMP3-0=-419.2798456\MP4SDQ=-419.294935\CCSD=-419.2996267\CCSD(T)=-4
 Normal termination of Gaussian 16 at Fri Aug 29 22:40:44 2025.
