 Gaussian 16, Revision A.03,
 Gaussian 16:  ES64L-G16RevA.03 25-Dec-2016

 -------------------
 # freq 6-31+g m062x
 -------------------

 -------------------
 Title Card Required
 -------------------
 Symbolic Z-matrix:
 Charge =  0 Multiplicity = 2

                         Standard orientation:
 ---------------------------------------------------------------------
 Center     Atomic      Atomic             Coordinates (Angstroms)
 Number     Number       Type             X           Y           Z
 ---------------------------------------------------------------------
      1          8           0        2.124868    1.270496    0.023276
      2          1           0        2.786880    1.170581    0.719551
      3          6           0        2.441934   -1.161379   -0.591383
      4          1           0        3.327905   -1.624259   -0.964834
      5          6           0        1.577218   -0.346916   -0.163685
      6          6           0        0.166973   -0.195756    0.320280
      7          8           0       -0.169118   -0.402516    1.451105
      8          8           0       -0.595002    0.301124   -0.643629
      9          6           0       -1.930530    0.692158   -0.260791
     10          6           0       -2.857474   -0.505659   -0.215365
     11          1           0       -2.226576    1.404236   -1.028798
     12          1           0       -1.878566    1.197538    0.704265
     13          1           0       -3.873683   -0.173366    0.005542
     14          1           0       -2.864034   -1.018697   -1.178275
     15          1           0       -2.546640   -1.203558    0.562191
 ---------------------------------------------------------------------

 SCF Done:  E(UM062X) =  -419.965280203     A.U. after   19 cycles

 The electronic state is 2-A.
 Alpha  occ. eigenvalues --  -19.70719 -19.67000 -19.66540 -10.72871 -10.64705
 Alpha  occ. eigenvalues --  -10.61546 -10.61183 -10.54632  -1.28277  -1.18889
 Alpha  occ. eigenvalues --   -1.12795  -0.92135  -0.88542  -0.78693  -0.71917
 Alpha  occ. eigenvalues --   -0.65022  -0.62568  -0.59184  -0.57552  -0.54981
 Alpha  occ. eigenvalues --   -0.53815  -0.49715  -0.48293  -0.46459  -0.45291
 Alpha  occ. eigenvalues --   -0.42309  -0.40369  -0.39697  -0.38268  -0.36452
 Alpha  occ. eigenvalues --   -0.31256
 Alpha virt. eigenvalues --    0.00368   0.01801   0.02268   0.02740   0.03845
 Alpha virt. eigenvalues --    0.04103   0.05298   0.06123   0.07773   0.08050
 Alpha virt. eigenvalues --    0.08639   0.09000   0.09473   0.11251   0.11958

  Beta  occ. eigenvalues --  -19.70716 -19.66549 -19.66352 -10.72805 -10.64886
  Beta  occ. eigenvalues --  -10.61545 -10.60538 -10.54632  -1.28245  -1.18884
  Beta  occ. eigenvalues --   -1.10666  -0.91040  -0.87599  -0.78140  -0.71180
  Beta  occ. eigenvalues --   -0.64730  -0.61587  -0.58772  -0.57322  -0.54410
  Beta  occ. eigenvalues --   -0.53251  -0.49431  -0.46925  -0.45245  -0.43695
  Beta  occ. eigenvalues --   -0.41948  -0.39233  -0.38965  -0.38226  -0.35071
  Beta virt. eigenvalues --   -0.09055   0.01254   0.01524   0.02530   0.02879
  Beta virt. eigenvalues --    0.03886   0.04047   0.05295   0.05893   0.07628
  Beta virt. eigenvalues --    0.08100   0.08367   0.08851   0.09578   0.10989

 Mulliken charges and spin densities:
               1          2
     1  O   -0.504048   0.315581
     2  H    0.420740  -0.007217
     3  C    0.330418   0.993443
     4  H    0.288484  -0.035790
     5  C   -0.536339  -0.334060
     6  C    0.211409   0.066162
     7  O   -0.355743  -0.002002
     8  O   -0.197231   0.001157
     9  C   -0.187537   0.002064
    10  C   -0.591269   0.000815
    11  H    0.224835  -0.000157
    12  H    0.235523  -0.000107
    13  H    0.207489   0.000218
    14  H    0.219111  -0.000060
    15  H    0.234159  -0.000047
 Sum of Mulliken charges =  -0.00000   1.00000

 Dipole moment (field-independent basis, Debye):
    X=              0.1308    Y=             -1.3690    Z=             -0.6537  Tot=              1.5227
 Quadrupole moment (field-independent basis, Debye-Ang):
   XX=            -31.9427   YY=            -48.4421   ZZ=            -52.7770
   XY=             -6.8429   XZ=              2.2708   YZ=              4.6229

  Exact polarizability:  79.132  -6.286  68.942  -2.584   3.917  58.009
 Approx polarizability:  74.643  -9.827  80.666  -5.277   3.520  73.224

 ******    3 imaginary frequencies (negative Signs) ******

                      1                      2                      3
                      A                      A                      A
 Frequencies --   -503.6561              -473.1586               -81.8271
 Red. masses --      5.4950                 1.0739                 6.8166
 Frc consts  --      0.8213                 0.1416                 0.0269
 IR Inten    --     72.5843               115.6081                 4.6724

                      4                      5                      6
                      A                      A                      A
 Frequencies --     46.7817                69.8902               156.6522
 Red. masses --      2.4855                 3.4458                 2.0338
 Frc consts  --      0.0032                 0.0099                 0.0294
 IR Inten    --      2.1879                 8.8301                 4.5166

                      7                      8                      9
                      A                      A                      A
 Frequencies --    194.6140               204.2086               233.8708
 Red. masses --      1.7944                 1.4596                 3.8349
 Frc consts  --      0.0400                 0.0359                 0.1236
 IR Inten    --     15.3307                 5.8015                 3.0424

                     10                     11                     12
                      A                      A                      A
 Frequencies --    317.3277               355.7163               426.7909
 Red. masses --      3.1978                 8.2556                 3.6215
 Frc consts  --      0.1897                 0.6155                 0.3887
 IR Inten    --     16.5387                 3.0334                 2.9425

                     13                     14                     15
                      A                      A                      A
 Frequencies --    585.2125               632.2705               712.4673
 Red. masses --      3.5797                 5.6990                 1.3337
 Frc consts  --      0.7223                 1.3423                 0.3989
 IR Inten    --     15.7430                16.1481                56.7184

                     16                     17                     18
                      A                      A                      A
 Frequencies --    729.9891               815.5299               893.1270
 Red. masses --     10.6517                 1.2943                 3.3486
 Frc consts  --      3.3443                 0.5072                 1.5738
 IR Inten    --     20.2372                 7.0050                21.5525

                     19                     20                     21
                      A                      A                      A
 Frequencies --    927.8104               992.9754              1111.2899
 Red. masses --      2.2219                 1.3188                 4.0470
 Frc consts  --      1.1269                 0.7661                 2.9447
 IR Inten    --      7.4313                41.7694                 7.8448

                     22                     23                     24
                      A                      A                      A
 Frequencies --   1156.7460              1227.0973              1322.7425
 Red. masses --      2.0510                 1.7384                 2.1366
 Frc consts  --      1.6169                 1.5423                 2.2026
 IR Inten    --     18.2911                 5.8761               334.6967

                     25                     26                     27
                      A                      A                      A
 Frequencies --   1370.9967              1443.2631              1456.3936
 Red. masses --      1.6610                 1.3528                 1.2719
 Frc consts  --      1.8394                 1.6603                 1.5896
 IR Inten    --    242.3842                28.4531                15.3885

                     28                     29                     30
                      A                      A                      A
 Frequencies --   1528.2445              1538.2707              1546.4882
 Red. masses --      1.0418                 1.0636                 1.0787
 Frc consts  --      1.4336                 1.4829                 1.5200
 IR Inten    --     14.2081                 2.0094                20.4840

                     31                     32                     33
                      A                      A                      A
 Frequencies --   1884.1971              1934.5090              3107.5082
 Red. masses --      8.1556                 9.8299                 1.0352
 Frc consts  --     17.0592                21.6741                 5.8896
 IR Inten    --    125.7204               188.0402                13.5419

                     34                     35                     36
                      A                      A                      A
 Frequencies --   3139.0735              3186.8053              3191.7497
 Red. masses --      1.0603                 1.0999                 1.1028
 Frc consts  --      6.1556                 6.5811                 6.6190
 IR Inten    --     16.3662                15.4198                 4.2640

                     37                     38                     39
                      A                      A                      A
 Frequencies --   3212.8969              3485.5287              3869.9051
 Red. masses --      1.1054                 1.1278                 1.0671
 Frc consts  --      6.7227                 8.0727                 9.4158
 IR Inten    --     17.1827                64.8100                37.9662

 - Thermochemistry -
 -------------------
 Temperature   298.150 Kelvin.  Pressure   1.00000 Atm.
 Atom     1 has atomic number  8 and mass  15.99491

 Molecular mass:   115.03952 amu.
 Principal axes and moments of inertia in atomic units:
                           1         2         3
     Eigenvalues --   424.718881541.337291596.05821
           X            0.99998  -0.00347   0.00487
           Y            0.00269   0.98833   0.15232
           Z           -0.00534  -0.15230   0.98832
 This molecule is an asymmetric top.
 Rotational symmetry number  1.
 Rotational temperatures (Kelvin)      0.20393     0.05619     0.05427
 Rotational constants (GHZ):           4.24926     1.17089     1.13075
    3 imaginary frequencies ignored.
 Zero-point vibrational energy     293138.6 (Joules/Mol)
                                   70.06180 (Kcal/Mol)
 Warning -- explicit consideration of  10 degrees of freedom as
           vibrations may cause significant error
 Vibrational temperatures:     67.31   100.56   225.39   280.01   293.81
          (Kelvin)            336.49   456.56   511.80   614.06   841.99
                              909.70  1025.08  1050.29  1173.37  1285.01
                             1334.91  1428.67  1598.90  1664.30  1765.52
                             1903.13  1972.56  2076.53  2095.43  2198.80
                             2213.23  2225.05  2710.94  2783.33  4471.01
                             4516.43  4585.10  4592.22  4622.64  5014.90
                             5567.93

 Zero-point correction=                           0.111651 (Hartree/Particle)
 Thermal correction to Energy=                    0.120262
 Thermal correction to Enthalpy=                  0.121206
 Thermal correction to Gibbs Free Energy=         0.076848
 Sum of electronic and zero-point Energies=           -419.853630
 Sum of electronic and thermal Energies=              -419.845019
 Sum of electronic and thermal Enthalpies=            -419.844074
 Sum of electronic and thermal Free Energies=         -419.888432

                     E (Thermal)             CV                S
                      KCal/Mol        Cal/Mol-Kelvin    Cal/Mol-Kelvin
 Total                   75.465             28.836             93.358
 Electronic               0.000              0.000              1.377
 Translational            0.889              2.981             40.136
 Rotational               0.889              2.981             28.437
 Vibrational             73.688             22.875             23.408
 Vibration     1          0.595              1.979              4.949
 Vibration     2          0.598              1.968              4.156
 Vibration     3          0.620              1.895              2.590
 Vibration     4          0.635              1.847              2.183
 Vibration     5          0.640              1.834              2.095
 Vibration     6          0.654              1.789              1.849
 Vibration     7          0.704              1.640              1.324
 Vibration     8          0.731              1.564              1.141
 Vibration     9          0.788              1.412              0.869
 Vibration    10          0.942              1.063              0.476

 Normal termination of Gaussian 16 at Fri Jun 20 14:38:31 2025.
