 Gaussian 16, Revision A.03,
 Gaussian 16:  ES64L-G16RevA.03 25-Dec-2016

 --------------------------
 # ccsd(t)/6-311++g(d,p) sp
 --------------------------

 -------------------
 Title Card Required
 -------------------
 Symbolic Z-matrix:
 Charge =  0 Multiplicity = 2

                         Standard orientation:
 ---------------------------------------------------------------------
 Center     Atomic      Atomic             Coordinates (Angstroms)
 Number     Number       Type             X           Y           Z
 ---------------------------------------------------------------------
      1          8           0        2.124868    1.270496    0.023276
      2          1           0        2.786880    1.170581    0.719551
      3          6           0        2.441934   -1.161379   -0.591383
      4          1           0        3.327905   -1.624259   -0.964834
      5          6           0        1.577218   -0.346916   -0.163685
      6          6           0        0.166973   -0.195756    0.320280
      7          8           0       -0.169118   -0.402516    1.451105
      8          8           0       -0.595002    0.301124   -0.643629
      9          6           0       -1.930530    0.692158   -0.260791
     10          6           0       -2.857474   -0.505659   -0.215365
     11          1           0       -2.226576    1.404236   -1.028798
     12          1           0       -1.878566    1.197538    0.704265
     13          1           0       -3.873683   -0.173366    0.005542
     14          1           0       -2.864034   -1.018697   -1.178275
     15          1           0       -2.546640   -1.203558    0.562191
 ---------------------------------------------------------------------

 SCF Done:  E(UHF) =  -417.983859411     A.U. after   28 cycles
 E2 =    -0.1265674601D+01 EUMP2 =    -0.41924953401250D+03
 CCSD(T)= -0.41936753772D+03

 The electronic state is 2-A.
 Alpha  occ. eigenvalues --  -20.61211 -20.59802 -20.55828 -11.41186 -11.30452
 Alpha  occ. eigenvalues --  -11.29598 -11.28453 -11.22530  -1.48236  -1.37939
 Alpha  occ. eigenvalues --   -1.35486  -1.08777  -1.04624  -0.92646  -0.84322
 Alpha  occ. eigenvalues --   -0.76743  -0.73196  -0.69874  -0.67735  -0.65154
 Alpha  occ. eigenvalues --   -0.63193  -0.61115  -0.58226  -0.54501  -0.53726
 Alpha  occ. eigenvalues --   -0.52314  -0.50241  -0.47929  -0.46211  -0.43899
 Alpha  occ. eigenvalues --   -0.41771
 Alpha virt. eigenvalues --    0.03689   0.04506   0.05819   0.06641   0.07005
 Alpha virt. eigenvalues --    0.08226   0.09239   0.11290   0.11364   0.12835
 Alpha virt. eigenvalues --    0.13373   0.13588   0.14395   0.14659   0.16732

  Beta  occ. eigenvalues --  -20.61217 -20.57540 -20.56089 -11.40848 -11.32644
  Beta  occ. eigenvalues --  -11.29601 -11.25348 -11.22530  -1.48328  -1.38357
  Beta  occ. eigenvalues --   -1.28669  -1.07310  -1.03273  -0.91121  -0.82921
  Beta  occ. eigenvalues --   -0.76261  -0.71615  -0.70038  -0.66750  -0.64454
  Beta  occ. eigenvalues --   -0.63095  -0.58778  -0.55070  -0.53941  -0.51462
  Beta  occ. eigenvalues --   -0.49660  -0.49135  -0.47648  -0.46830  -0.42153
  Beta virt. eigenvalues --    0.03825   0.04118   0.04538   0.06440   0.06901
  Beta virt. eigenvalues --    0.07362   0.08497   0.09268   0.10434   0.12801
  Beta virt. eigenvalues --    0.13217   0.13646   0.13998   0.14704   0.16501

 Mulliken charges and spin densities:
               1          2
     1  O   -0.258296   0.502813
     2  H    0.261162  -0.016841
     3  C    0.089432   1.584210
     4  H    0.245948  -0.106964
     5  C   -0.011019  -1.100214
     6  C   -0.249357   0.184204
     7  O   -0.294093  -0.050678
     8  O   -0.043601   0.002908
     9  C   -0.153655   0.001732
    10  C   -0.397372  -0.001756
    11  H    0.169888   0.000112
    12  H    0.184077   0.000021
    13  H    0.130003   0.000088
    14  H    0.144037   0.000071
    15  H    0.182844   0.000294
 Sum of Mulliken charges =  -0.00000   1.00000

 Dipole moment (field-independent basis, Debye):
    X=              0.3547    Y=             -1.0305    Z=             -0.9844  Tot=              1.4686
 Quadrupole moment (field-independent basis, Debye-Ang):
   XX=            -32.3105   YY=            -47.4580   ZZ=            -52.0619
   XY=             -6.2057   XZ=              2.0482   YZ=              4.3784

 4SDQ=-419.3060822\CCSD=-419.3126107\CCSD(T)=-419.3675377\S2=1.046689\S
 Normal termination of Gaussian 16 at Mon Aug  4 13:19:08 2025.
