 Gaussian 16, Revision A.03,
 Gaussian 16:  ES64L-G16RevA.03 25-Dec-2016

 --------------------------
 # freq 6-311++g(d,p) m062x
 --------------------------

 -------------------
 Title Card Required
 -------------------
 Symbolic Z-matrix:
 Charge =  0 Multiplicity = 2

                         Standard orientation:
 ---------------------------------------------------------------------
 Center     Atomic      Atomic             Coordinates (Angstroms)
 Number     Number       Type             X           Y           Z
 ---------------------------------------------------------------------
      1          8           0        2.185803    1.390990   -0.020440
      2          1           0        2.826422    1.226485    0.690064
      3          6           0        2.455701   -1.189475   -0.544519
      4          1           0        3.337111   -1.675368   -0.893273
      5          6           0        1.484143   -0.580604   -0.166939
      6          6           0        0.159479   -0.194158    0.327726
      7          8           0       -0.174402   -0.329408    1.470989
      8          8           0       -0.593194    0.281208   -0.655719
      9          6           0       -1.925107    0.696447   -0.290155
     10          6           0       -2.860747   -0.492708   -0.194368
     11          1           0       -2.217175    1.376547   -1.088122
     12          1           0       -1.872289    1.242372    0.652399
     13          1           0       -3.874535   -0.143869    0.011731
     14          1           0       -2.870586   -1.046394   -1.134434
     15          1           0       -2.555405   -1.159108    0.612518
 ---------------------------------------------------------------------

 SCF Done:  E(UM062X) =  -420.202939856     A.U. after   25 cycles

 The electronic state is 2-A.
 Alpha  occ. eigenvalues --  -19.68128 -19.66442 -19.62986 -10.70598 -10.60427
 Alpha  occ. eigenvalues --  -10.58560 -10.58020 -10.53707  -1.25631  -1.16312
 Alpha  occ. eigenvalues --   -1.12443  -0.90876  -0.87455  -0.78130  -0.70731
 Alpha  occ. eigenvalues --   -0.64496  -0.61882  -0.58509  -0.56717  -0.54513
 Alpha  occ. eigenvalues --   -0.53471  -0.50541  -0.48341  -0.46313  -0.45240
 Alpha  occ. eigenvalues --   -0.42113  -0.41361  -0.39656  -0.38321  -0.36560
 Alpha  occ. eigenvalues --   -0.34811
 Alpha virt. eigenvalues --   -0.00765  -0.00312   0.00525   0.01536   0.02349
 Alpha virt. eigenvalues --    0.02772   0.03454   0.04140   0.05512   0.06671
 Alpha virt. eigenvalues --    0.07287   0.07795   0.08150   0.09129   0.10359

  Beta  occ. eigenvalues --  -19.68133 -19.64954 -19.63004 -10.70578 -10.60427
  Beta  occ. eigenvalues --  -10.58584 -10.57841 -10.53708  -1.25638  -1.16349
  Beta  occ. eigenvalues --   -1.05902  -0.90432  -0.87066  -0.77947  -0.70538
  Beta  occ. eigenvalues --   -0.64423  -0.61482  -0.58415  -0.56458  -0.53558
  Beta  occ. eigenvalues --   -0.51792  -0.49215  -0.46621  -0.45237  -0.42015
  Beta  occ. eigenvalues --   -0.39534  -0.39097  -0.38330  -0.37963  -0.35984
  Beta virt. eigenvalues --   -0.09247  -0.00251   0.00088   0.00745   0.01855
  Beta virt. eigenvalues --    0.02449   0.02812   0.03455   0.04220   0.05540
  Beta virt. eigenvalues --    0.06573   0.07401   0.07840   0.08208   0.09213

 Mulliken charges and spin densities:
               1          2
     1  O   -0.218972   0.840849
     2  H    0.236694  -0.018422
     3  C   -0.781821   0.254373
     4  H    0.192850  -0.013133
     5  C    0.796482  -0.116689
     6  C   -0.323490   0.060062
     7  O   -0.199657  -0.008235
     8  O    0.056853   0.000368
     9  C   -0.258688   0.001602
    10  C   -0.418398  -0.000750
    11  H    0.201580   0.000227
    12  H    0.197624  -0.000678
    13  H    0.161598   0.000260
    14  H    0.165604   0.000007
    15  H    0.191741   0.000160
 Sum of Mulliken charges =  -0.00000   1.00000

 Dipole moment (field-independent basis, Debye):
    X=              0.2086    Y=             -0.8059    Z=             -0.7613  Tot=              1.1280
 Quadrupole moment (field-independent basis, Debye-Ang):
   XX=            -31.9625   YY=            -46.5634   ZZ=            -51.8982
   XY=             -5.7406   XZ=              2.3170   YZ=              4.0348

  Exact polarizability:  86.544  -6.192  75.066  -3.696   4.514  60.377
 Approx polarizability:  88.240 -12.700  82.635  -7.597   3.988  78.518

 ******    2 imaginary frequencies (negative Signs) ******

                      1                      2                      3
                      A                      A                      A
 Frequencies --   -297.8008               -33.2094                57.0755
 Red. masses --     11.7823                 4.8440                 3.9614
 Frc consts  --      0.6156                 0.0031                 0.0076
 IR Inten    --     35.2669                 8.3954                 1.9317

                      4                      5                      6
                      A                      A                      A
 Frequencies --    112.9648               123.6812               160.5425
 Red. masses --      4.3937                 4.5576                 2.4420
 Frc consts  --      0.0330                 0.0411                 0.0371
 IR Inten    --      1.1359                15.4390                15.5194

                      7                      8                      9
                      A                      A                      A
 Frequencies --    193.5997               229.4360               253.4661
 Red. masses --      1.4002                 1.3144                 2.7237
 Frc consts  --      0.0309                 0.0408                 0.1031
 IR Inten    --     44.5425                 1.8789                13.5376

                     10                     11                     12
                      A                      A                      A
 Frequencies --    337.9525               417.3555               561.1713
 Red. masses --      2.8857                 3.7890                 3.5119
 Frc consts  --      0.1942                 0.3889                 0.6516
 IR Inten    --     11.8845                 0.3949                 9.4279

                     13                     14                     15
                      A                      A                      A
 Frequencies --    607.5640               667.6883               709.7727
 Red. masses --      6.4014                 1.1322                 1.3358
 Frc consts  --      1.3922                 0.2974                 0.3965
 IR Inten    --     11.6458                86.2156                30.8417

                     16                     17                     18
                      A                      A                      A
 Frequencies --    736.8422               773.8465               799.7805
 Red. masses --      1.3236                 8.8024                 1.1906
 Frc consts  --      0.4234                 3.1057                 0.4487
 IR Inten    --     22.3618                58.4442                 4.9157

                     19                     20                     21
                      A                      A                      A
 Frequencies --    895.8633               928.2790              1077.9382
 Red. masses --      3.1348                 2.8761                 4.1264
 Frc consts  --      1.4823                 1.4602                 2.8249
 IR Inten    --     15.1546                 7.0613                20.4127

                     22                     23                     24
                      A                      A                      A
 Frequencies --   1127.8252              1203.0075              1291.6925
 Red. masses --      2.0959                 1.7738                 3.5906
 Frc consts  --      1.5707                 1.5125                 3.5297
 IR Inten    --     20.5073                 5.6700               569.9003

                     25                     26                     27
                      A                      A                      A
 Frequencies --   1348.5972              1400.6857              1430.6250
 Red. masses --      1.2544                 1.2850                 1.3912
 Frc consts  --      1.3441                 1.4853                 1.6776
 IR Inten    --    109.1743                34.7856                 7.5206

                     28                     29                     30
                      A                      A                      A
 Frequencies --   1492.0833              1502.7513              1514.8986
 Red. masses --      1.0408                 1.0608                 1.0854
 Frc consts  --      1.3653                 1.4115                 1.4676
 IR Inten    --     10.5133                 1.6292                16.2045

                     31                     32                     33
                      A                      A                      A
 Frequencies --   1844.2521              2193.7656              3075.2417
 Red. masses --     11.9680                 6.0455                 1.0354
 Frc consts  --     23.9835                17.1420                 5.7691
 IR Inten    --    334.7235                76.3494                10.7097

                     34                     35                     36
                      A                      A                      A
 Frequencies --   3108.1405              3150.1701              3155.0663
 Red. masses --      1.0609                 1.1014                 1.1048
 Frc consts  --      6.0384                 6.4394                 6.4794
 IR Inten    --     15.4278                14.8716                 1.9976

                     37                     38                     39
                      A                      A                      A
 Frequencies --   3175.8451              3482.9560              3807.6869
 Red. masses --      1.1073                 1.1595                 1.0674
 Frc consts  --      6.5803                 8.2876                 9.1178
 IR Inten    --     14.9095                67.7039                44.2180

 - Thermochemistry -
 -------------------
 Temperature   298.150 Kelvin.  Pressure   1.00000 Atm.
 Atom     1 has atomic number  8 and mass  15.99491

 Molecular mass:   115.03952 amu.
 Principal axes and moments of inertia in atomic units:
                           1         2         3
     Eigenvalues --   454.030861550.403961629.49918
           X            0.99998  -0.00365   0.00536
           Y            0.00312   0.99542   0.09557
           Z           -0.00568  -0.09555   0.99541
 This molecule is an asymmetric top.
 Rotational symmetry number  1.
 Warning -- assumption of classical behavior for rotation
           may cause significant error
 Rotational temperatures (Kelvin)      0.19077     0.05587     0.05315
 Rotational constants (GHZ):           3.97493     1.16405     1.10754
    2 imaginary frequencies ignored.
 Zero-point vibrational energy     292786.7 (Joules/Mol)
                                   69.97770 (Kcal/Mol)
 Warning -- explicit consideration of  11 degrees of freedom as
           vibrations may cause significant error
 Vibrational temperatures:     82.12   162.53   177.95   230.98   278.55
          (Kelvin)            330.11   364.68   486.24   600.48   807.40
                              874.15   960.65  1021.20  1060.15  1113.39
                             1150.71  1288.95  1335.59  1550.91  1622.69
                             1730.86  1858.46  1940.33  2015.27  2058.35
                             2146.78  2162.12  2179.60  2653.47  3156.34
                             4424.59  4471.92  4532.39  4539.44  4569.33
                             5011.20  5478.41

 Zero-point correction=                           0.111517 (Hartree/Particle)
 Thermal correction to Energy=                    0.120488
 Thermal correction to Enthalpy=                  0.121432
 Thermal correction to Gibbs Free Energy=         0.076692
 Sum of electronic and zero-point Energies=           -420.091423
 Sum of electronic and thermal Energies=              -420.082452
 Sum of electronic and thermal Enthalpies=            -420.081508
 Sum of electronic and thermal Free Energies=         -420.126247

                     E (Thermal)             CV                S
                      KCal/Mol        Cal/Mol-Kelvin    Cal/Mol-Kelvin
 Total                   75.607             30.526             94.163
 Electronic               0.000              0.000              1.377
 Translational            0.889              2.981             40.136
 Rotational               0.889              2.981             28.530
 Vibrational             73.830             24.564             24.120
 Vibration     1          0.596              1.975              4.556
 Vibration     2          0.607              1.939              3.217
 Vibration     3          0.610              1.929              3.042
 Vibration     4          0.622              1.891              2.543
 Vibration     5          0.635              1.849              2.193
 Vibration     6          0.652              1.796              1.883
 Vibration     7          0.665              1.757              1.706
 Vibration     8          0.718              1.600              1.222
 Vibration     9          0.780              1.433              0.901
 Vibration    10          0.917              1.115              0.521
 Vibration    11          0.966              1.016              0.437

 1\1\GINC-AJ\Freq\UM062X\6-311++G(d,p)\C5H7O3(2)\AAYUSH\16-Aug-2025\0\\
 # freq 6-311++g(d,p) m062x\\Title Card Required\\0,2\O,2.120208,1.3948
 19,-0.016148\H,2.7613,1.224516,0.692561\C,2.396216,-1.179441,-0.566884
 \H,3.278746,-1.659595,-0.920718\C,1.423248,-0.576829,-0.182946\C,0.097
 72,-0.198685,0.315804\O,-0.235706,-0.346538,1.457638\O,-0.6562,0.28501
 4,-0.66261\C,-1.98906,0.693266,-0.292656\C,-2.921843,-0.49905,-0.20907
 7\H,-2.282845,1.380873,-1.083528\H,-1.93744,1.229549,0.655483\H,-3.936
 438,-0.154786,0.000706\H,-2.930465,-1.043017,-1.154812\H,-2.614816,-1.

 Normal termination of Gaussian 16 at Sat Aug 16 18:21:54 2025.
