 Gaussian 16, Revision A.03,
 Gaussian 16:  ES64L-G16RevA.03 25-Dec-2016

 --------------------------
 # ccsd(t)/6-311++g(d,p) sp
 --------------------------

 -------------------
 Title Card Required
 -------------------
 Symbolic Z-matrix:
 Charge =  0 Multiplicity = 2

                         Standard orientation:
 ---------------------------------------------------------------------
 Center     Atomic      Atomic             Coordinates (Angstroms)
 Number     Number       Type             X           Y           Z
 ---------------------------------------------------------------------
      1          8           0        2.162400    1.346721   -0.006119
      2          1           0        2.812908    1.209050    0.699284
      3          6           0        2.452579   -1.175989   -0.559261
      4          1           0        3.325363   -1.671511   -0.917294
      5          6           0        1.518086   -0.496751   -0.167230
      6          6           0        0.162476   -0.190588    0.326009
      7          8           0       -0.171959   -0.354466    1.464462
      8          8           0       -0.593750    0.287146   -0.651974
      9          6           0       -1.927396    0.693631   -0.280608
     10          6           0       -2.859413   -0.499019   -0.200847
     11          1           0       -2.220964    1.384000   -1.069107
     12          1           0       -1.874781    1.226744    0.669273
     13          1           0       -3.874148   -0.155978    0.010204
     14          1           0       -2.868072   -1.039749   -1.148451
     15          1           0       -2.551832   -1.175467    0.596748
 ---------------------------------------------------------------------

 SCF Done:  E(UHF) =  -417.978095069     A.U. after   35 cycles
 E2 =    -0.1255866779D+01 EUMP2 =    -0.41923396184771D+03
 CCSD(T)= -0.41935334582D+03

 The electronic state is 2-A.
 Alpha  occ. eigenvalues --  -20.61927 -20.61050 -20.55530 -11.41333 -11.29518
 Alpha  occ. eigenvalues --  -11.27231 -11.26694 -11.22445  -1.48078  -1.37832
 Alpha  occ. eigenvalues --   -1.37599  -1.08027  -1.04382  -0.92547  -0.83853
 Alpha  occ. eigenvalues --   -0.76433  -0.73102  -0.69680  -0.67850  -0.65733
 Alpha  occ. eigenvalues --   -0.64459  -0.62816  -0.58155  -0.54984  -0.53855
 Alpha  occ. eigenvalues --   -0.53481  -0.50286  -0.47583  -0.45922  -0.43246
 Alpha  occ. eigenvalues --   -0.42151
 Alpha virt. eigenvalues --    0.03714   0.04539   0.05771   0.06615   0.07027
 Alpha virt. eigenvalues --    0.08247   0.09262   0.10847   0.11361   0.12498
 Alpha virt. eigenvalues --    0.13421   0.13734   0.14438   0.14899   0.16802

  Beta  occ. eigenvalues --  -20.61058 -20.58257 -20.55926 -11.40973 -11.29519
  Beta  occ. eigenvalues --  -11.28708 -11.24884 -11.22446  -1.48236  -1.38336
  Beta  occ. eigenvalues --   -1.24899  -1.07767  -1.03520  -0.91498  -0.83163
  Beta  occ. eigenvalues --   -0.76189  -0.71949  -0.69789  -0.66576  -0.63845
  Beta  occ. eigenvalues --   -0.62962  -0.58602  -0.55162  -0.53965  -0.50885
  Beta  occ. eigenvalues --   -0.49731  -0.48485  -0.46922  -0.44597  -0.42309
  Beta virt. eigenvalues --    0.03812   0.04513   0.04627   0.06503   0.06979
  Beta virt. eigenvalues --    0.07849   0.08727   0.09355   0.10751   0.12137
  Beta virt. eigenvalues --    0.13106   0.13672   0.14079   0.14812   0.15987

 Mulliken charges and spin densities:
               1          2
     1  O   -0.167303   0.858753
     2  H    0.248914  -0.030629
     3  C   -0.460957   1.138568
     4  H    0.219465  -0.086437
     5  C    0.623846  -1.011007
     6  C   -0.410981   0.208686
     7  O   -0.285627  -0.081094
     8  O   -0.035818   0.001784
     9  C   -0.155619   0.002931
    10  C   -0.384591  -0.002220
    11  H    0.171119   0.000209
    12  H    0.181458  -0.000009
    13  H    0.129342   0.000082
    14  H    0.144359   0.000064
    15  H    0.182393   0.000318
 Sum of Mulliken charges =  -0.00000   1.00000

 Dipole moment (field-independent basis, Debye):
    X=              0.5271    Y=             -0.4529    Z=             -0.8510  Tot=              1.0987
 Quadrupole moment (field-independent basis, Debye-Ang):
   XX=            -31.6293   YY=            -46.3364   ZZ=            -52.3759
   XY=             -4.9479   XZ=              2.4416   YZ=              4.2936

 Normal termination of Gaussian 16 at Fri Aug 29 20:04:33 2025.
