 Gaussian 16, Revision A.03,
 Gaussian 16:  ES64L-G16RevA.03 25-Dec-2016

 --------------------------
 # freq 6-311++g(d,p) m062x
 --------------------------

 -------------------
 Title Card Required
 -------------------
 Symbolic Z-matrix:
 Charge =  0 Multiplicity = 2

                         Standard orientation:
 ---------------------------------------------------------------------
 Center     Atomic      Atomic             Coordinates (Angstroms)
 Number     Number       Type             X           Y           Z
 ---------------------------------------------------------------------
      1          8           0        2.173960    1.368531   -0.013238
      2          1           0        2.820409    1.218509    0.694355
      3          6           0        2.454127   -1.181970   -0.551795
      4          1           0        3.330027   -1.674775   -0.905250
      5          6           0        1.500995   -0.539111   -0.167390
      6          6           0        0.161328   -0.191551    0.326953
      7          8           0       -0.173078   -0.342181    1.467678
      8          8           0       -0.593471    0.284200   -0.653867
      9          6           0       -1.926279    0.694919   -0.285352
     10          6           0       -2.860112   -0.495977   -0.197500
     11          1           0       -2.219154    1.380160   -1.078597
     12          1           0       -1.873556    1.234466    0.660883
     13          1           0       -3.874363   -0.150000    0.011111
     14          1           0       -2.869405   -1.043228   -1.141340
     15          1           0       -2.553602   -1.167391    0.604757
 ---------------------------------------------------------------------

 SCF Done:  E(UM062X) =  -420.201865937     A.U. after   23 cycles

 The electronic state is 2-A.
 Alpha  occ. eigenvalues --  -19.68192 -19.65826 -19.63060 -10.70661 -10.60468
 Alpha  occ. eigenvalues --  -10.59268 -10.58446 -10.53737  -1.25712  -1.16392
 Alpha  occ. eigenvalues --   -1.11910  -0.91083  -0.87608  -0.78196  -0.70859
 Alpha  occ. eigenvalues --   -0.64602  -0.62086  -0.58562  -0.56797  -0.54293
 Alpha  occ. eigenvalues --   -0.53405  -0.50407  -0.48271  -0.46268  -0.45266
 Alpha  occ. eigenvalues --   -0.42058  -0.40963  -0.39767  -0.38375  -0.36674
 Alpha  occ. eigenvalues --   -0.34186
 Alpha virt. eigenvalues --   -0.00686  -0.00275   0.00517   0.01539   0.02338
 Alpha virt. eigenvalues --    0.02749   0.03332   0.04077   0.05487   0.06601
 Alpha virt. eigenvalues --    0.07255   0.07796   0.08153   0.09082   0.10406

  Beta  occ. eigenvalues --  -19.68197 -19.64416 -19.63080 -10.70635 -10.60468
  Beta  occ. eigenvalues --  -10.59322 -10.58208 -10.53737  -1.25717  -1.16431
  Beta  occ. eigenvalues --   -1.06068  -0.90500  -0.87129  -0.77957  -0.70601
  Beta  occ. eigenvalues --   -0.64495  -0.61598  -0.58471  -0.56526  -0.53631
  Beta  occ. eigenvalues --   -0.51636  -0.49216  -0.46642  -0.45260  -0.42080
  Beta  occ. eigenvalues --   -0.39590  -0.39355  -0.38416  -0.37812  -0.35869
  Beta virt. eigenvalues --   -0.09644  -0.00242   0.00215   0.00910   0.01859
  Beta virt. eigenvalues --    0.02427   0.02793   0.03338   0.04153   0.05518
  Beta virt. eigenvalues --    0.06453   0.07380   0.07836   0.08171   0.09155

 Mulliken charges and spin densities:
               1          2
     1  O   -0.229904   0.779222
     2  H    0.236382  -0.016997
     3  C   -0.491289   0.369447
     4  H    0.200056  -0.016457
     5  C    0.560626  -0.165487
     6  C   -0.365486   0.057724
     7  O   -0.202658  -0.009241
     8  O    0.054391   0.000270
     9  C   -0.262455   0.002235
    10  C   -0.418742  -0.000703
    11  H    0.201611   0.000262
    12  H    0.198159  -0.000769
    13  H    0.161472   0.000345
    14  H    0.165431  -0.000038
    15  H    0.192407   0.000186
 Sum of Mulliken charges =  -0.00000   1.00000

 Dipole moment (field-independent basis, Debye):
    X=              0.1446    Y=             -0.9903    Z=             -0.8081  Tot=              1.2863
 Quadrupole moment (field-independent basis, Debye-Ang):
   XX=            -32.1382   YY=            -46.6839   ZZ=            -51.8183
   XY=             -6.1969   XZ=              2.1622   YZ=              4.0934

  Exact polarizability:  86.273  -5.302  78.564  -3.463   5.218  60.481
 Approx polarizability:  87.219 -12.066  86.544  -7.244   4.580  78.593

 ******    1 imaginary frequencies (negative Signs) ******

                      1                      2                      3
                      A                      A                      A
 Frequencies --   -489.3504                19.1479                65.0291
 Red. masses --     11.9689                 4.6262                 3.7480
 Frc consts  --      1.6887                 0.0010                 0.0093
 IR Inten    --     68.3585                 7.4002                 2.6390

                      4                      5                      6
                      A                      A                      A
 Frequencies --    113.4151               137.0456               165.5886
 Red. masses --      3.9701                 4.8589                 2.5621
 Frc consts  --      0.0301                 0.0538                 0.0414
 IR Inten    --      0.8786                21.9693                10.5851

                      7                      8                      9
                      A                      A                      A
 Frequencies --    196.8851               230.8606               259.3686
 Red. masses --      1.3705                 1.3329                 2.8511
 Frc consts  --      0.0313                 0.0419                 0.1130
 IR Inten    --     45.3033                 1.2610                11.2643

                     10                     11                     12
                      A                      A                      A
 Frequencies --    338.4354               417.7771               563.7459
 Red. masses --      2.8937                 3.7594                 3.7259
 Frc consts  --      0.1953                 0.3866                 0.6977
 IR Inten    --     12.1320                 0.5670                 5.9534

                     13                     14                     15
                      A                      A                      A
 Frequencies --    606.7650               687.7961               720.5333
 Red. masses --      6.2926                 1.3338                 1.2121
 Frc consts  --      1.3650                 0.3718                 0.3707
 IR Inten    --     12.4731                28.5665                55.4072

                     16                     17                     18
                      A                      A                      A
 Frequencies --    742.1651               770.8046               799.8396
 Red. masses --      1.2323                 8.3752                 1.1883
 Frc consts  --      0.3999                 2.9318                 0.4479
 IR Inten    --     41.0922                68.3076                 4.9432

                     19                     20                     21
                      A                      A                      A
 Frequencies --    895.7562               926.7654              1077.4078
 Red. masses --      3.1673                 2.8662                 4.0967
 Frc consts  --      1.4973                 1.4504                 2.8019
 IR Inten    --     15.9092                 7.5283                20.2556

                     22                     23                     24
                      A                      A                      A
 Frequencies --   1127.8592              1202.8780              1289.5234
 Red. masses --      2.0911                 1.7727                 3.6651
 Frc consts  --      1.5672                 1.5112                 3.5909
 IR Inten    --     19.9018                 6.5548               575.0669

                     25                     26                     27
                      A                      A                      A
 Frequencies --   1348.6153              1400.6870              1430.8654
 Red. masses --      1.2485                 1.2827                 1.3896
 Frc consts  --      1.3379                 1.4828                 1.6762
 IR Inten    --    105.0912                33.9905                 6.5695

                     28                     29                     30
                      A                      A                      A
 Frequencies --   1492.1364              1502.8117              1515.0927
 Red. masses --      1.0408                 1.0604                 1.0856
 Frc consts  --      1.3654                 1.4110                 1.4682
 IR Inten    --     10.5253                 1.4190                15.5811

                     31                     32                     33
                      A                      A                      A
 Frequencies --   1845.5985              2149.4156              3075.3030
 Red. masses --     11.9377                 6.2294                 1.0354
 Frc consts  --     23.9578                16.9567                 5.7694
 IR Inten    --    337.0257                88.5809                10.6477

                     34                     35                     36
                      A                      A                      A
 Frequencies --   3108.3002              3150.1968              3155.2398
 Red. masses --      1.0609                 1.1014                 1.1048
 Frc consts  --      6.0390                 6.4395                 6.4801
 IR Inten    --     14.9492                14.7336                 1.9800

                     37                     38                     39
                      A                      A                      A
 Frequencies --   3176.0589              3477.9193              3814.4326
 Red. masses --      1.1074                 1.1534                 1.0675
 Frc consts  --      6.5814                 8.2197                 9.1509
 IR Inten    --     14.8035                69.1393                49.0013

 - Thermochemistry -
 -------------------
 Temperature   298.150 Kelvin.  Pressure   1.00000 Atm.
 Atom     1 has atomic number  8 and mass  15.99491

 Molecular mass:   115.03952 amu.
 Principal axes and moments of inertia in atomic units:
                           1         2         3
     Eigenvalues --   447.908601548.578961622.43821
           X            0.99998  -0.00361   0.00528
           Y            0.00304   0.99453   0.10445
           Z           -0.00563  -0.10443   0.99452
 This molecule is an asymmetric top.
 Rotational symmetry number  1.
 Warning -- assumption of classical behavior for rotation
           may cause significant error
 Rotational temperatures (Kelvin)      0.19337     0.05593     0.05339
 Rotational constants (GHZ):           4.02926     1.16542     1.11236
    1 imaginary frequencies ignored.
 Zero-point vibrational energy     293073.5 (Joules/Mol)
                                   70.04625 (Kcal/Mol)
 Warning -- explicit consideration of  12 degrees of freedom as
           vibrations may cause significant error
 Vibrational temperatures:     27.55    93.56   163.18   197.18   238.24
          (Kelvin)            283.27   332.16   373.17   486.93   601.09
                              811.10   873.00   989.59  1036.69  1067.81
                             1109.02  1150.79  1288.79  1333.41  1550.15
                             1622.74  1730.67  1855.34  1940.36  2015.28
                             2058.70  2146.85  2162.21  2179.88  2655.40
                             3092.53  4424.68  4472.15  4532.43  4539.69
                             4569.64  5003.95  5488.12

 Zero-point correction=                           0.111626 (Hartree/Particle)
 Thermal correction to Energy=                    0.121418
 Thermal correction to Enthalpy=                  0.122362
 Thermal correction to Gibbs Free Energy=         0.074747
 Sum of electronic and zero-point Energies=           -420.090240
 Sum of electronic and thermal Energies=              -420.080448
 Sum of electronic and thermal Enthalpies=            -420.079504
 Sum of electronic and thermal Free Energies=         -420.127119

                     E (Thermal)             CV                S
                      KCal/Mol        Cal/Mol-Kelvin    Cal/Mol-Kelvin
 Total                   76.191             32.406            100.215
 Electronic               0.000              0.000              1.377
 Translational            0.889              2.981             40.136
 Rotational               0.889              2.981             28.511
 Vibrational             74.413             26.445             30.191
 Vibration     1          0.593              1.986              6.721
 Vibration     2          0.597              1.971              4.298
 Vibration     3          0.607              1.938              3.210
 Vibration     4          0.614              1.916              2.845
 Vibration     5          0.624              1.885              2.485
 Vibration     6          0.636              1.844              2.162
 Vibration     7          0.653              1.794              1.872
 Vibration     8          0.668              1.747              1.666
 Vibration     9          0.719              1.599              1.220
 Vibration    10          0.781              1.432              0.900
 Vibration    11          0.920              1.110              0.516
 Vibration    12          0.965              1.017              0.438

 1\1\GINC-AJ\Freq\UM062X\6-311++G(d,p)\C5H7O3(2)\AAYUSH\23-Jun-2025\0\\
 # freq 6-311++g(d,p) m062x\\Title Card Required\\0,2\O,2.17396,1.36853
 1,-0.013238\H,2.820409,1.218509,0.694355\C,2.454127,-1.18197,-0.551795
 \H,3.330027,-1.674775,-0.90525\C,1.500995,-0.539111,-0.16739\C,0.16132
 8,-0.191551,0.326953\O,-0.173078,-0.342181,1.467678\O,-0.593471,0.2842
 ,-0.653867\C,-1.926279,0.694919,-0.285352\C,-2.860112,-0.495977,-0.197
 5\H,-2.219154,1.38016,-1.078597\H,-1.873556,1.234466,0.660883\H,-3.874
 363,-0.15,0.011111\H,-2.869405,-1.043228,-1.14134\H,-2.553602,-1.16739

 Normal termination of Gaussian 16 at Mon Jun 23 07:29:23 2025.
