 Gaussian 16, Revision A.03,
 Gaussian 16:  ES64L-G16RevA.03 25-Dec-2016

 --------------------------
 # freq 6-311++g(d,p) m062x
 --------------------------

 -------------------
 Title Card Required
 -------------------
 Symbolic Z-matrix:
 Charge =  0 Multiplicity = 2

                         Standard orientation:
 ---------------------------------------------------------------------
 Center     Atomic      Atomic             Coordinates (Angstroms)
 Number     Number       Type             X           Y           Z
 ---------------------------------------------------------------------
      1          8           0        2.119994    1.258877    0.029037
      2          1           0        2.784128    1.164451    0.723479
      3          6           0        2.438891   -1.158881   -0.597611
      4          1           0        3.330502   -1.610239   -0.973338
      5          6           0        1.585555   -0.325981   -0.163221
      6          6           0        0.168172   -0.197258    0.318974
      7          8           0       -0.168739   -0.411658    1.448331
      8          8           0       -0.595200    0.304222   -0.641901
      9          6           0       -1.930829    0.692619   -0.256770
     10          6           0       -2.857359   -0.505671   -0.218137
     11          1           0       -2.227214    1.409057   -1.020613
     12          1           0       -1.878893    1.192394    0.711239
     13          1           0       -3.873709   -0.175100    0.004717
     14          1           0       -2.863729   -1.013172   -1.183979
     15          1           0       -2.546110   -1.207888    0.555341
 ---------------------------------------------------------------------

 SCF Done:  E(UM062X) =  -420.221561045     A.U. after   19 cycles

 The electronic state is 2-A.
 Alpha  occ. eigenvalues --  -19.68292 -19.64427 -19.63241 -10.70312 -10.63357
 Alpha  occ. eigenvalues --  -10.60516 -10.59445 -10.53773  -1.25784  -1.16465
 Alpha  occ. eigenvalues --   -1.11763  -0.91130  -0.87758  -0.78080  -0.71211
 Alpha  occ. eigenvalues --   -0.64767  -0.61822  -0.58991  -0.57417  -0.54843
 Alpha  occ. eigenvalues --   -0.53353  -0.49822  -0.48454  -0.46102  -0.45219
 Alpha  occ. eigenvalues --   -0.42208  -0.40415  -0.39562  -0.38461  -0.36100
 Alpha  occ. eigenvalues --   -0.31231
 Alpha virt. eigenvalues --   -0.00309   0.00251   0.01269   0.01486   0.02039
 Alpha virt. eigenvalues --    0.02667   0.03002   0.04070   0.05445   0.06657
 Alpha virt. eigenvalues --    0.07156   0.07833   0.08389   0.09003   0.10532

  Beta  occ. eigenvalues --  -19.68289 -19.63899 -19.63244 -10.70256 -10.63516
  Beta  occ. eigenvalues --  -10.60515 -10.58799 -10.53772  -1.25748  -1.16458
  Beta  occ. eigenvalues --   -1.09906  -0.90047  -0.86567  -0.77408  -0.70352
  Beta  occ. eigenvalues --   -0.64476  -0.60921  -0.58685  -0.57002  -0.54309
  Beta  occ. eigenvalues --   -0.53039  -0.49399  -0.46701  -0.45169  -0.44272
  Beta  occ. eigenvalues --   -0.41947  -0.39355  -0.38902  -0.38391  -0.34705
  Beta virt. eigenvalues --   -0.08488  -0.00275   0.00337   0.01663   0.02095
  Beta virt. eigenvalues --    0.02321   0.02757   0.03231   0.04169   0.05489
  Beta virt. eigenvalues --    0.06291   0.07306   0.07828   0.08116   0.08989

 Mulliken charges and spin densities:
               1          2
     1  O   -0.281131   0.254091
     2  H    0.258617   0.000482
     3  C    0.101148   0.998299
     4  H    0.227602  -0.028446
     5  C   -0.116646  -0.302379
     6  C   -0.238717   0.071167
     7  O   -0.217971  -0.000030
     8  O    0.046486   0.003107
     9  C   -0.267343   0.002816
    10  C   -0.430628   0.001346
    11  H    0.199078   0.000210
    12  H    0.199794  -0.000611
    13  H    0.161805   0.000679
    14  H    0.165369  -0.000250
    15  H    0.192538  -0.000481
 Sum of Mulliken charges =  -0.00000   1.00000

 Dipole moment (field-independent basis, Debye):
    X=              0.0398    Y=             -1.1415    Z=             -0.8849  Tot=              1.4448
 Quadrupole moment (field-independent basis, Debye-Ang):
   XX=            -32.7739   YY=            -47.8472   ZZ=            -51.5748
   XY=             -6.3381   XZ=              1.8500   YZ=              4.1111

  Exact polarizability:  83.563  -5.939  70.419  -2.909   3.910  60.186
 Approx polarizability:  81.436  -8.443  85.654  -4.809   3.696  78.181

 ******    1 imaginary frequencies (negative Signs) ******

                      1                      2                      3
                      A                      A                      A
 Frequencies --   -454.8835                33.3858                97.5639
 Red. masses --      4.5230                 1.5049                 3.9262
 Frc consts  --      0.5514                 0.0010                 0.0220
 IR Inten    --    103.2178                32.0702                 5.1561

                      4                      5                      6
                      A                      A                      A
 Frequencies --    113.1347               138.1061               193.1557
 Red. masses --      2.7265                 2.7472                 2.0041
 Frc consts  --      0.0206                 0.0309                 0.0441
 IR Inten    --      8.2598                26.5484                 9.9488

                      7                      8                      9
                      A                      A                      A
 Frequencies --    226.5108               238.9911               265.8676
 Red. masses --      1.4066                 1.7196                 3.4053
 Frc consts  --      0.0425                 0.0579                 0.1418
 IR Inten    --     27.8108                 2.8940                 0.9946

                     10                     11                     12
                      A                      A                      A
 Frequencies --    345.8697               363.1010               442.6675
 Red. masses --      3.1273                 9.8682                 3.5600
 Frc consts  --      0.2204                 0.7666                 0.4110
 IR Inten    --     12.3137                 0.9873                 3.4820

                     13                     14                     15
                      A                      A                      A
 Frequencies --    600.8779               640.0110               691.1407
 Red. masses --      3.8208                 4.8498                 1.4398
 Frc consts  --      0.8128                 1.1704                 0.4052
 IR Inten    --     11.7183                16.2472                38.9921

                     16                     17                     18
                      A                      A                      A
 Frequencies --    785.3683               803.3841               894.7814
 Red. masses --      6.3133                 1.3020                 3.2412
 Frc consts  --      2.2943                 0.4951                 1.5289
 IR Inten    --     14.6086                 4.6631                16.9746

                     19                     20                     21
                      A                      A                      A
 Frequencies --    917.5068              1066.2482              1097.4045
 Red. masses --      2.8257                 2.3790                 1.4475
 Frc consts  --      1.4015                 1.5935                 1.0271
 IR Inten    --      2.7603                33.8162                36.4002

                     22                     23                     24
                      A                      A                      A
 Frequencies --   1128.4085              1202.7393              1284.4828
 Red. masses --      2.0656                 1.7667                 3.8329
 Frc consts  --      1.5496                 1.5058                 3.7259
 IR Inten    --     21.2598                 8.0787               533.4723

                     25                     26                     27
                      A                      A                      A
 Frequencies --   1348.0140              1401.1806              1431.8778
 Red. masses --      1.2337                 1.2782                 1.3868
 Frc consts  --      1.3208                 1.4785                 1.6752
 IR Inten    --     89.5708                26.2590                 7.5770

                     28                     29                     30
                      A                      A                      A
 Frequencies --   1492.9181              1503.4535              1516.0911
 Red. masses --      1.0408                 1.0596                 1.0862
 Frc consts  --      1.3667                 1.4111                 1.4710
 IR Inten    --     10.1928                 1.2642                15.2946

                     31                     32                     33
                      A                      A                      A
 Frequencies --   1809.7865              1866.2550              3075.2526
 Red. masses --      7.9087                10.4587                 1.0354
 Frc consts  --     15.2620                21.4620                 5.7693
 IR Inten    --     99.7524               234.2484                10.5559

                     34                     35                     36
                      A                      A                      A
 Frequencies --   3108.0489              3149.9705              3155.1210
 Red. masses --      1.0607                 1.1015                 1.1048
 Frc consts  --      6.0367                 6.4395                 6.4796
 IR Inten    --     15.6876                14.2439                 2.5637

                     37                     38                     39
                      A                      A                      A
 Frequencies --   3175.7445              3431.4593              3858.8656
 Red. masses --      1.1075                 1.1226                 1.0676
 Frc consts  --      6.5808                 7.7882                 9.3662
 IR Inten    --     14.6805                73.4776                70.2659

 - Thermochemistry -
 -------------------
 Temperature   298.150 Kelvin.  Pressure   1.00000 Atm.
 Atom     1 has atomic number  8 and mass  15.99491

 Molecular mass:   115.03952 amu.
 Principal axes and moments of inertia in atomic units:
                           1         2         3
     Eigenvalues --   422.307621540.379051593.32869
           X            0.99998  -0.00343   0.00481
           Y            0.00262   0.98732   0.15872
           Z           -0.00530  -0.15870   0.98731
 This molecule is an asymmetric top.
 Rotational symmetry number  1.
 Rotational temperatures (Kelvin)      0.20510     0.05623     0.05436
 Rotational constants (GHZ):           4.27352     1.17162     1.13269
    1 imaginary frequencies ignored.
 Zero-point vibrational energy     292455.5 (Joules/Mol)
                                   69.89855 (Kcal/Mol)
 Warning -- explicit consideration of  12 degrees of freedom as
           vibrations may cause significant error
 Vibrational temperatures:     48.03   140.37   162.78   198.70   277.91
          (Kelvin)            325.90   343.85   382.52   497.63   522.42
                              636.90   864.53   920.83   994.40  1129.97
                             1155.89  1287.39  1320.09  1534.09  1578.92
                             1623.53  1730.47  1848.08  1939.49  2015.99
                             2060.15  2147.98  2163.13  2181.32  2603.88
                             2685.12  4424.60  4471.79  4532.11  4539.52
                             4569.19  4937.10  5552.05

 Zero-point correction=                           0.111390 (Hartree/Particle)
 Thermal correction to Energy=                    0.121073
 Thermal correction to Enthalpy=                  0.122017
 Thermal correction to Gibbs Free Energy=         0.075474
 Sum of electronic and zero-point Energies=           -420.110171
 Sum of electronic and thermal Energies=              -420.100488
 Sum of electronic and thermal Enthalpies=            -420.099544
 Sum of electronic and thermal Free Energies=         -420.146087

                     E (Thermal)             CV                S
                      KCal/Mol        Cal/Mol-Kelvin    Cal/Mol-Kelvin
 Total                   75.975             32.354             97.959
 Electronic               0.000              0.000              1.377
 Translational            0.889              2.981             40.136
 Rotational               0.889              2.981             28.429
 Vibrational             74.197             26.392             28.017
 Vibration     1          0.594              1.983              5.617
 Vibration     2          0.603              1.951              3.502
 Vibration     3          0.607              1.939              3.214
 Vibration     4          0.614              1.915              2.830
 Vibration     5          0.635              1.849              2.197
 Vibration     6          0.650              1.801              1.906
 Vibration     7          0.657              1.781              1.810
 Vibration     8          0.672              1.736              1.623
 Vibration     9          0.724              1.584              1.185
 Vibration    10          0.737              1.548              1.109
 Vibration    11          0.802              1.377              0.818
 Vibration    12          0.959              1.030              0.448

 1\1\GINC-AJ\Freq\UM062X\6-311++G(d,p)\C5H7O3(2)\AAYUSH\16-Aug-2025\0\\
 # freq 6-311++g(d,p) m062x\\Title Card Required\\0,2\O,2.064369,1.2450
 26,-0.029114\H,2.728008,1.173596,0.668539\C,2.369575,-1.196776,-0.5623
 96\H,3.258599,-1.667253,-0.92038\C,1.520983,-0.343007,-0.16044\C,0.104
 382,-0.187866,0.316248\O,-0.233654,-0.35683,1.452956\O,-0.656215,0.280
 638,-0.66329\C,-1.989605,0.691068,-0.293556\C,-2.922878,-0.499609,-0.2
 09066\H,-2.281996,1.379301,-1.084395\H,-1.934782,1.227351,0.654552\H,-
 3.937331,-0.154995,0.000779\H,-2.932179,-1.043786,-1.154705\H,-2.61554

 Normal termination of Gaussian 16 at Sat Aug 16 17:54:28 2025.
