 Gaussian 16, Revision A.03,
 Gaussian 16:  ES64L-G16RevA.03 25-Dec-2016

 --------------------------
 # freq 6-311++g(d,p) m062x
 --------------------------

 -------------------
 Title Card Required
 -------------------
 Symbolic Z-matrix:
 Charge =  0 Multiplicity = 2

                         Standard orientation:
 ---------------------------------------------------------------------
 Center     Atomic      Atomic             Coordinates (Angstroms)
 Number     Number       Type             X           Y           Z
 ---------------------------------------------------------------------
      1          8           0        2.135018    1.292989    0.013316
      2          1           0        2.793347    1.182122    0.712719
      3          6           0        2.446636   -1.165623   -0.580539
      4          1           0        3.324235   -1.645922   -0.949474
      5          6           0        1.560470   -0.389346   -0.164744
      6          6           0        0.165092   -0.193270    0.322458
      7          8           0       -0.169852   -0.386558    1.455754
      8          8           0       -0.594602    0.295997   -0.646549
      9          6           0       -1.929803    0.691842   -0.267633
     10          6           0       -2.857851   -0.504777   -0.210498
     11          1           0       -2.225141    1.396444   -1.042734
     12          1           0       -1.877700    1.206806    0.692277
     13          1           0       -3.873712   -0.169244    0.007060
     14          1           0       -2.864905   -1.027308   -1.168283
     15          1           0       -2.547887   -1.195277    0.574001
 ---------------------------------------------------------------------

 SCF Done:  E(UM062X) =  -420.210686275     A.U. after   21 cycles

 The electronic state is 2-A.
 Alpha  occ. eigenvalues --  -19.68364 -19.64186 -19.63297 -10.70599 -10.62639
 Alpha  occ. eigenvalues --  -10.60562 -10.59614 -10.53820  -1.25894  -1.16579
 Alpha  occ. eigenvalues --   -1.10802  -0.91485  -0.87921  -0.78285  -0.71259
 Alpha  occ. eigenvalues --   -0.64879  -0.62297  -0.58785  -0.57146  -0.54417
 Alpha  occ. eigenvalues --   -0.53258  -0.49797  -0.48208  -0.46131  -0.45308
 Alpha  occ. eigenvalues --   -0.42163  -0.40156  -0.39797  -0.38497  -0.36510
 Alpha  occ. eigenvalues --   -0.31656
 Alpha virt. eigenvalues --   -0.00379   0.00126   0.00826   0.01484   0.02097
 Alpha virt. eigenvalues --    0.02633   0.02914   0.03985   0.05418   0.06499
 Alpha virt. eigenvalues --    0.07150   0.07803   0.08277   0.08971   0.10486

  Beta  occ. eigenvalues --  -19.68363 -19.63392 -19.63309 -10.70549 -10.62796
  Beta  occ. eigenvalues --  -10.60561 -10.59082 -10.53820  -1.25873  -1.16595
  Beta  occ. eigenvalues --   -1.07987  -0.90376  -0.86956  -0.77711  -0.70573
  Beta  occ. eigenvalues --   -0.64610  -0.61521  -0.58640  -0.56782  -0.53894
  Beta  occ. eigenvalues --   -0.52376  -0.49318  -0.46677  -0.45277  -0.42764
  Beta  occ. eigenvalues --   -0.41600  -0.39374  -0.38712  -0.38197  -0.35147
  Beta virt. eigenvalues --   -0.09297  -0.00268   0.00324   0.01648   0.02017
  Beta virt. eigenvalues --    0.02123   0.02725   0.03092   0.04079   0.05463
  Beta virt. eigenvalues --    0.06166   0.07294   0.07820   0.08077   0.08997

 Mulliken charges and spin densities:
               1          2
     1  O   -0.281093   0.404249
     2  H    0.247834  -0.003600
     3  C    0.061744   0.864333
     4  H    0.225396  -0.028605
     5  C   -0.012109  -0.314550
     6  C   -0.300700   0.078425
     7  O   -0.213837  -0.005237
     8  O    0.046784   0.001588
     9  C   -0.268622   0.003160
    10  C   -0.426591   0.000358
    11  H    0.200654   0.000303
    12  H    0.200421  -0.000712
    13  H    0.161798   0.000585
    14  H    0.165337  -0.000177
    15  H    0.192984  -0.000121
 Sum of Mulliken charges =  -0.00000   1.00000

 Dipole moment (field-independent basis, Debye):
    X=             -0.0184    Y=             -1.3956    Z=             -0.9178  Tot=              1.6705
 Quadrupole moment (field-independent basis, Debye-Ang):
   XX=            -32.7229   YY=            -47.5287   ZZ=            -51.6119
   XY=             -7.0183   XZ=              1.8030   YZ=              4.1518

  Exact polarizability:  84.351  -5.367  73.775  -2.980   4.405  60.233
 Approx polarizability:  82.959  -8.761  89.629  -5.340   4.446  78.355

 ******    1 imaginary frequencies (negative Signs) ******

                      1                      2                      3
                      A                      A                      A
 Frequencies --   -635.8548                80.9382                92.2365
 Red. masses --     10.7619                 2.8635                 4.4131
 Frc consts  --      2.5636                 0.0111                 0.0221
 IR Inten    --     13.3773                 4.6473                 6.3504

                      4                      5                      6
                      A                      A                      A
 Frequencies --    115.9776               168.1496               195.2444
 Red. masses --      3.1610                 1.5602                 1.7728
 Frc consts  --      0.0251                 0.0260                 0.0398
 IR Inten    --      2.6622                67.2612                14.8542

                      7                      8                      9
                      A                      A                      A
 Frequencies --    221.6033               250.2391               288.2105
 Red. masses --      2.6730                 2.2722                 1.5748
 Frc consts  --      0.0773                 0.0838                 0.0771
 IR Inten    --      3.7712                 1.0566                18.8661

                     10                     11                     12
                      A                      A                      A
 Frequencies --    342.9764               381.8465               433.3225
 Red. masses --      3.0135                 2.5182                 3.5064
 Frc consts  --      0.2089                 0.2163                 0.3879
 IR Inten    --     12.2922                21.6503                 2.7492

                     13                     14                     15
                      A                      A                      A
 Frequencies --    584.3040               622.7026               698.2818
 Red. masses --      3.8516                 5.8814                 1.3696
 Frc consts  --      0.7748                 1.3437                 0.3935
 IR Inten    --      6.5178                13.2224                39.9161

                     16                     17                     18
                      A                      A                      A
 Frequencies --    775.0700               800.9838               894.4849
 Red. masses --      9.7952                 1.2099                 3.2041
 Frc consts  --      3.4669                 0.4574                 1.5104
 IR Inten    --     23.0304                 4.8907                18.5422

                     19                     20                     21
                      A                      A                      A
 Frequencies --    917.7555              1004.6210              1075.6090
 Red. masses --      2.7620                 1.1746                 3.8487
 Frc consts  --      1.3707                 0.6985                 2.6235
 IR Inten    --      3.6203                55.0656                23.3035

                     22                     23                     24
                      A                      A                      A
 Frequencies --   1127.8604              1202.6113              1285.0495
 Red. masses --      2.0742                 1.7681                 3.7900
 Frc consts  --      1.5545                 1.5066                 3.6875
 IR Inten    --     18.6881                 8.3725               549.1104

                     25                     26                     27
                      A                      A                      A
 Frequencies --   1348.2421              1400.8712              1431.4063
 Red. masses --      1.2390                 1.2789                 1.3866
 Frc consts  --      1.3269                 1.4787                 1.6738
 IR Inten    --     94.1667                28.5429                 6.6594

                     28                     29                     30
                      A                      A                      A
 Frequencies --   1492.6134              1503.2490              1515.8475
 Red. masses --      1.0408                 1.0591                 1.0865
 Frc consts  --      1.3662                 1.4100                 1.4710
 IR Inten    --     10.3411                 1.1684                15.1604

                     31                     32                     33
                      A                      A                      A
 Frequencies --   1841.5369              1917.3762              3075.4088
 Red. masses --     10.7371                 7.5645                 1.0354
 Frc consts  --     21.4534                16.3849                 5.7699
 IR Inten    --    290.6442                57.0938                10.4664

                     34                     35                     36
                      A                      A                      A
 Frequencies --   3108.8791              3150.2603              3155.5348
 Red. masses --      1.0608                 1.1014                 1.1047
 Frc consts  --      6.0407                 6.4399                 6.4812
 IR Inten    --     14.9844                14.4867                 2.1877

                     37                     38                     39
                      A                      A                      A
 Frequencies --   3176.4691              3451.9158              3846.5040
 Red. masses --      1.1075                 1.1282                 1.0677
 Frc consts  --      6.5841                 7.9209                 9.3074
 IR Inten    --     14.4968                79.8464                65.7143

 - Thermochemistry -
 -------------------
 Temperature   298.150 Kelvin.  Pressure   1.00000 Atm.
 Atom     1 has atomic number  8 and mass  15.99491

 Molecular mass:   115.03952 amu.
 Principal axes and moments of inertia in atomic units:
                           1         2         3
     Eigenvalues --   429.550891543.072471601.52954
           X            0.99998  -0.00354   0.00498
           Y            0.00280   0.99011   0.14027
           Z           -0.00543  -0.14026   0.99010
 This molecule is an asymmetric top.
 Rotational symmetry number  1.
 Rotational temperatures (Kelvin)      0.20164     0.05613     0.05408
 Rotational constants (GHZ):           4.20146     1.16958     1.12689
    1 imaginary frequencies ignored.
 Zero-point vibrational energy     292942.7 (Joules/Mol)
                                   70.01498 (Kcal/Mol)
 Warning -- explicit consideration of  12 degrees of freedom as
           vibrations may cause significant error
 Vibrational temperatures:    116.45   132.71   166.87   241.93   280.91
          (Kelvin)            318.84   360.04   414.67   493.47   549.39
                              623.45   840.68   895.93  1004.67  1115.15
                             1152.44  1286.96  1320.45  1445.43  1547.56
                             1622.74  1730.29  1848.90  1939.82  2015.54
                             2059.47  2147.54  2162.84  2180.97  2649.56
                             2758.68  4424.83  4472.98  4532.52  4540.11
                             4570.23  4966.54  5534.26

 Zero-point correction=                           0.111576 (Hartree/Particle)
 Thermal correction to Energy=                    0.121093
 Thermal correction to Enthalpy=                  0.122037
 Thermal correction to Gibbs Free Energy=         0.076533
 Sum of electronic and zero-point Energies=           -420.099110
 Sum of electronic and thermal Energies=              -420.089594
 Sum of electronic and thermal Enthalpies=            -420.088650
 Sum of electronic and thermal Free Energies=         -420.134153

                     E (Thermal)             CV                S
                      KCal/Mol        Cal/Mol-Kelvin    Cal/Mol-Kelvin
 Total                   75.987             32.389             95.771
 Electronic               0.000              0.000              1.377
 Translational            0.889              2.981             40.136
 Rotational               0.889              2.981             28.453
 Vibrational             74.209             26.427             25.805
 Vibration     1          0.600              1.962              3.868
 Vibration     2          0.602              1.955              3.612
 Vibration     3          0.608              1.936              3.166
 Vibration     4          0.625              1.882              2.456
 Vibration     5          0.636              1.847              2.177
 Vibration     6          0.648              1.808              1.946
 Vibration     7          0.663              1.762              1.729
 Vibration     8          0.685              1.696              1.484
 Vibration     9          0.722              1.590              1.198
 Vibration    10          0.751              1.509              1.032
 Vibration    11          0.794              1.398              0.848
 Vibration    12          0.941              1.065              0.477

 1\1\GINC-AJ\Freq\UM062X\6-311++G(d,p)\C5H7O3(2)\AAYUSH\16-Aug-2025\0\\
 # freq 6-311++g(d,p) m062x\\Title Card Required\\0,2\O,2.077759,1.2818
 98,-0.026068\H,2.735668,1.184193,0.675688\C,2.379016,-1.190861,-0.5638
 88\H,3.254565,-1.683099,-0.921792\C,1.496145,-0.401624,-0.165862\C,0.1
 01638,-0.188673,0.316727\O,-0.234032,-0.354748,1.454116\O,-0.656068,0.
 28163,-0.663166\C,-1.989569,0.691583,-0.293373\C,-2.922625,-0.499524,-
 0.209079\H,-2.282004,1.379621,-1.084294\H,-1.935235,1.228006,0.654587\
 H,-3.937053,-0.154874,0.000775\H,-2.931941,-1.043653,-1.154742\H,-2.61

 Normal termination of Gaussian 16 at Sat Aug 16 18:01:14 2025.
