 Gaussian 16, Revision A.03,
 Gaussian 16:  ES64L-G16RevA.03 25-Dec-2016

 -------------------
 # freq 6-31+g m062x
 -------------------

 -------------------
 Title Card Required
 -------------------
 Symbolic Z-matrix:
 Charge =  0 Multiplicity = 2

                         Standard orientation:
 ---------------------------------------------------------------------
 Center     Atomic      Atomic             Coordinates (Angstroms)
 Number     Number       Type             X           Y           Z
 ---------------------------------------------------------------------
      1          8           0        2.217174    1.449679   -0.039070
      2          1           0        2.832557    1.242029    0.683522
      3          6           0        2.457810   -1.214164   -0.526555
      4          1           0        3.359576   -1.669713   -0.863615
      5          6           0        1.444253   -0.679641   -0.164070
      6          6           0        0.150975   -0.208817    0.329201
      7          8           0       -0.178004   -0.295262    1.479428
      8          8           0       -0.592354    0.271599   -0.660279
      9          6           0       -1.921348    0.701894   -0.302333
     10          6           0       -2.862030   -0.482361   -0.187065
     11          1           0       -2.209866    1.369027   -1.112385
     12          1           0       -1.867072    1.263863    0.630540
     13          1           0       -3.874721   -0.126638    0.012419
     14          1           0       -2.872854   -1.051938   -1.117560
     15          1           0       -2.560108   -1.136220    0.631383
 ---------------------------------------------------------------------

 SCF Done:  E(UM062X) =  -419.959202081     A.U. after   24 cycles

 The electronic state is 2-A.
 Alpha  occ. eigenvalues --  -19.70362 -19.70042 -19.66068 -10.72894 -10.61329
 Alpha  occ. eigenvalues --  -10.59506 -10.59132 -10.54508  -1.27838  -1.18477
 Alpha  occ. eigenvalues --   -1.14410  -0.91314  -0.87932  -0.78542  -0.71137
 Alpha  occ. eigenvalues --   -0.64488  -0.61968  -0.58477  -0.56810  -0.54756
 Alpha  occ. eigenvalues --   -0.53842  -0.50669  -0.48498  -0.46684  -0.45213
 Alpha  occ. eigenvalues --   -0.42467  -0.41661  -0.39541  -0.38001  -0.36742
 Alpha  occ. eigenvalues --   -0.36104
 Alpha virt. eigenvalues --   -0.01168   0.02015   0.02531   0.03667   0.03849
 Alpha virt. eigenvalues --    0.04587   0.05358   0.05879   0.07945   0.08179
 Alpha virt. eigenvalues --    0.08348   0.09009   0.09649   0.11680   0.12298

  Beta  occ. eigenvalues --  -19.70366 -19.68404 -19.66082 -10.72881 -10.61329
  Beta  occ. eigenvalues --  -10.59496 -10.59035 -10.54508  -1.27847  -1.18501
  Beta  occ. eigenvalues --   -1.07210  -0.91069  -0.87730  -0.78458  -0.71041
  Beta  occ. eigenvalues --   -0.64460  -0.61715  -0.58350  -0.56685  -0.53847
  Beta  occ. eigenvalues --   -0.51632  -0.49342  -0.46829  -0.45215  -0.41901
  Beta  occ. eigenvalues --   -0.39454  -0.38948  -0.38335  -0.37990  -0.36429
  Beta virt. eigenvalues --   -0.08984  -0.00666   0.02072   0.02575   0.03805
  Beta virt. eigenvalues --    0.03884   0.04680   0.05371   0.06017   0.08094
  Beta virt. eigenvalues --    0.08175   0.08383   0.09142   0.09675   0.11693

 Mulliken charges and spin densities:
               1          2
     1  O   -0.402421   0.932110
     2  H    0.402745  -0.034220
     3  C   -0.350007   0.101602
     4  H    0.339907  -0.005863
     5  C   -0.292233  -0.043322
     6  C    0.472863   0.056889
     7  O   -0.329987  -0.005987
     8  O   -0.175139  -0.000089
     9  C   -0.213996  -0.000543
    10  C   -0.570035  -0.000447
    11  H    0.221879  -0.000039
    12  H    0.235268  -0.000078
    13  H    0.207605  -0.000005
    14  H    0.219721  -0.000005
    15  H    0.233831  -0.000002
 Sum of Mulliken charges =  -0.00000   1.00000

 Dipole moment (field-independent basis, Debye):
    X=              0.4188    Y=             -0.6857    Z=             -0.4355  Tot=              0.9139
 Quadrupole moment (field-independent basis, Debye-Ang):
   XX=            -30.9606   YY=            -46.9496   ZZ=            -53.2809
   XY=             -5.1719   XZ=              3.1315   YZ=              4.3096

  Exact polarizability:  82.148  -8.878  63.712  -3.744   2.754  57.964
 Approx polarizability:  83.098 -14.972  66.282  -8.403   2.259  73.447

 ******    3 imaginary frequencies (negative Signs) ******

                      1                      2                      3
                      A                      A                      A
 Frequencies --   -469.9798              -159.8451               -78.5186
 Red. masses --      1.0817                 2.5727                 5.2513
 Frc consts  --      0.1408                 0.0387                 0.0191
 IR Inten    --    120.3803                60.6655                10.5095

                      4                      5                      6
                      A                      A                      A
 Frequencies --      7.7916                79.9658                93.5498
 Red. masses --      2.8687                 4.1859                 2.9915
 Frc consts  --      0.0001                 0.0158                 0.0154
 IR Inten    --      0.4821                 0.4032                 6.4732

                      7                      8                      9
                      A                      A                      A
 Frequencies --    143.7723               186.5550               212.8243
 Red. masses --      4.0894                 1.2871                 3.3523
 Frc consts  --      0.0498                 0.0264                 0.0895
 IR Inten    --     18.3345                 1.9280                 3.0084

                     10                     11                     12
                      A                      A                      A
 Frequencies --    290.6669               322.9122               416.5466
 Red. masses --      2.3445                 2.6837                 3.7818
 Frc consts  --      0.1167                 0.1649                 0.3866
 IR Inten    --     55.1238                27.1093                 3.1755

                     13                     14                     15
                      A                      A                      A
 Frequencies --    573.4332               623.0389               761.1408
 Red. masses --      4.1770                 5.2735                 3.4679
 Frc consts  --      0.8092                 1.2061                 1.1837
 IR Inten    --      2.5769                12.7276                84.7531

                     16                     17                     18
                      A                      A                      A
 Frequencies --    775.4155               812.9368               815.3184
 Red. masses --      1.5873                 1.5444                 1.2671
 Frc consts  --      0.5623                 0.6013                 0.4963
 IR Inten    --     44.8734                24.4048                 4.4888

                     19                     20                     21
                      A                      A                      A
 Frequencies --    898.5330               944.6688              1111.3993
 Red. masses --      3.3918                 2.5492                 4.1423
 Frc consts  --      1.6134                 1.3403                 3.0146
 IR Inten    --     20.5874                 6.2186                 6.8731

                     22                     23                     24
                      A                      A                      A
 Frequencies --   1157.7133              1227.4318              1329.1761
 Red. masses --      2.1065                 1.7605                 1.7981
 Frc consts  --      1.6635                 1.5627                 1.8717
 IR Inten    --     18.5845                 4.1049               290.2270

                     25                     26                     27
                      A                      A                      A
 Frequencies --   1373.4109              1442.7410              1454.7742
 Red. masses --      1.8749                 1.3932                 1.2703
 Frc consts  --      2.0837                 1.7087                 1.5840
 IR Inten    --    319.9672                46.6624                15.3365

                     28                     29                     30
                      A                      A                      A
 Frequencies --   1528.0643              1537.3728              1545.0325
 Red. masses --      1.0421                 1.0708                 1.0729
 Frc consts  --      1.4336                 1.4912                 1.5089
 IR Inten    --     14.3140                 4.3864                21.4109

                     31                     32                     33
                      A                      A                      A
 Frequencies --   1907.7439              2304.7382              3107.2257
 Red. masses --     12.2634                 5.6563                 1.0351
 Frc consts  --     26.2966                17.7021                 5.8879
 IR Inten    --    304.8240                60.6794                13.7589

                     34                     35                     36
                      A                      A                      A
 Frequencies --   3139.3880              3186.9537              3190.9704
 Red. masses --      1.0602                 1.1003                 1.1024
 Frc consts  --      6.1563                 6.5843                 6.6136
 IR Inten    --     17.8675                14.4321                 6.0133

                     37                     38                     39
                      A                      A                      A
 Frequencies --   3211.9882              3530.7061              3806.3252
 Red. masses --      1.1055                 1.1743                 1.0672
 Frc consts  --      6.7195                 8.6249                 9.1096
 IR Inten    --     17.6666                60.3881                11.3440

 - Thermochemistry -
 -------------------
 Temperature   298.150 Kelvin.  Pressure   1.00000 Atm.
 Atom     1 has atomic number  8 and mass  15.99491

 Molecular mass:   115.03952 amu.
 Principal axes and moments of inertia in atomic units:
                           1         2         3
     Eigenvalues --   471.106911555.155721648.94876
           X            0.99998  -0.00385   0.00556
           Y            0.00341   0.99708   0.07627
           Z           -0.00584  -0.07625   0.99707
 This molecule is an asymmetric top.
 Rotational symmetry number  1.
 Warning -- assumption of classical behavior for rotation
           may cause significant error
 Rotational temperatures (Kelvin)      0.18385     0.05569     0.05253
 Rotational constants (GHZ):           3.83085     1.16049     1.09448
    3 imaginary frequencies ignored.
 Zero-point vibrational energy     293397.5 (Joules/Mol)
                                   70.12368 (Kcal/Mol)
 Warning -- explicit consideration of  10 degrees of freedom as
           vibrations may cause significant error
 Vibrational temperatures:     11.21   115.05   134.60   206.86   268.41
          (Kelvin)            306.21   418.20   464.60   599.32   825.04
                              896.41  1095.11  1115.65  1169.63  1173.06
                             1292.79  1359.17  1599.06  1665.69  1766.00
                             1912.39  1976.03  2075.78  2093.10  2198.54
                             2211.94  2222.96  2744.82  3316.00  4470.60
                             4516.88  4585.32  4591.09  4621.33  5079.90
                             5476.45

 Zero-point correction=                           0.111749 (Hartree/Particle)
 Thermal correction to Energy=                    0.120775
 Thermal correction to Enthalpy=                  0.121719
 Thermal correction to Gibbs Free Energy=         0.074652
 Sum of electronic and zero-point Energies=           -419.847453
 Sum of electronic and thermal Energies=              -419.838427
 Sum of electronic and thermal Enthalpies=            -419.837483
 Sum of electronic and thermal Free Energies=         -419.884550

                     E (Thermal)             CV                S
                      KCal/Mol        Cal/Mol-Kelvin    Cal/Mol-Kelvin
 Total                   75.787             29.230             99.061
 Electronic               0.000              0.000              1.377
 Translational            0.889              2.981             40.136
 Rotational               0.889              2.981             28.581
 Vibrational             74.010             23.268             28.967
 Vibration     1          0.593              1.987              8.507
 Vibration     2          0.600              1.963              3.892
 Vibration     3          0.603              1.954              3.584
 Vibration     4          0.616              1.909              2.753
 Vibration     5          0.632              1.858              2.262
 Vibration     6          0.644              1.821              2.019
 Vibration     7          0.687              1.691              1.470
 Vibration     8          0.708              1.630              1.295
 Vibration     9          0.780              1.434              0.904
 Vibration    10          0.930              1.089              0.498

 Normal termination of Gaussian 16 at Fri Jun 20 14:36:05 2025.
