 Gaussian 16, Revision A.03,
 Gaussian 16:  ES64L-G16RevA.03 25-Dec-2016

 --------------------------
 # ccsd(t)/6-311++g(d,p) sp
 --------------------------

 -------------------
 Title Card Required
 -------------------
 Symbolic Z-matrix:
 Charge =  0 Multiplicity = 2

                         Standard orientation:
 ---------------------------------------------------------------------
 Center     Atomic      Atomic             Coordinates (Angstroms)
 Number     Number       Type             X           Y           Z
 ---------------------------------------------------------------------
      1          8           0        2.191826    1.402493   -0.024067
      2          1           0        2.828702    1.229747    0.688144
      3          6           0        2.456462   -1.193763   -0.540925
      4          1           0        3.341323   -1.674893   -0.887305
      5          6           0        1.475895   -0.600962   -0.166528
      6          6           0        0.158201   -0.196151    0.328066
      7          8           0       -0.175119   -0.322816    1.472675
      8          8           0       -0.593035    0.279631   -0.656629
      9          6           0       -1.924488    0.697323   -0.292579
     10          6           0       -2.861027   -0.490969   -0.192878
     11          1           0       -2.216065    1.374834   -1.092922
     12          1           0       -1.871587    1.246436    0.648101
     13          1           0       -3.874595   -0.140736    0.011934
     14          1           0       -2.871098   -1.047851   -1.131048
     15          1           0       -2.556314   -1.154861    0.616324
 ---------------------------------------------------------------------

 SCF Done:  E(UHF) =  -417.984708827     A.U. after   39 cycles
 E2 =    -0.1258362456D+01 EUMP2 =    -0.41924307128276D+03
 CCSD(T)= -0.41935421351D+03

 The electronic state is 2-A.
 Alpha  occ. eigenvalues --  -20.62656 -20.61041 -20.55566 -11.41417 -11.29500
 Alpha  occ. eigenvalues --  -11.26779 -11.25877 -11.22439  -1.48039  -1.38394
 Alpha  occ. eigenvalues --   -1.37683  -1.07800  -1.04215  -0.92558  -0.83757
 Alpha  occ. eigenvalues --   -0.76328  -0.73032  -0.69616  -0.67900  -0.66434
 Alpha  occ. eigenvalues --   -0.65097  -0.62914  -0.58154  -0.55464  -0.53948
 Alpha  occ. eigenvalues --   -0.53750  -0.50291  -0.47647  -0.45959  -0.42921
 Alpha  occ. eigenvalues --   -0.42132
 Alpha virt. eigenvalues --    0.03721   0.04548   0.05764   0.06604   0.07030
 Alpha virt. eigenvalues --    0.08272   0.09296   0.10280   0.11227   0.12395
 Alpha virt. eigenvalues --    0.13432   0.13804   0.14426   0.15057   0.16558

  Beta  occ. eigenvalues --  -20.61049 -20.58666 -20.55925 -11.41129 -11.29500
  Beta  occ. eigenvalues --  -11.27307 -11.25102 -11.22440  -1.48189  -1.38268
  Beta  occ. eigenvalues --   -1.23776  -1.07818  -1.03603  -0.91829  -0.83393
  Beta  occ. eigenvalues --   -0.76203  -0.72211  -0.69675  -0.66562  -0.63596
  Beta  occ. eigenvalues --   -0.62974  -0.58497  -0.55214  -0.53983  -0.50806
  Beta  occ. eigenvalues --   -0.49903  -0.48457  -0.46837  -0.43453  -0.42278
  Beta virt. eigenvalues --    0.03797   0.04553   0.04861   0.06518   0.06995
  Beta virt. eigenvalues --    0.08073   0.08953   0.09457   0.10734   0.11524
  Beta virt. eigenvalues --    0.13065   0.13596   0.14041   0.14794   0.15721

 Mulliken charges and spin densities:
               1          2
     1  O   -0.158551   0.949385
     2  H    0.241687  -0.034773
     3  C   -1.243962   0.761493
     4  H    0.204871  -0.059922
     5  C    1.344327  -0.748634
     6  C   -0.362763   0.204447
     7  O   -0.275736  -0.073896
     8  O   -0.026387   0.001240
     9  C   -0.152311   0.002123
    10  C   -0.379953  -0.001854
    11  H    0.171801   0.000157
    12  H    0.181179   0.000015
    13  H    0.130084  -0.000000
    14  H    0.145006   0.000109
    15  H    0.180710   0.000109
 Sum of Mulliken charges =  -0.00000   1.00000

 Dipole moment (field-independent basis, Debye):
    X=              0.5980    Y=             -0.2407    Z=             -0.7798  Tot=              1.0118
 Quadrupole moment (field-independent basis, Debye-Ang):
   XX=            -31.2142   YY=            -46.1824   ZZ=            -52.5478
   XY=             -4.4834   XZ=              2.6480   YZ=              4.1689

 204\PMP3-0=-419.2808123\MP4SDQ=-419.2977392\CCSD=-419.3009461\CCSD(T)=
 Normal termination of Gaussian 16 at Sat Aug 30 00:34:39 2025.
