 Gaussian 16, Revision A.03,
 Gaussian 16:  ES64L-G16RevA.03 25-Dec-2016

 --------------------------
 # ccsd(t)/6-311++g(d,p) sp
 --------------------------

 -------------------
 Title Card Required
 -------------------
 Symbolic Z-matrix:
 Charge =  0 Multiplicity = 2

                         Standard orientation:
 ---------------------------------------------------------------------
 Center     Atomic      Atomic             Coordinates (Angstroms)
 Number     Number       Type             X           Y           Z
 ---------------------------------------------------------------------
      1          8           0        2.140278    1.303931    0.008952
      2          1           0        2.796983    1.187654    0.709714
      3          6           0        2.448378   -1.167545   -0.575749
      4          1           0        3.323243   -1.653944   -0.942476
      5          6           0        1.552063   -0.410765   -0.165316
      6          6           0        0.164377   -0.192294    0.323362
      7          8           0       -0.170226   -0.379483    1.457738
      8          8           0       -0.594409    0.293864   -0.647801
      9          6           0       -1.929383    0.691946   -0.270584
     10          6           0       -2.858105   -0.503972   -0.208335
     11          1           0       -2.224358    1.393307   -1.048749
     12          1           0       -1.877181    1.211057    0.687065
     13          1           0       -3.873764   -0.166892    0.007763
     14          1           0       -2.865449   -1.030630   -1.163853
     15          1           0       -2.548594   -1.191267    0.579160
 ---------------------------------------------------------------------

 SCF Done:  E(UHF) =  -417.977503004     A.U. after   30 cycles
 E2 =    -0.1258746550D+01 EUMP2 =    -0.41923624955367D+03
 CCSD(T)= -0.41935860513D+03

 The electronic state is 2-A.
 Alpha  occ. eigenvalues --  -20.61133 -20.60847 -20.55657 -11.41268 -11.29562
 Alpha  occ. eigenvalues --  -11.28567 -11.27866 -11.22492  -1.48170  -1.37831
 Alpha  occ. eigenvalues --   -1.36561  -1.08409  -1.04535  -0.92596  -0.84081
 Alpha  occ. eigenvalues --   -0.76609  -0.73198  -0.69753  -0.67728  -0.65319
 Alpha  occ. eigenvalues --   -0.63424  -0.62302  -0.58189  -0.54599  -0.53764
 Alpha  occ. eigenvalues --   -0.52957  -0.50295  -0.47763  -0.46038  -0.43657
 Alpha  occ. eigenvalues --   -0.42076
 Alpha virt. eigenvalues --    0.03692   0.04521   0.05802   0.06633   0.07015
 Alpha virt. eigenvalues --    0.08233   0.09242   0.11191   0.11367   0.12625
 Alpha virt. eigenvalues --    0.13382   0.13652   0.14416   0.14752   0.16854

  Beta  occ. eigenvalues --  -20.61140 -20.57779 -20.56007 -11.40898 -11.30797
  Beta  occ. eigenvalues --  -11.29564 -11.25095 -11.22492  -1.48303  -1.38382
  Beta  occ. eigenvalues --   -1.26570  -1.07576  -1.03415  -0.91264  -0.83005
  Beta  occ. eigenvalues --   -0.76230  -0.71806  -0.69926  -0.66628  -0.64106
  Beta  occ. eigenvalues --   -0.63002  -0.58700  -0.55099  -0.53968  -0.51052
  Beta  occ. eigenvalues --   -0.49562  -0.48555  -0.46946  -0.46262  -0.42303
  Beta virt. eigenvalues --    0.03813   0.04292   0.04555   0.06472   0.06943
  Beta virt. eigenvalues --    0.07572   0.08570   0.09291   0.10577   0.12556
  Beta virt. eigenvalues --    0.13142   0.13661   0.14050   0.14766   0.16288

 Mulliken charges and spin densities:
               1          2
     1  O   -0.206464   0.702566
     2  H    0.255527  -0.024308
     3  C   -0.065215   1.426315
     4  H    0.234814  -0.103297
     5  C    0.194218  -1.134509
     6  C   -0.341219   0.200041
     7  O   -0.292132  -0.070643
     8  O   -0.042140   0.002609
     9  C   -0.155694   0.002667
    10  C   -0.391673  -0.002159
    11  H    0.170446   0.000179
    12  H    0.182982   0.000019
    13  H    0.129547   0.000113
    14  H    0.144110   0.000042
    15  H    0.182892   0.000363
 Sum of Mulliken charges =  -0.00000   1.00000

 Dipole moment (field-independent basis, Debye):
    X=              0.4254    Y=             -0.7931    Z=             -0.9301  Tot=              1.2942
 Quadrupole moment (field-independent basis, Debye-Ang):
   XX=            -32.0340   YY=            -46.8610   ZZ=            -52.2080
   XY=             -5.6903   XZ=              2.2202   YZ=              4.3625

 \PMP3-0=-419.2858914\MP4SDQ=-419.2949498\CCSD=-419.3034812\CCSD(T)=-41
 Normal termination of Gaussian 16 at Fri Aug 29 16:46:58 2025.
