 Gaussian 16, Revision A.03,
 Gaussian 16:  ES64L-G16RevA.03 25-Dec-2016

 --------------------------
 # freq 6-311++g(d,p) m062x
 --------------------------

 -------------------
 Title Card Required
 -------------------
 Symbolic Z-matrix:
 Charge =  0 Multiplicity = 2

                         Standard orientation:
 ---------------------------------------------------------------------
 Center     Atomic      Atomic             Coordinates (Angstroms)
 Number     Number       Type             X           Y           Z
 ---------------------------------------------------------------------
      1          8           0        2.179857    1.379640   -0.016816
      2          1           0        2.823672    1.222752    0.692173
      3          6           0        2.454872   -1.185476   -0.548152
      4          1           0        3.333139   -1.675501   -0.899303
      5          6           0        1.492515   -0.560016   -0.167252
      6          6           0        0.160552   -0.192560    0.327362
      7          8           0       -0.173705   -0.335922    1.469300
      8          8           0       -0.593336    0.282732   -0.654792
      9          6           0       -1.925698    0.695653   -0.287721
     10          6           0       -2.860445   -0.494359   -0.195908
     11          1           0       -2.218188    1.378356   -1.083306
     12          1           0       -1.872920    1.238368    0.656696
     13          1           0       -3.874459   -0.146936    0.011469
     14          1           0       -2.870034   -1.044806   -1.137881
     15          1           0       -2.554504   -1.163289    0.608642
 ---------------------------------------------------------------------

 SCF Done:  E(UM062X) =  -420.202313674     A.U. after   24 cycles

 The electronic state is 2-A.
 Alpha  occ. eigenvalues --  -19.68156 -19.66154 -19.63018 -10.70626 -10.60445
 Alpha  occ. eigenvalues --  -10.58874 -10.58213 -10.53720  -1.25668  -1.16348
 Alpha  occ. eigenvalues --   -1.12197  -0.90973  -0.87528  -0.78159  -0.70789
 Alpha  occ. eigenvalues --   -0.64545  -0.61978  -0.58533  -0.56755  -0.54396
 Alpha  occ. eigenvalues --   -0.53449  -0.50483  -0.48307  -0.46291  -0.45251
 Alpha  occ. eigenvalues --   -0.42075  -0.41185  -0.39707  -0.38346  -0.36614
 Alpha  occ. eigenvalues --   -0.34519
 Alpha virt. eigenvalues --   -0.00721  -0.00296   0.00522   0.01537   0.02345
 Alpha virt. eigenvalues --    0.02762   0.03402   0.04110   0.05501   0.06639
 Alpha virt. eigenvalues --    0.07273   0.07796   0.08151   0.09106   0.10383

  Beta  occ. eigenvalues --  -19.68161 -19.64699 -19.63037 -10.70603 -10.60445
  Beta  occ. eigenvalues --  -10.58913 -10.58007 -10.53720  -1.25674  -1.16387
  Beta  occ. eigenvalues --   -1.05977  -0.90465  -0.87097  -0.77951  -0.70567
  Beta  occ. eigenvalues --   -0.64456  -0.61535  -0.58440  -0.56489  -0.53593
  Beta  occ. eigenvalues --   -0.51713  -0.49216  -0.46630  -0.45247  -0.42044
  Beta  occ. eigenvalues --   -0.39557  -0.39208  -0.38369  -0.37888  -0.35936
  Beta virt. eigenvalues --   -0.09439  -0.00244   0.00161   0.00820   0.01856
  Beta virt. eigenvalues --    0.02441   0.02803   0.03403   0.04188   0.05531
  Beta virt. eigenvalues --    0.06518   0.07393   0.07839   0.08190   0.09184

 Mulliken charges and spin densities:
               1          2
     1  O   -0.223619   0.813277
     2  H    0.236525  -0.017842
     3  C   -0.632410   0.307011
     4  H    0.196245  -0.014697
     5  C    0.675727  -0.138871
     6  C   -0.346586   0.058382
     7  O   -0.201136  -0.008746
     8  O    0.055705   0.000317
     9  C   -0.260544   0.001912
    10  C   -0.418450  -0.000723
    11  H    0.201594   0.000244
    12  H    0.197827  -0.000727
    13  H    0.161514   0.000302
    14  H    0.165503  -0.000015
    15  H    0.192106   0.000176
 Sum of Mulliken charges =  -0.00000   1.00000

 Dipole moment (field-independent basis, Debye):
    X=              0.1791    Y=             -0.8900    Z=             -0.7833  Tot=              1.1991
 Quadrupole moment (field-independent basis, Debye-Ang):
   XX=            -32.0476   YY=            -46.6113   ZZ=            -51.8589
   XY=             -5.9527   XZ=              2.2431   YZ=              4.0661

  Exact polarizability:  86.420  -5.717  76.953  -3.577   4.895  60.434
 Approx polarizability:  87.742 -12.419  84.563  -7.434   4.288  78.554

 ******    2 imaginary frequencies (negative Signs) ******

                      1                      2                      3
                      A                      A                      A
 Frequencies --   -392.5230               -22.6781                60.5109
 Red. masses --     11.8891                 4.7637                 3.8452
 Frc consts  --      1.0793                 0.0014                 0.0083
 IR Inten    --     51.9978                 7.8696                 2.2677

                      4                      5                      6
                      A                      A                      A
 Frequencies --    113.1922               129.7689               162.4621
 Red. masses --      4.1123                 4.9485                 2.4871
 Frc consts  --      0.0310                 0.0491                 0.0387
 IR Inten    --      0.9034                17.7832                13.2078

                      7                      8                      9
                      A                      A                      A
 Frequencies --    195.8971               229.9933               255.8839
 Red. masses --      1.3874                 1.3201                 2.7529
 Frc consts  --      0.0314                 0.0411                 0.1062
 IR Inten    --     45.2129                 1.5946                12.8866

                     10                     11                     12
                      A                      A                      A
 Frequencies --    338.1495               417.3907               562.4686
 Red. masses --      2.8889                 3.7748                 3.6486
 Frc consts  --      0.1946                 0.3875                 0.6801
 IR Inten    --     12.0101                 0.4600                 7.3654

                     13                     14                     15
                      A                      A                      A
 Frequencies --    607.2297               698.0564               701.6573
 Red. masses --      6.4202                 1.1382                 1.3057
 Frc consts  --      1.3948                 0.3268                 0.3787
 IR Inten    --     11.7663                94.9197                16.7414

                     16                     17                     18
                      A                      A                      A
 Frequencies --    733.6810               772.1909               799.8194
 Red. masses --      1.3284                 9.0013                 1.1891
 Frc consts  --      0.4213                 3.1623                 0.4482
 IR Inten    --     23.8923                60.5766                 4.9274

                     19                     20                     21
                      A                      A                      A
 Frequencies --    895.8258               927.6861              1077.7725
 Red. masses --      3.1478                 2.8740                 4.1130
 Frc consts  --      1.4883                 1.4573                 2.8149
 IR Inten    --     15.4951                 7.3083                20.3069

                     22                     23                     24
                      A                      A                      A
 Frequencies --   1127.8623              1202.9582              1290.7208
 Red. masses --      2.0937                 1.7733                 3.6244
 Frc consts  --      1.5692                 1.5119                 3.5575
 IR Inten    --     20.2120                 6.0655               572.6939

                     25                     26                     27
                      A                      A                      A
 Frequencies --   1348.6506              1400.6967              1430.7727
 Red. masses --      1.2516                 1.2839                 1.3905
 Frc consts  --      1.3413                 1.4842                 1.6772
 IR Inten    --    107.3415                34.5098                 7.0280

                     28                     29                     30
                      A                      A                      A
 Frequencies --   1492.1030              1502.7758              1514.9950
 Red. masses --      1.0408                 1.0606                 1.0855
 Frc consts  --      1.3653                 1.4113                 1.4679
 IR Inten    --     10.5202                 1.5221                15.8898

                     31                     32                     33
                      A                      A                      A
 Frequencies --   1844.9715              2174.6304              3075.2710
 Red. masses --     11.9557                 6.1236                 1.0354
 Frc consts  --     23.9776                17.0621                 5.7693
 IR Inten    --    336.0040                82.8671                10.6857

                     34                     35                     36
                      A                      A                      A
 Frequencies --   3108.1762              3150.1673              3155.1504
 Red. masses --      1.0609                 1.1014                 1.1048
 Frc consts  --      6.0386                 6.4394                 6.4798
 IR Inten    --     15.1881                14.8026                 1.9850

                     37                     38                     39
                      A                      A                      A
 Frequencies --   3175.9308              3480.7327              3810.5031
 Red. masses --      1.1073                 1.1568                 1.0674
 Frc consts  --      6.5807                 8.2578                 9.1317
 IR Inten    --     14.8671                68.2637                46.4019

 - Thermochemistry -
 -------------------
 Temperature   298.150 Kelvin.  Pressure   1.00000 Atm.
 Atom     1 has atomic number  8 and mass  15.99491

 Molecular mass:   115.03952 amu.
 Principal axes and moments of inertia in atomic units:
                           1         2         3
     Eigenvalues --   450.903661549.459891625.88523
           X            0.99998  -0.00363   0.00532
           Y            0.00308   0.99499   0.09995
           Z           -0.00566  -0.09993   0.99498
 This molecule is an asymmetric top.
 Rotational symmetry number  1.
 Warning -- assumption of classical behavior for rotation
           may cause significant error
 Rotational temperatures (Kelvin)      0.19209     0.05590     0.05327
 Rotational constants (GHZ):           4.00250     1.16476     1.11001
    2 imaginary frequencies ignored.
 Zero-point vibrational energy     292885.9 (Joules/Mol)
                                   70.00142 (Kcal/Mol)
 Warning -- explicit consideration of  11 degrees of freedom as
           vibrations may cause significant error
 Vibrational temperatures:     87.06   162.86   186.71   233.75   281.85
          (Kelvin)            330.91   368.16   486.52   600.53   809.27
                              873.67  1004.35  1009.53  1055.60  1111.01
                             1150.76  1288.89  1334.73  1550.67  1622.74
                             1730.79  1857.06  1940.41  2015.29  2058.56
                             2146.80  2162.16  2179.74  2654.50  3128.81
                             4424.63  4471.97  4532.39  4539.56  4569.46
                             5008.00  5482.46

 Zero-point correction=                           0.111554 (Hartree/Particle)
 Thermal correction to Energy=                    0.120488
 Thermal correction to Enthalpy=                  0.121432
 Thermal correction to Gibbs Free Energy=         0.076841
 Sum of electronic and zero-point Energies=           -420.090759
 Sum of electronic and thermal Energies=              -420.081826
 Sum of electronic and thermal Enthalpies=            -420.080882
 Sum of electronic and thermal Free Energies=         -420.125473

                     E (Thermal)             CV                S
                      KCal/Mol        Cal/Mol-Kelvin    Cal/Mol-Kelvin
 Total                   75.607             30.472             93.850
 Electronic               0.000              0.000              1.377
 Translational            0.889              2.981             40.136
 Rotational               0.889              2.981             28.520
 Vibrational             73.830             24.510             23.816
 Vibration     1          0.597              1.973              4.440
 Vibration     2          0.607              1.939              3.213
 Vibration     3          0.612              1.924              2.949
 Vibration     4          0.623              1.888              2.521
 Vibration     5          0.636              1.846              2.171
 Vibration     6          0.652              1.795              1.879
 Vibration     7          0.666              1.753              1.690
 Vibration     8          0.718              1.599              1.221
 Vibration     9          0.780              1.432              0.901
 Vibration    10          0.918              1.112              0.519
 Vibration    11          0.966              1.016              0.437

 1\1\GINC-AJ\Freq\UM062X\6-311++G(d,p)\C5H7O3(2)\AAYUSH\16-Aug-2025\0\\
 # freq 6-311++g(d,p) m062x\\Title Card Required\\0,2\O,2.115341,1.3815
 66,-0.017366\H,2.75944,1.220854,0.690508\C,2.394405,-1.179414,-0.56625
 2\H,3.273432,-1.665628,-0.920782\C,1.431075,-0.558106,-0.181043\C,0.09
 8554,-0.19616,0.316126\O,-0.235417,-0.347863,1.45707\O,-0.656138,0.284
 642,-0.662723\C,-1.989136,0.692923,-0.292782\C,-2.921986,-0.499174,-0.
 209077\H,-2.28275,1.380588,-1.083666\H,-1.937173,1.229247,0.655324\H,-
 3.93654,-0.15479,0.000712\H,-2.930747,-1.043177,-1.154794\H,-2.614941,

 Normal termination of Gaussian 16 at Sat Aug 16 18:19:31 2025.
