 Gaussian 16, Revision A.03,
 Gaussian 16:  ES64L-G16RevA.03 25-Dec-2016

 -------------------
 # freq 6-31+g m062x
 -------------------

 -------------------
 Title Card Required
 -------------------
 Symbolic Z-matrix:
 Charge =  0 Multiplicity = 2

                         Standard orientation:
 ---------------------------------------------------------------------
 Center     Atomic      Atomic             Coordinates (Angstroms)
 Number     Number       Type             X           Y           Z
 ---------------------------------------------------------------------
      1          8           0        2.173960    1.368531   -0.013238
      2          1           0        2.820409    1.218509    0.694355
      3          6           0        2.454127   -1.181970   -0.551795
      4          1           0        3.330027   -1.674775   -0.905250
      5          6           0        1.500995   -0.539111   -0.167390
      6          6           0        0.161328   -0.191551    0.326953
      7          8           0       -0.173078   -0.342181    1.467678
      8          8           0       -0.593471    0.284200   -0.653867
      9          6           0       -1.926279    0.694919   -0.285352
     10          6           0       -2.860112   -0.495977   -0.197500
     11          1           0       -2.219154    1.380160   -1.078597
     12          1           0       -1.873556    1.234466    0.660883
     13          1           0       -3.874363   -0.150000    0.011111
     14          1           0       -2.869405   -1.043228   -1.141340
     15          1           0       -2.553602   -1.167391    0.604757
 ---------------------------------------------------------------------

 SCF Done:  E(UM062X) =  -419.953311064     A.U. after   24 cycles

 The electronic state is 2-A.
 Alpha  occ. eigenvalues --  -19.70518 -19.68516 -19.66231 -10.73040 -10.61439
 Alpha  occ. eigenvalues --  -10.60936 -10.60026 -10.54552  -1.28061  -1.18691
 Alpha  occ. eigenvalues --   -1.13216  -0.91822  -0.88284  -0.78671  -0.71436
 Alpha  occ. eigenvalues --   -0.64732  -0.62475  -0.58626  -0.57077  -0.54338
 Alpha  occ. eigenvalues --   -0.53605  -0.50460  -0.48304  -0.46600  -0.45252
 Alpha  occ. eigenvalues --   -0.42088  -0.40978  -0.39763  -0.38120  -0.36938
 Alpha  occ. eigenvalues --   -0.34305
 Alpha virt. eigenvalues --   -0.00848   0.01921   0.02561   0.03484   0.03803
 Alpha virt. eigenvalues --    0.04451   0.05313   0.05818   0.07800   0.08017
 Alpha virt. eigenvalues --    0.08381   0.08981   0.09594   0.11524   0.12219

  Beta  occ. eigenvalues --  -19.70522 -19.67038 -19.66253 -10.73009 -10.61439
  Beta  occ. eigenvalues --  -10.60999 -10.59780 -10.54552  -1.28067  -1.18724
  Beta  occ. eigenvalues --   -1.07446  -0.91296  -0.87904  -0.78485  -0.71219
  Beta  occ. eigenvalues --   -0.64636  -0.61954  -0.58458  -0.56908  -0.54026
  Beta  occ. eigenvalues --   -0.51420  -0.49259  -0.46881  -0.45245  -0.42077
  Beta  occ. eigenvalues --   -0.39638  -0.39479  -0.38205  -0.37864  -0.36078
  Beta virt. eigenvalues --   -0.09670   0.00226   0.01970   0.02641   0.03446
  Beta virt. eigenvalues --    0.03893   0.04517   0.05333   0.05891   0.07835
  Beta virt. eigenvalues --    0.08139   0.08368   0.09049   0.09648   0.11493

 Mulliken charges and spin densities:
               1          2
     1  O   -0.433965   0.794526
     2  H    0.404246  -0.028478
     3  C    0.106063   0.362560
     4  H    0.317826  -0.014180
     5  C   -0.530934  -0.161667
     6  C    0.334659   0.057547
     7  O   -0.344690  -0.009650
     8  O   -0.186001  -0.000572
     9  C   -0.210680   0.000083
    10  C   -0.575549  -0.000026
    11  H    0.223065  -0.000093
    12  H    0.234985  -0.000099
    13  H    0.207301   0.000078
    14  H    0.219299  -0.000021
    15  H    0.234372  -0.000009
 Sum of Mulliken charges =  -0.00000   1.00000

 Dipole moment (field-independent basis, Debye):
    X=              0.2741    Y=             -1.0526    Z=             -0.5598  Tot=              1.2233
 Quadrupole moment (field-independent basis, Debye-Ang):
   XX=            -31.3998   YY=            -47.1394   ZZ=            -53.0538
   XY=             -6.2088   XZ=              2.6632   YZ=              4.5510

  Exact polarizability:  81.405  -6.304  74.181  -3.190   4.792  58.248
 Approx polarizability:  79.962 -13.974  77.752  -7.655   3.969  73.581

 ******    4 imaginary frequencies (negative Signs) ******

                      1                      2                      3
                      A                      A                      A
 Frequencies --   -472.6079              -441.2840              -106.4122
 Red. masses --      1.2035                 5.4022                 7.1987
 Frc consts  --      0.1584                 0.6198                 0.0480
 IR Inten    --    101.2725                52.7306                11.0046

                      4                      5                      6
                      A                      A                      A
 Frequencies --    -52.3908                28.1195                94.2409
 Red. masses --      4.5093                 2.6430                 3.1896
 Frc consts  --      0.0073                 0.0012                 0.0167
 IR Inten    --      6.5647                 0.3013                 5.6679

                      7                      8                      9
                      A                      A                      A
 Frequencies --    134.7003               186.3972               216.8332
 Red. masses --      5.6774                 1.2682                 4.8263
 Frc consts  --      0.0607                 0.0260                 0.1337
 IR Inten    --      0.5359                 2.0724                 0.0968

                     10                     11                     12
                      A                      A                      A
 Frequencies --    311.1740               404.3456               514.9027
 Red. masses --      2.9102                 3.4773                 1.3687
 Frc consts  --      0.1660                 0.3350                 0.2138
 IR Inten    --     17.4934                 0.7532                92.3614

                     13                     14                     15
                      A                      A                      A
 Frequencies --    593.4446               620.4796               678.6878
 Red. masses --      2.9651                 3.9011                 1.4938
 Frc consts  --      0.6152                 0.8849                 0.4054
 IR Inten    --     27.0470                12.5882                15.2380

                     16                     17                     18
                      A                      A                      A
 Frequencies --    725.8641               757.0631               814.9711
 Red. masses --      5.1102                 1.3745                 1.2613
 Frc consts  --      1.5863                 0.4641                 0.4936
 IR Inten    --     83.1689                49.0570                 6.9151

                     19                     20                     21
                      A                      A                      A
 Frequencies --    897.2389               942.9850              1112.7428
 Red. masses --      3.4093                 2.5701                 4.1318
 Frc consts  --      1.6171                 1.3465                 3.0143
 IR Inten    --     22.6074                 6.9397                 5.4628

                     22                     23                     24
                      A                      A                      A
 Frequencies --   1157.7802              1227.4050              1327.3563
 Red. masses --      2.0887                 1.7526                 1.9254
 Frc consts  --      1.6496                 1.5557                 1.9987
 IR Inten    --     18.0940                 5.0845               325.0413

                     25                     26                     27
                      A                      A                      A
 Frequencies --   1373.4486              1443.6376              1455.5300
 Red. masses --      1.7777                 1.3698                 1.2770
 Frc consts  --      1.9758                 1.6820                 1.5939
 IR Inten    --    297.3872                42.3894                13.5481

                     28                     29                     30
                      A                      A                      A
 Frequencies --   1527.8794              1537.5023              1545.5126
 Red. masses --      1.0420                 1.0685                 1.0747
 Frc consts  --      1.4331                 1.4881                 1.5125
 IR Inten    --     14.3522                 2.8337                20.4134

                     31                     32                     33
                      A                      A                      A
 Frequencies --   1911.9461              2216.1579              3107.3193
 Red. masses --     12.1999                 6.0137                 1.0351
 Frc consts  --     26.2758                17.4017                 5.8887
 IR Inten    --    312.2508                85.9669                13.7635

                     34                     35                     36
                      A                      A                      A
 Frequencies --   3138.8761              3186.7270              3191.3376
 Red. masses --      1.0602                 1.1000                 1.1027
 Frc consts  --      6.1546                 6.5817                 6.6167
 IR Inten    --     16.3395                15.0933                 4.7853

                     37                     38                     39
                      A                      A                      A
 Frequencies --   3212.4226              3521.6430              3826.4410
 Red. masses --      1.1053                 1.1606                 1.0673
 Frc consts  --      6.7206                 8.4803                 9.2070
 IR Inten    --     17.4868                62.2411                17.9956

 - Thermochemistry -
 -------------------
 Temperature   298.150 Kelvin.  Pressure   1.00000 Atm.
 Atom     1 has atomic number  8 and mass  15.99491

 Molecular mass:   115.03952 amu.
 Principal axes and moments of inertia in atomic units:
                           1         2         3
     Eigenvalues --   447.908491548.578781622.43805
           X            0.99998  -0.00361   0.00528
           Y            0.00304   0.99453   0.10445
           Z           -0.00563  -0.10443   0.99452
 This molecule is an asymmetric top.
 Rotational symmetry number  1.
 Warning -- assumption of classical behavior for rotation
           may cause significant error
 Rotational temperatures (Kelvin)      0.19337     0.05593     0.05339
 Rotational constants (GHZ):           4.02926     1.16542     1.11236
    4 imaginary frequencies ignored.
 Zero-point vibrational energy     292744.8 (Joules/Mol)
                                   69.96769 (Kcal/Mol)
 Warning -- explicit consideration of  10 degrees of freedom as
           vibrations may cause significant error
 Vibrational temperatures:     40.46   135.59   193.80   268.18   311.97
          (Kelvin)            447.71   581.76   740.83   853.83   892.73
                              976.48  1044.36  1089.24  1172.56  1290.93
                             1356.75  1600.99  1665.79  1765.96  1909.77
                             1976.09  2077.07  2094.18  2198.28  2212.12
                             2223.65  2750.86  3188.56  4470.74  4516.14
                             4584.99  4591.62  4621.96  5066.86  5505.40

 Zero-point correction=                           0.111501 (Hartree/Particle)
 Thermal correction to Energy=                    0.119579
 Thermal correction to Enthalpy=                  0.120523
 Thermal correction to Gibbs Free Energy=         0.076792
 Sum of electronic and zero-point Energies=           -419.841810
 Sum of electronic and thermal Energies=              -419.833732
 Sum of electronic and thermal Enthalpies=            -419.832788
 Sum of electronic and thermal Free Energies=         -419.876520

                     E (Thermal)             CV                S
                      KCal/Mol        Cal/Mol-Kelvin    Cal/Mol-Kelvin
 Total                   75.037             27.146             92.040
 Electronic               0.000              0.000              1.377
 Translational            0.889              2.981             40.136
 Rotational               0.889              2.981             28.511
 Vibrational             73.259             21.184             22.016
 Vibration     1          0.593              1.984              5.958
 Vibration     2          0.603              1.953              3.570
 Vibration     3          0.613              1.919              2.878
 Vibration     4          0.632              1.858              2.263
 Vibration     5          0.646              1.815              1.985
 Vibration     6          0.700              1.652              1.356
 Vibration     7          0.770              1.461              0.947
 Vibration     8          0.870              1.217              0.622
 Vibration     9          0.951              1.046              0.461
 Vibration    10          0.981              0.989              0.416

 Normal termination of Gaussian 16 at Fri Jun 20 14:39:20 2025.
