 Gaussian 16, Revision A.03,
 Gaussian 16:  ES64L-G16RevA.03 25-Dec-2016

 --------------------------
 # ccsd(t)/6-311++g(d,p) sp
 --------------------------

 -------------------
 Title Card Required
 -------------------
 Symbolic Z-matrix:
 Charge =  0 Multiplicity = 2

                         Standard orientation:
 ---------------------------------------------------------------------
 Center     Atomic      Atomic             Coordinates (Angstroms)
 Number     Number       Type             X           Y           Z
 ---------------------------------------------------------------------
      1          8           0        2.151129    1.325388    0.001102
      2          1           0        2.804836    1.198464    0.704298
      3          6           0        2.450868   -1.171372   -0.567094
      4          1           0        3.322997   -1.665275   -0.929511
      5          6           0        1.535182   -0.453825   -0.166453
      6          6           0        0.163312   -0.190921    0.324859
      7          8           0       -0.171023   -0.366590    1.461246
      8          8           0       -0.594052    0.290239   -0.650003
      9          6           0       -1.928444    0.692583   -0.275821
     10          6           0       -2.858715   -0.501773   -0.204412
     11          1           0       -2.222696    1.388182   -1.059422
     12          1           0       -1.876013    1.219055    0.677767
     13          1           0       -3.873930   -0.161687    0.009066
     14          1           0       -2.866705   -1.035796   -1.155824
     15          1           0       -2.550144   -1.183379    0.588390
 ---------------------------------------------------------------------

 SCF Done:  E(UHF) =  -417.976853169     A.U. after   32 cycles
 E2 =    -0.1256352697D+01 EUMP2 =    -0.41923320586508D+03
 CCSD(T)= -0.41935503149D+03

 The electronic state is 2-A.
 Alpha  occ. eigenvalues --  -20.61451 -20.61083 -20.55573 -11.41301 -11.29537
 Alpha  occ. eigenvalues --  -11.27658 -11.27342 -11.22465  -1.48120  -1.37777
 Alpha  occ. eigenvalues --   -1.37201  -1.08187  -1.04458  -0.92561  -0.83945
 Alpha  occ. eigenvalues --   -0.76513  -0.73149  -0.69709  -0.67791  -0.65494
 Alpha  occ. eigenvalues --   -0.63924  -0.62694  -0.58169  -0.54761  -0.53807
 Alpha  occ. eigenvalues --   -0.53288  -0.50294  -0.47648  -0.45961  -0.43438
 Alpha  occ. eigenvalues --   -0.42140
 Alpha virt. eigenvalues --    0.03704   0.04531   0.05784   0.06623   0.07022
 Alpha virt. eigenvalues --    0.08240   0.09251   0.11039   0.11381   0.12547
 Alpha virt. eigenvalues --    0.13403   0.13696   0.14434   0.14826   0.16872

  Beta  occ. eigenvalues --  -20.61091 -20.58027 -20.55956 -11.40929 -11.29646
  Beta  occ. eigenvalues --  -11.29539 -11.24947 -11.22466  -1.48269  -1.38365
  Beta  occ. eigenvalues --   -1.25613  -1.07689  -1.03474  -0.91371  -0.83073
  Beta  occ. eigenvalues --   -0.76204  -0.71873  -0.69853  -0.66596  -0.63961
  Beta  occ. eigenvalues --   -0.62972  -0.58651  -0.55132  -0.53967  -0.50947
  Beta  occ. eigenvalues --   -0.49637  -0.48508  -0.46941  -0.45335  -0.42316
  Beta virt. eigenvalues --    0.03813   0.04424   0.04576   0.06490   0.06965
  Beta virt. eigenvalues --    0.07719   0.08642   0.09320   0.10678   0.12364
  Beta virt. eigenvalues --    0.13118   0.13672   0.14073   0.14796   0.16138

 Mulliken charges and spin densities:
               1          2
     1  O   -0.181860   0.794166
     2  H    0.252149  -0.027956
     3  C   -0.234748   1.289509
     4  H    0.226830  -0.096096
     5  C    0.389686  -1.091126
     6  C   -0.388427   0.205982
     7  O   -0.289358  -0.078099
     8  O   -0.039484   0.002205
     9  C   -0.156109   0.002944
    10  C   -0.387898  -0.002247
    11  H    0.170774   0.000202
    12  H    0.182146   0.000005
    13  H    0.129351   0.000106
    14  H    0.144212   0.000047
    15  H    0.182737   0.000358
 Sum of Mulliken charges =  -0.00000   1.00000

 Dipole moment (field-independent basis, Debye):
    X=              0.4791    Y=             -0.6089    Z=             -0.8889  Tot=              1.1791
 Quadrupole moment (field-independent basis, Debye-Ang):
   XX=            -31.8294   YY=            -46.5500   ZZ=            -52.2966
   XY=             -5.2872   XZ=              2.3374   YZ=              4.3323

 Normal termination of Gaussian 16 at Fri Aug 29 18:24:05 2025.
