 Gaussian 16, Revision A.03,
 Gaussian 16:  ES64L-G16RevA.03 25-Dec-2016

 --------------------------
 # freq 6-311++g(d,p) m062x
 --------------------------

 -------------------
 Title Card Required
 -------------------
 Symbolic Z-matrix:
 Charge =  0 Multiplicity = 2

                         Standard orientation:
 ---------------------------------------------------------------------
 Center     Atomic      Atomic             Coordinates (Angstroms)
 Number     Number       Type             X           Y           Z
 ---------------------------------------------------------------------
      1          8           0        2.191826    1.402493   -0.024067
      2          1           0        2.828702    1.229747    0.688144
      3          6           0        2.456462   -1.193763   -0.540925
      4          1           0        3.341323   -1.674893   -0.887305
      5          6           0        1.475895   -0.600962   -0.166528
      6          6           0        0.158201   -0.196151    0.328066
      7          8           0       -0.175119   -0.322816    1.472675
      8          8           0       -0.593035    0.279631   -0.656629
      9          6           0       -1.924488    0.697323   -0.292579
     10          6           0       -2.861027   -0.490969   -0.192878
     11          1           0       -2.216065    1.374834   -1.092922
     12          1           0       -1.871587    1.246436    0.648101
     13          1           0       -3.874595   -0.140736    0.011934
     14          1           0       -2.871098   -1.047851   -1.131048
     15          1           0       -2.556314   -1.154861    0.616324
 ---------------------------------------------------------------------

 SCF Done:  E(UM062X) =  -420.203667489     A.U. after   25 cycles

 The electronic state is 2-A.
 Alpha  occ. eigenvalues --  -19.68105 -19.66690 -19.62963 -10.70577 -10.60412
 Alpha  occ. eigenvalues --  -10.58310 -10.57859 -10.53699  -1.25602  -1.16285
 Alpha  occ. eigenvalues --   -1.12646  -0.90797  -0.87393  -0.78107  -0.70683
 Alpha  occ. eigenvalues --   -0.64457  -0.61801  -0.58491  -0.56685  -0.54631
 Alpha  occ. eigenvalues --   -0.53479  -0.50581  -0.48370  -0.46335  -0.45233
 Alpha  occ. eigenvalues --   -0.42171  -0.41488  -0.39617  -0.38302  -0.36516
 Alpha  occ. eigenvalues --   -0.35071
 Alpha virt. eigenvalues --   -0.00816  -0.00324   0.00527   0.01538   0.02351
 Alpha virt. eigenvalues --    0.02780   0.03494   0.04167   0.05520   0.06697
 Alpha virt. eigenvalues --    0.07296   0.07793   0.08150   0.09152   0.10335

  Beta  occ. eigenvalues --  -19.68110 -19.65177 -19.62980 -10.70559 -10.60412
  Beta  occ. eigenvalues --  -10.58321 -10.57705 -10.53700  -1.25609  -1.16320
  Beta  occ. eigenvalues --   -1.05841  -0.90405  -0.87040  -0.77945  -0.70514
  Beta  occ. eigenvalues --   -0.64396  -0.61440  -0.58397  -0.56432  -0.53527
  Beta  occ. eigenvalues --   -0.51865  -0.49213  -0.46615  -0.45231  -0.41990
  Beta  occ. eigenvalues --   -0.39519  -0.39023  -0.38302  -0.38021  -0.36018
  Beta virt. eigenvalues --   -0.09084  -0.00264   0.00002   0.00689   0.01855
  Beta virt. eigenvalues --    0.02454   0.02818   0.03497   0.04250   0.05548
  Beta virt. eigenvalues --    0.06621   0.07406   0.07840   0.08225   0.09242

 Mulliken charges and spin densities:
               1          2
     1  O   -0.215721   0.863248
     2  H    0.236815  -0.018856
     3  C   -0.939042   0.211008
     4  H    0.189677  -0.011751
     5  C    0.925470  -0.098555
     6  C   -0.299126   0.061694
     7  O   -0.198222  -0.007710
     8  O    0.057785   0.000422
     9  C   -0.256938   0.001314
    10  C   -0.418542  -0.000786
    11  H    0.201554   0.000210
    12  H    0.197543  -0.000625
    13  H    0.161718   0.000219
    14  H    0.165728   0.000029
    15  H    0.191301   0.000139
 Sum of Mulliken charges =  -0.00000   1.00000

 Dipole moment (field-independent basis, Debye):
    X=              0.2323    Y=             -0.7380    Z=             -0.7419  Tot=              1.0719
 Quadrupole moment (field-independent basis, Debye-Ang):
   XX=            -31.8871   YY=            -46.5350   ZZ=            -51.9342
   XY=             -5.5635   XZ=              2.3839   YZ=              4.0017

  Exact polarizability:  86.655  -6.661  73.183  -3.806   4.133  60.320
 Approx polarizability:  88.706 -12.912  80.826  -7.734   3.697  78.481

 ******    2 imaginary frequencies (negative Signs) ******

                      1                      2                      3
                      A                      A                      A
 Frequencies --   -182.3227               -37.1158                56.1171
 Red. masses --     11.1500                 4.9391                 4.0916
 Frc consts  --      0.2184                 0.0040                 0.0076
 IR Inten    --     22.4905                 9.0480                 1.3059

                      4                      5                      6
                      A                      A                      A
 Frequencies --    112.3492               119.8810               159.1776
 Red. masses --      5.1977                 3.9021                 2.4208
 Frc consts  --      0.0387                 0.0330                 0.0361
 IR Inten    --      2.7610                12.1615                17.2128

                      7                      8                      9
                      A                      A                      A
 Frequencies --    191.8841               229.0473               252.2449
 Red. masses --      1.4092                 1.3109                 2.6863
 Frc consts  --      0.0306                 0.0405                 0.1007
 IR Inten    --     44.2233                 2.1268                14.2683

                     10                     11                     12
                      A                      A                      A
 Frequencies --    337.8529               417.6238               559.6530
 Red. masses --      2.8838                 3.8032                 3.2830
 Frc consts  --      0.1939                 0.3908                 0.6058
 IR Inten    --     11.7446                 0.3541                12.8591

                     13                     14                     15
                      A                      A                      A
 Frequencies --    607.6053               639.8781               714.9225
 Red. masses --      6.0573                 1.1708                 1.3373
 Frc consts  --      1.3176                 0.2825                 0.4027
 IR Inten    --     13.0527                84.7609                34.0328

                     16                     17                     18
                      A                      A                      A
 Frequencies --    741.0631               775.5521               799.7336
 Red. masses --      1.3217                 8.5652                 1.1927
 Frc consts  --      0.4277                 3.0353                 0.4494
 IR Inten    --     21.1843                56.8194                 4.9114

                     19                     20                     21
                      A                      A                      A
 Frequencies --    895.8736               928.5766              1077.9180
 Red. masses --      3.1271                 2.8741                 4.1369
 Frc consts  --      1.4787                 1.4601                 2.8321
 IR Inten    --     14.9066                 6.8388                20.5531

                     22                     23                     24
                      A                      A                      A
 Frequencies --   1127.7568              1203.0329              1292.4114
 Red. masses --      2.0974                 1.7743                 3.5645
 Frc consts  --      1.5717                 1.5129                 3.5080
 IR Inten    --     20.7779                 5.3784               567.1228

                     25                     26                     27
                      A                      A                      A
 Frequencies --   1348.4764              1400.6605              1430.4443
 Red. masses --      1.2567                 1.2858                 1.3915
 Frc consts  --      1.3464                 1.4863                 1.6775
 IR Inten    --    110.5433                34.8661                 8.0013

                     28                     29                     30
                      A                      A                      A
 Frequencies --   1492.0813              1502.7384              1514.8058
 Red. masses --      1.0408                 1.0610                 1.0853
 Frc consts  --      1.3653                 1.4116                 1.4673
 IR Inten    --     10.5059                 1.7297                16.5049

                     31                     32                     33
                      A                      A                      A
 Frequencies --   1843.5445              2208.9641              3075.2099
 Red. masses --     11.9778                 5.9840                 1.0354
 Frc consts  --     23.9847                17.2035                 5.7689
 IR Inten    --    333.4682                70.6884                10.7243

                     34                     35                     36
                      A                      A                      A
 Frequencies --   3108.1739              3150.1745              3154.9988
 Red. masses --      1.0609                 1.1014                 1.1048
 Frc consts  --      6.0386                 6.4394                 6.4792
 IR Inten    --     15.6500                14.9556                 1.9914

                     37                     38                     39
                      A                      A                      A
 Frequencies --   3175.7935              3484.7870              3805.1445
 Red. masses --      1.1073                 1.1617                 1.0673
 Frc consts  --      6.5801                 8.3119                 9.1054
 IR Inten    --     14.9282                67.2906                42.2695

 - Thermochemistry -
 -------------------
 Temperature   298.150 Kelvin.  Pressure   1.00000 Atm.
 Atom     1 has atomic number  8 and mass  15.99491

 Molecular mass:   115.03952 amu.
 Principal axes and moments of inertia in atomic units:
                           1         2         3
     Eigenvalues --   457.257951551.360861633.22069
           X            0.99998  -0.00367   0.00540
           Y            0.00317   0.99581   0.09135
           Z           -0.00571  -0.09134   0.99580
 This molecule is an asymmetric top.
 Rotational symmetry number  1.
 Warning -- assumption of classical behavior for rotation
           may cause significant error
 Rotational temperatures (Kelvin)      0.18942     0.05583     0.05303
 Rotational constants (GHZ):           3.94688     1.16333     1.10502
    2 imaginary frequencies ignored.
 Zero-point vibrational energy     292703.2 (Joules/Mol)
                                   69.95774 (Kcal/Mol)
 Warning -- explicit consideration of  11 degrees of freedom as
           vibrations may cause significant error
 Vibrational temperatures:     80.74   161.65   172.48   229.02   276.08
          (Kelvin)            329.55   362.92   486.09   600.87   805.22
                              874.21   920.64  1028.61  1066.22  1115.85
                             1150.64  1288.96  1336.01  1550.88  1622.59
                             1730.90  1859.49  1940.16  2015.24  2058.09
                             2146.77  2162.11  2179.47  2652.45  3178.21
                             4424.54  4471.97  4532.40  4539.34  4569.26
                             5013.83  5474.75

 Zero-point correction=                           0.111485 (Hartree/Particle)
 Thermal correction to Energy=                    0.120483
 Thermal correction to Enthalpy=                  0.121428
 Thermal correction to Gibbs Free Energy=         0.076598
 Sum of electronic and zero-point Energies=           -420.092183
 Sum of electronic and thermal Energies=              -420.083184
 Sum of electronic and thermal Enthalpies=            -420.082240
 Sum of electronic and thermal Free Energies=         -420.127069

                     E (Thermal)             CV                S
                      KCal/Mol        Cal/Mol-Kelvin    Cal/Mol-Kelvin
 Total                   75.605             30.575             94.351
 Electronic               0.000              0.000              1.377
 Translational            0.889              2.981             40.136
 Rotational               0.889              2.981             28.540
 Vibrational             73.827             24.613             24.298
 Vibration     1          0.596              1.975              4.589
 Vibration     2          0.607              1.939              3.228
 Vibration     3          0.609              1.933              3.102
 Vibration     4          0.621              1.892              2.560
 Vibration     5          0.634              1.851              2.210
 Vibration     6          0.652              1.797              1.886
 Vibration     7          0.664              1.759              1.715
 Vibration     8          0.718              1.600              1.222
 Vibration     9          0.781              1.432              0.900
 Vibration    10          0.915              1.119              0.525
 Vibration    11          0.966              1.016              0.437

 1\1\GINC-AJ\Freq\UM062X\6-311++G(d,p)\C5H7O3(2)\AAYUSH\16-Aug-2025\0\\
 # freq 6-311++g(d,p) m062x\\Title Card Required\\0,2\O,2.12511,1.40827
 5,-0.014904\H,2.762674,1.227766,0.694762\C,2.397975,-1.179741,-0.56756
 9\H,3.284309,-1.653203,-0.920684\C,1.415583,-0.595312,-0.184885\C,0.09
 6692,-0.201595,0.315441\O,-0.236,-0.345108,1.458243\O,-0.656255,0.2853
 11,-0.662485\C,-1.988972,0.693664,-0.292511\C,-2.921674,-0.49889,-0.20
 9075\H,-2.282874,1.381212,-1.083388\H,-1.937652,1.229915,0.655647\H,-3
 .936321,-0.154772,0.000699\H,-2.930139,-1.042807,-1.154836\H,-2.614678

 Normal termination of Gaussian 16 at Sat Aug 16 18:24:12 2025.
