 Gaussian 16, Revision A.03,
 Gaussian 16:  ES64L-G16RevA.03 25-Dec-2016

 --------------------------
 # freq 6-311++g(d,p) m062x
 --------------------------

 -------------------
 Title Card Required
 -------------------
 Symbolic Z-matrix:
 Charge =  0 Multiplicity = 2

                         Standard orientation:
 ---------------------------------------------------------------------
 Center     Atomic      Atomic             Coordinates (Angstroms)
 Number     Number       Type             X           Y           Z
 ---------------------------------------------------------------------
      1          8           0        2.156708    1.335998   -0.002536
      2          1           0        2.808946    1.203861    0.701779
      3          6           0        2.451768   -1.173468   -0.563110
      4          1           0        3.323782   -1.668966   -0.923377
      5          6           0        1.526663   -0.475369   -0.166929
      6          6           0        0.162910   -0.190564    0.325475
      7          8           0       -0.171465   -0.360529    1.462859
      8          8           0       -0.593894    0.288652   -0.651002
      9          6           0       -1.927932    0.693069   -0.278229
     10          6           0       -2.859061   -0.500442   -0.202597
     11          1           0       -2.221830    1.386034   -1.064307
     12          1           0       -1.875388    1.222902    0.673490
     13          1           0       -3.874037   -0.158872    0.009662
     14          1           0       -2.867389   -1.037845   -1.152098
     15          1           0       -2.550976   -1.179444    0.592625
 ---------------------------------------------------------------------

 SCF Done:  E(UM062X) =  -420.202578655     A.U. after   23 cycles

 The electronic state is 2-A.
 Alpha  occ. eigenvalues --  -19.68309 -19.64811 -19.63207 -10.70741 -10.60785
 Alpha  occ. eigenvalues --  -10.60537 -10.59181 -10.53797  -1.25849  -1.16531
 Alpha  occ. eigenvalues --   -1.11017  -0.91432  -0.87846  -0.78311  -0.71098
 Alpha  occ. eigenvalues --   -0.64794  -0.62382  -0.58667  -0.56944  -0.54192
 Alpha  occ. eigenvalues --   -0.53192  -0.50096  -0.48182  -0.46197  -0.45317
 Alpha  occ. eigenvalues --   -0.42088  -0.40319  -0.39887  -0.38460  -0.36790
 Alpha  occ. eigenvalues --   -0.32996
 Alpha virt. eigenvalues --   -0.00555  -0.00173   0.00520   0.01548   0.02287
 Alpha virt. eigenvalues --    0.02694   0.03072   0.03992   0.05441   0.06494
 Alpha virt. eigenvalues --    0.07193   0.07790   0.08175   0.09013   0.10457

  Beta  occ. eigenvalues --  -19.68312 -19.63618 -19.63227 -10.70704 -10.60894
  Beta  occ. eigenvalues --  -10.60536 -10.58824 -10.53797  -1.25847  -1.16569
  Beta  occ. eigenvalues --   -1.06524  -0.90570  -0.87183  -0.77940  -0.70680
  Beta  occ. eigenvalues --   -0.64610  -0.61760  -0.58576  -0.56647  -0.53751
  Beta  occ. eigenvalues --   -0.51598  -0.49221  -0.46681  -0.45303  -0.42217
  Beta  occ. eigenvalues --   -0.40170  -0.39592  -0.38565  -0.37756  -0.35554
  Beta virt. eigenvalues --   -0.09973  -0.00253   0.00292   0.01259   0.01879
  Beta virt. eigenvalues --    0.02315   0.02748   0.03147   0.04070   0.05478
  Beta virt. eigenvalues --    0.06255   0.07331   0.07823   0.08107   0.09073

 Mulliken charges and spin densities:
               1          2
     1  O   -0.255817   0.635917
     2  H    0.237999  -0.012158
     3  C   -0.150832   0.593785
     4  H    0.212897  -0.022537
     5  C    0.257604  -0.255034
     6  C   -0.377568   0.066891
     7  O   -0.207325  -0.009744
     8  O    0.050244   0.000347
     9  C   -0.267005   0.003065
    10  C   -0.421117  -0.000553
    11  H    0.201590   0.000325
    12  H    0.199501  -0.000824
    13  H    0.161562   0.000460
    14  H    0.165325  -0.000098
    15  H    0.192943   0.000157
 Sum of Mulliken charges =  -0.00000   1.00000

 Dipole moment (field-independent basis, Debye):
    X=              0.0354    Y=             -1.3052    Z=             -0.8825  Tot=              1.5759
 Quadrupole moment (field-independent basis, Debye-Ang):
   XX=            -32.4316   YY=            -47.0187   ZZ=            -51.7009
   XY=             -6.9157   XZ=              1.9289   YZ=              4.1514

  Exact polarizability:  85.560  -4.883  78.947  -3.214   5.307  60.444
 Approx polarizability:  85.428 -10.531  90.905  -6.462   5.051  78.600

 ******    1 imaginary frequencies (negative Signs) ******

                      1                      2                      3
                      A                      A                      A
 Frequencies --   -685.4131                65.3167                78.6352
 Red. masses --     12.3121                 4.0076                 3.7460
 Frc consts  --      3.4079                 0.0101                 0.0136
 IR Inten    --     45.1394                 4.8263                 4.2436

                      4                      5                      6
                      A                      A                      A
 Frequencies --    114.1274               159.5462               186.8226
 Red. masses --      3.7325                 2.8458                 3.7230
 Frc consts  --      0.0286                 0.0427                 0.0766
 IR Inten    --      0.8723                35.2246                 2.3608

                      7                      8                      9
                      A                      A                      A
 Frequencies --    202.1173               235.5107               275.2231
 Red. masses --      1.3205                 1.4453                 3.0405
 Frc consts  --      0.0318                 0.0472                 0.1357
 IR Inten    --     46.7764                 0.6284                 7.3700

                     10                     11                     12
                      A                      A                      A
 Frequencies --    339.7824               421.0479               568.3800
 Red. masses --      2.9154                 3.6957                 3.6271
 Frc consts  --      0.1983                 0.3860                 0.6904
 IR Inten    --     12.4427                 1.3514                 1.5882

                     13                     14                     15
                      A                      A                      A
 Frequencies --    593.9634               613.6502               713.5266
 Red. masses --      1.5576                 3.9309                 1.3215
 Frc consts  --      0.3238                 0.8721                 0.3964
 IR Inten    --     38.2183                 8.3415                39.3481

                     16                     17                     18
                      A                      A                      A
 Frequencies --    767.2315               799.9596               858.1745
 Red. masses --     10.2213                 1.1903                 1.1518
 Frc consts  --      3.5449                 0.4488                 0.4998
 IR Inten    --     34.7425                 4.9265                75.9155

                     19                     20                     21
                      A                      A                      A
 Frequencies --    896.0026               923.7575              1075.8954
 Red. masses --      3.1954                 2.7696                 4.0376
 Frc consts  --      1.5115                 1.3925                 2.7537
 IR Inten    --     16.9547                 8.8299                20.9760

                     22                     23                     24
                      A                      A                      A
 Frequencies --   1127.7748              1202.6550              1286.5058
 Red. masses --      2.0825                 1.7705                 3.7545
 Frc consts  --      1.5606                 1.5088                 3.6612
 IR Inten    --     19.1110                 7.9188               571.4922

                     25                     26                     27
                      A                      A                      A
 Frequencies --   1348.4426              1400.6853              1431.0676
 Red. masses --      1.2421                 1.2800                 1.3871
 Frc consts  --      1.3307                 1.4795                 1.6737
 IR Inten    --     99.2224                31.7312                 5.9400

                     28                     29                     30
                      A                      A                      A
 Frequencies --   1492.3062              1502.9820              1515.4210
 Red. masses --      1.0408                 1.0596                 1.0860
 Frc consts  --      1.3657                 1.4103                 1.4694
 IR Inten    --     10.4992                 1.2018                15.0656

                     31                     32                     33
                      A                      A                      A
 Frequencies --   1846.8107              2048.0009              3075.3934
 Red. masses --     11.8124                 6.6730                 1.0354
 Frc consts  --     23.7374                16.4905                 5.7698
 IR Inten    --    334.8923                74.8200                10.5158

                     34                     35                     36
                      A                      A                      A
 Frequencies --   3108.7685              3150.2881              3155.5082
 Red. masses --      1.0609                 1.1013                 1.1047
 Frc consts  --      6.0408                 6.4398                 6.4811
 IR Inten    --     14.5825                14.5936                 1.9974

                     37                     38                     39
                      A                      A                      A
 Frequencies --   3176.4576              3466.8241              3825.6321
 Red. masses --      1.1075                 1.1407                 1.0676
 Frc consts  --      6.5836                 8.0779                 9.2063
 IR Inten    --     14.5748                73.6687                59.0392

 - Thermochemistry -
 -------------------
 Temperature   298.150 Kelvin.  Pressure   1.00000 Atm.
 Atom     1 has atomic number  8 and mass  15.99491

 Molecular mass:   115.03952 amu.
 Principal axes and moments of inertia in atomic units:
                           1         2         3
     Eigenvalues --   439.552391546.142421612.87583
           X            0.99998  -0.00359   0.00516
           Y            0.00295   0.99291   0.11887
           Z           -0.00555  -0.11886   0.99290
 This molecule is an asymmetric top.
 Rotational symmetry number  1.
 Warning -- assumption of classical behavior for rotation
           may cause significant error
 Rotational temperatures (Kelvin)      0.19705     0.05602     0.05370
 Rotational constants (GHZ):           4.10586     1.16725     1.11896
    1 imaginary frequencies ignored.
 Zero-point vibrational energy     293385.3 (Joules/Mol)
                                   70.12077 (Kcal/Mol)
 Warning -- explicit consideration of  13 degrees of freedom as
           vibrations may cause significant error
 Vibrational temperatures:     93.98   113.14   164.20   229.55   268.80
          (Kelvin)            290.80   338.85   395.98   488.87   605.79
                              817.77   854.58   882.91  1026.61  1103.87
                             1150.96  1234.72  1289.15  1329.08  1547.97
                             1622.62  1730.35  1850.99  1940.11  2015.27
                             2058.99  2147.10  2162.46  2180.35  2657.15
                             2946.62  4424.81  4472.82  4532.56  4540.07
                             4570.21  4987.99  5504.23

 Zero-point correction=                           0.111745 (Hartree/Particle)
 Thermal correction to Energy=                    0.121305
 Thermal correction to Enthalpy=                  0.122249
 Thermal correction to Gibbs Free Energy=         0.076309
 Sum of electronic and zero-point Energies=           -420.090834
 Sum of electronic and thermal Energies=              -420.081274
 Sum of electronic and thermal Enthalpies=            -420.080329
 Sum of electronic and thermal Free Energies=         -420.126270

                     E (Thermal)             CV                S
                      KCal/Mol        Cal/Mol-Kelvin    Cal/Mol-Kelvin
 Total                   76.120             32.285             96.689
 Electronic               0.000              0.000              1.377
 Translational            0.889              2.981             40.136
 Rotational               0.889              2.981             28.485
 Vibrational             74.343             26.323             26.691
 Vibration     1          0.597              1.971              4.290
 Vibration     2          0.600              1.964              3.925
 Vibration     3          0.607              1.938              3.197
 Vibration     4          0.621              1.892              2.555
 Vibration     5          0.632              1.858              2.259
 Vibration     6          0.639              1.837              2.114
 Vibration     7          0.655              1.786              1.837
 Vibration     8          0.677              1.719              1.563
 Vibration     9          0.720              1.596              1.213
 Vibration    10          0.784              1.424              0.888
 Vibration    11          0.924              1.100              0.507
 Vibration    12          0.952              1.045              0.460
 Vibration    13          0.973              1.003              0.427

 1\1\GINC-AJ\Freq\UM062X\6-311++G(d,p)\C5H7O3(2)\AAYUSH\23-Jun-2025\0\\
 # freq 6-311++g(d,p) m062x\\Title Card Required\\0,2\O,2.156708,1.3359
 98,-0.002536\H,2.808946,1.203861,0.701779\C,2.451768,-1.173468,-0.5631
 1\H,3.323782,-1.668966,-0.923377\C,1.526663,-0.475369,-0.166929\C,0.16
 291,-0.190564,0.325475\O,-0.171465,-0.360529,1.462859\O,-0.593894,0.28
 8652,-0.651002\C,-1.927932,0.693069,-0.278229\C,-2.859061,-0.500442,-0
 .202597\H,-2.22183,1.386034,-1.064307\H,-1.875388,1.222902,0.67349\H,-
 3.874037,-0.158872,0.009662\H,-2.867389,-1.037845,-1.152098\H,-2.55097

 Normal termination of Gaussian 16 at Mon Jun 23 06:57:57 2025.
