 Gaussian 16, Revision A.03,
 Gaussian 16:  ES64L-G16RevA.03 25-Dec-2016

 --------------------------
 # ccsd(t)/6-311++g(d,p) sp
 --------------------------

 -------------------
 Title Card Required
 -------------------
 Symbolic Z-matrix:
 Charge =  0 Multiplicity = 2

                         Standard orientation:
 ---------------------------------------------------------------------
 Center     Atomic      Atomic             Coordinates (Angstroms)
 Number     Number       Type             X           Y           Z
 ---------------------------------------------------------------------
      1          8           0        2.217174    1.449679   -0.039070
      2          1           0        2.832557    1.242029    0.683522
      3          6           0        2.457810   -1.214164   -0.526555
      4          1           0        3.359576   -1.669713   -0.863615
      5          6           0        1.444253   -0.679641   -0.164070
      6          6           0        0.150975   -0.208817    0.329201
      7          8           0       -0.178004   -0.295262    1.479428
      8          8           0       -0.592354    0.271599   -0.660279
      9          6           0       -1.921348    0.701894   -0.302333
     10          6           0       -2.862030   -0.482361   -0.187065
     11          1           0       -2.209866    1.369027   -1.112385
     12          1           0       -1.867072    1.263863    0.630540
     13          1           0       -3.874721   -0.126638    0.012419
     14          1           0       -2.872854   -1.051938   -1.117560
     15          1           0       -2.560108   -1.136220    0.631383
 ---------------------------------------------------------------------

 SCF Done:  E(UHF) =  -417.990028747     A.U. after   40 cycles
 E2 =    -0.1260577681D+01 EUMP2 =    -0.41925060642799D+03
 CCSD(T)= -0.41935647656D+03

 The electronic state is 2-A.
 Alpha  occ. eigenvalues --  -20.62937 -20.61076 -20.55670 -11.41495 -11.29514
 Alpha  occ. eigenvalues --  -11.26712 -11.25802 -11.22472  -1.48064  -1.38539
 Alpha  occ. eigenvalues --   -1.37759  -1.07735  -1.04117  -0.92555  -0.83730
 Alpha  occ. eigenvalues --   -0.76312  -0.73012  -0.69571  -0.67871  -0.66745
 Alpha  occ. eigenvalues --   -0.65279  -0.62956  -0.58175  -0.55665  -0.54050
 Alpha  occ. eigenvalues --   -0.53908  -0.50328  -0.47823  -0.46065  -0.42785
 Alpha  occ. eigenvalues --   -0.42158
 Alpha virt. eigenvalues --    0.03717   0.04546   0.05769   0.06598   0.07021
 Alpha virt. eigenvalues --    0.08290   0.09333   0.09855   0.11110   0.12226
 Alpha virt. eigenvalues --    0.13418   0.13835   0.14471   0.15179   0.16416

  Beta  occ. eigenvalues --  -20.61083 -20.58853 -20.55959 -11.41277 -11.29514
  Beta  occ. eigenvalues --  -11.26837 -11.25476 -11.22473  -1.48188  -1.38226
  Beta  occ. eigenvalues --   -1.23273  -1.07779  -1.03664  -0.92037  -0.83512
  Beta  occ. eigenvalues --   -0.76240  -0.72432  -0.69623  -0.66585  -0.63422
  Beta  occ. eigenvalues --   -0.62996  -0.58430  -0.55225  -0.54017  -0.50763
  Beta  occ. eigenvalues --   -0.49986  -0.48443  -0.46764  -0.43026  -0.42286
  Beta virt. eigenvalues --    0.03780   0.04550   0.05009   0.06519   0.06993
  Beta virt. eigenvalues --    0.08174   0.09108   0.09526   0.10435   0.11217
  Beta virt. eigenvalues --    0.12924   0.13502   0.13993   0.14767   0.15680

 Mulliken charges and spin densities:
               1          2
     1  O   -0.162519   0.985331
     2  H    0.237188  -0.037363
     3  C   -1.995688   0.500522
     4  H    0.194589  -0.042079
     5  C    2.093417  -0.530058
     6  C   -0.350095   0.182160
     7  O   -0.270637  -0.059424
     8  O   -0.023376   0.001297
     9  C   -0.154052   0.000858
    10  C   -0.378307  -0.001430
    11  H    0.171410   0.000013
    12  H    0.182486   0.000187
    13  H    0.131009  -0.000048
    14  H    0.145743   0.000131
    15  H    0.178832  -0.000098
 Sum of Mulliken charges =  -0.00000   1.00000

 Dipole moment (field-independent basis, Debye):
    X=              0.6027    Y=             -0.2109    Z=             -0.7402  Tot=              0.9776
 Quadrupole moment (field-independent basis, Debye-Ang):
   XX=            -31.0226   YY=            -46.3100   ZZ=            -52.6507
   XY=             -4.4047   XZ=              2.7812   YZ=              4.0535

 8\PMP3-0=-419.2836027\MP4SDQ=-419.3030301\CCSD=-419.3038299\CCSD(T)=-4
 Normal termination of Gaussian 16 at Wed Aug  6 15:04:27 2025.
