 Gaussian 16, Revision A.03,
 Gaussian 16:  ES64L-G16RevA.03 25-Dec-2016

 --------------------------
 # freq 6-311++g(d,p) m062x
 --------------------------

 -------------------
 Title Card Required
 -------------------
 Symbolic Z-matrix:
 Charge =  0 Multiplicity = 2

                         Standard orientation:
 ---------------------------------------------------------------------
 Center     Atomic      Atomic             Coordinates (Angstroms)
 Number     Number       Type             X           Y           Z
 ---------------------------------------------------------------------
      1          8           0        2.124868    1.270496    0.023276
      2          1           0        2.786880    1.170581    0.719551
      3          6           0        2.441934   -1.161379   -0.591383
      4          1           0        3.327905   -1.624259   -0.964834
      5          6           0        1.577218   -0.346916   -0.163685
      6          6           0        0.166973   -0.195756    0.320280
      7          8           0       -0.169118   -0.402516    1.451105
      8          8           0       -0.595002    0.301124   -0.643629
      9          6           0       -1.930530    0.692158   -0.260791
     10          6           0       -2.857474   -0.505659   -0.215365
     11          1           0       -2.226576    1.404236   -1.028798
     12          1           0       -1.878566    1.197538    0.704265
     13          1           0       -3.873683   -0.173366    0.005542
     14          1           0       -2.864034   -1.018697   -1.178275
     15          1           0       -2.546640   -1.203558    0.562191
 ---------------------------------------------------------------------

 SCF Done:  E(UM062X) =  -420.217609061     A.U. after   19 cycles

 The electronic state is 2-A.
 Alpha  occ. eigenvalues --  -19.68326 -19.64295 -19.63270 -10.70419 -10.63184
 Alpha  occ. eigenvalues --  -10.60536 -10.59533 -10.53794  -1.25832  -1.16516
 Alpha  occ. eigenvalues --   -1.11338  -0.91276  -0.87830  -0.78162  -0.71238
 Alpha  occ. eigenvalues --   -0.64816  -0.62012  -0.58886  -0.57309  -0.54685
 Alpha  occ. eigenvalues --   -0.53341  -0.49788  -0.48348  -0.46113  -0.45255
 Alpha  occ. eigenvalues --   -0.42190  -0.40274  -0.39688  -0.38480  -0.36251
 Alpha  occ. eigenvalues --   -0.31314
 Alpha virt. eigenvalues --   -0.00328   0.00222   0.01174   0.01433   0.02039
 Alpha virt. eigenvalues --    0.02650   0.02953   0.04033   0.05432   0.06592
 Alpha virt. eigenvalues --    0.07152   0.07822   0.08353   0.08985   0.10512

  Beta  occ. eigenvalues --  -19.68323 -19.63686 -19.63275 -10.70365 -10.63344
  Beta  occ. eigenvalues --  -10.60536 -10.58923 -10.53794  -1.25801  -1.16516
  Beta  occ. eigenvalues --   -1.09195  -0.90166  -0.86713  -0.77517  -0.70431
  Beta  occ. eigenvalues --   -0.64530  -0.61152  -0.58656  -0.56899  -0.54101
  Beta  occ. eigenvalues --   -0.52889  -0.49374  -0.46675  -0.45212  -0.43703
  Beta  occ. eigenvalues --   -0.41895  -0.39207  -0.38925  -0.38387  -0.34879
  Beta virt. eigenvalues --   -0.08762  -0.00271   0.00334   0.01666   0.02090
  Beta virt. eigenvalues --    0.02227   0.02744   0.03165   0.04133   0.05478
  Beta virt. eigenvalues --    0.06234   0.07299   0.07825   0.08099   0.08986

 Mulliken charges and spin densities:
               1          2
     1  O   -0.282712   0.299862
     2  H    0.254840  -0.000567
     3  C    0.095679   0.960401
     4  H    0.227556  -0.029014
     5  C   -0.090235  -0.310230
     6  C   -0.257259   0.075020
     7  O   -0.216698  -0.001694
     8  O    0.046407   0.002597
     9  C   -0.267903   0.002937
    10  C   -0.429377   0.001015
    11  H    0.199668   0.000244
    12  H    0.200118  -0.000640
    13  H    0.161827   0.000647
    14  H    0.165361  -0.000225
    15  H    0.192727  -0.000355
 Sum of Mulliken charges =  -0.00000   1.00000

 Dipole moment (field-independent basis, Debye):
    X=              0.0122    Y=             -1.2502    Z=             -0.9005  Tot=              1.5408
 Quadrupole moment (field-independent basis, Debye-Ang):
   XX=            -32.7732   YY=            -47.7463   ZZ=            -51.5868
   XY=             -6.6192   XZ=              1.8249   YZ=              4.1268

  Exact polarizability:  83.808  -5.734  71.455  -2.917   4.056  60.189
 Approx polarizability:  81.905  -8.462  87.070  -4.950   3.942  78.230

 ******    1 imaginary frequencies (negative Signs) ******

                      1                      2                      3
                      A                      A                      A
 Frequencies --   -531.5704                66.1751                95.9853
 Red. masses --      6.8533                 1.9121                 4.1153
 Frc consts  --      1.1410                 0.0049                 0.0223
 IR Inten    --     68.9864                19.2733                 5.6275

                      4                      5                      6
                      A                      A                      A
 Frequencies --    114.5865               146.5392               192.4823
 Red. masses --      2.6747                 1.9133                 2.0634
 Frc consts  --      0.0207                 0.0242                 0.0450
 IR Inten    --      7.9229                47.1846                 7.6920

                      7                      8                      9
                      A                      A                      A
 Frequencies --    229.1238               239.4240               260.2774
 Red. masses --      1.8161                 1.2937                 3.0691
 Frc consts  --      0.0562                 0.0437                 0.1225
 IR Inten    --     17.6726                18.6299                 1.1071

                     10                     11                     12
                      A                      A                      A
 Frequencies --    344.9004               356.8458               439.1478
 Red. masses --      3.0860                 9.1991                 3.5603
 Frc consts  --      0.2163                 0.6902                 0.4045
 IR Inten    --     12.4245                 2.4574                 3.2772

                     13                     14                     15
                      A                      A                      A
 Frequencies --    594.8140               633.5589               692.7953
 Red. masses --      3.8413                 5.2296                 1.4082
 Frc consts  --      0.8007                 1.2368                 0.3982
 IR Inten    --      9.4394                14.8226                39.5686

                     16                     17                     18
                      A                      A                      A
 Frequencies --    781.7382               802.2830               894.6480
 Red. masses --      7.8720                 1.2504                 3.2406
 Frc consts  --      2.8344                 0.4742                 1.5282
 IR Inten    --     17.1957                 4.7848                17.5503

                     19                     20                     21
                      A                      A                      A
 Frequencies --    917.3465              1055.6552              1082.0956
 Red. masses --      2.8040                 1.4506                 2.3562
 Frc consts  --      1.3903                 0.9525                 1.6255
 IR Inten    --      2.8375                44.1755                28.8027

                     22                     23                     24
                      A                      A                      A
 Frequencies --   1128.1287              1202.6776              1284.5974
 Red. masses --      2.0707                 1.7672                 3.8177
 Frc consts  --      1.5527                 1.5061                 3.7118
 IR Inten    --     19.3846                 8.2621               538.3178

                     25                     26                     27
                      A                      A                      A
 Frequencies --   1348.1052              1401.0560              1431.6935
 Red. masses --      1.2358                 1.2784                 1.3867
 Frc consts  --      1.3232                 1.4785                 1.6746
 IR Inten    --     91.1600                26.9625                 7.2670

                     28                     29                     30
                      A                      A                      A
 Frequencies --   1492.8062              1503.3862              1516.0205
 Red. masses --      1.0408                 1.0593                 1.0864
 Frc consts  --      1.3665                 1.4106                 1.4712
 IR Inten    --     10.2416                 1.2183                15.2596

                     31                     32                     33
                      A                      A                      A
 Frequencies --   1825.0342              1876.4689              3075.3278
 Red. masses --      8.6739                 9.2894                 1.0354
 Frc consts  --     17.0218                19.2718                 5.7696
 IR Inten    --    168.1629               168.0648                10.5168

                     34                     35                     36
                      A                      A                      A
 Frequencies --   3108.4211              3150.0959              3155.3125
 Red. masses --      1.0607                 1.1015                 1.1048
 Frc consts  --      6.0384                 6.4397                 6.4804
 IR Inten    --     15.4253                14.3599                 2.3971

                     37                     38                     39
                      A                      A                      A
 Frequencies --   3176.0617              3439.7121              3855.2022
 Red. masses --      1.1075                 1.1243                 1.0676
 Frc consts  --      6.5823                 7.8372                 9.3489
 IR Inten    --     14.6021                77.0268                68.2763

 - Thermochemistry -
 -------------------
 Temperature   298.150 Kelvin.  Pressure   1.00000 Atm.
 Atom     1 has atomic number  8 and mass  15.99491

 Molecular mass:   115.03952 amu.
 Principal axes and moments of inertia in atomic units:
                           1         2         3
     Eigenvalues --   424.718881541.337291596.05821
           X            0.99998  -0.00347   0.00487
           Y            0.00269   0.98833   0.15232
           Z           -0.00534  -0.15230   0.98832
 This molecule is an asymmetric top.
 Rotational symmetry number  1.
 Rotational temperatures (Kelvin)      0.20393     0.05619     0.05427
 Rotational constants (GHZ):           4.24926     1.17089     1.13075
    1 imaginary frequencies ignored.
 Zero-point vibrational energy     292549.9 (Joules/Mol)
                                   69.92111 (Kcal/Mol)
 Warning -- explicit consideration of  12 degrees of freedom as
           vibrations may cause significant error
 Vibrational temperatures:     95.21   138.10   164.86   210.84   276.94
          (Kelvin)            329.66   344.48   374.48   496.23   513.42
                              631.84   855.80   911.55   996.78  1124.75
                             1154.31  1287.20  1319.86  1518.85  1556.89
                             1623.13  1730.38  1848.25  1939.62  2015.81
                             2059.89  2147.82  2163.04  2181.22  2625.82
                             2699.82  4424.71  4472.32  4532.29  4539.79
                             4569.64  4948.98  5546.78

 Zero-point correction=                           0.111426 (Hartree/Particle)
 Thermal correction to Energy=                    0.121051
 Thermal correction to Enthalpy=                  0.121995
 Thermal correction to Gibbs Free Energy=         0.076098
 Sum of electronic and zero-point Energies=           -420.106183
 Sum of electronic and thermal Energies=              -420.096558
 Sum of electronic and thermal Enthalpies=            -420.095614
 Sum of electronic and thermal Free Energies=         -420.141511

                     E (Thermal)             CV                S
                      KCal/Mol        Cal/Mol-Kelvin    Cal/Mol-Kelvin
 Total                   75.961             32.414             96.599
 Electronic               0.000              0.000              1.377
 Translational            0.889              2.981             40.136
 Rotational               0.889              2.981             28.437
 Vibrational             74.183             26.452             26.649
 Vibration     1          0.598              1.970              4.264
 Vibration     2          0.603              1.952              3.534
 Vibration     3          0.608              1.937              3.190
 Vibration     4          0.617              1.906              2.717
 Vibration     5          0.634              1.850              2.204
 Vibration     6          0.652              1.797              1.886
 Vibration     7          0.657              1.780              1.807
 Vibration     8          0.668              1.745              1.660
 Vibration     9          0.723              1.586              1.189
 Vibration    10          0.732              1.561              1.136
 Vibration    11          0.799              1.385              0.829
 Vibration    12          0.953              1.043              0.459

 1\1\GINC-AJ\Freq\UM062X\6-311++G(d,p)\C5H7O3(2)\AAYUSH\16-Aug-2025\0\\
 # freq 6-311++g(d,p) m062x\\Title Card Required\\0,2\O,2.068782,1.2573
 8,-0.028101\H,2.73032,1.176794,0.671123\C,2.373095,-1.194888,-0.563012
 \H,3.256606,-1.674334,-0.921073\C,1.512678,-0.362392,-0.162208\C,0.103
 282,-0.188151,0.316439\O,-0.233792,-0.356125,1.453382\O,-0.656167,0.28
 0968,-0.663245\C,-1.989604,0.69126,-0.293496\C,-2.922786,-0.499579,-0.
 209071\H,-2.28199,1.379422,-1.084367\H,-1.934923,1.227599,0.654551\H,-
 3.937228,-0.154949,0.000779\H,-2.932104,-1.043738,-1.15472\H,-2.615537

 Normal termination of Gaussian 16 at Sat Aug 16 17:56:43 2025.
