 Gaussian 16, Revision A.03,
 Gaussian 16:  ES64L-G16RevA.03 25-Dec-2016

 --------------------------
 # freq 6-311++g(d,p) m062x
 --------------------------

 -------------------
 Title Card Required
 -------------------
 Symbolic Z-matrix:
 Charge =  0 Multiplicity = 2

                         Standard orientation:
 ---------------------------------------------------------------------
 Center     Atomic      Atomic             Coordinates (Angstroms)
 Number     Number       Type             X           Y           Z
 ---------------------------------------------------------------------
      1          8           0        2.119994    1.258877    0.029037
      2          1           0        2.784128    1.164451    0.723479
      3          6           0        2.438891   -1.158881   -0.597611
      4          1           0        3.330502   -1.610239   -0.973338
      5          6           0        1.585555   -0.325981   -0.163221
      6          6           0        0.168172   -0.197258    0.318974
      7          8           0       -0.168739   -0.411658    1.448331
      8          8           0       -0.595200    0.304222   -0.641901
      9          6           0       -1.930829    0.692619   -0.256770
     10          6           0       -2.857359   -0.505671   -0.218137
     11          1           0       -2.227214    1.409057   -1.020613
     12          1           0       -1.878893    1.192394    0.711239
     13          1           0       -3.873709   -0.175100    0.004717
     14          1           0       -2.863729   -1.013172   -1.183979
     15          1           0       -2.546110   -1.207888    0.555341
 ---------------------------------------------------------------------

 SCF Done:  E(UM062X) =  -420.221561054     A.U. after   19 cycles

 The electronic state is 2-A.
 Alpha  occ. eigenvalues --  -19.68292 -19.64427 -19.63241 -10.70312 -10.63357
 Alpha  occ. eigenvalues --  -10.60515 -10.59445 -10.53773  -1.25784  -1.16465
 Alpha  occ. eigenvalues --   -1.11763  -0.91130  -0.87758  -0.78080  -0.71211
 Alpha  occ. eigenvalues --   -0.64767  -0.61822  -0.58991  -0.57417  -0.54843
 Alpha  occ. eigenvalues --   -0.53353  -0.49822  -0.48454  -0.46102  -0.45219
 Alpha  occ. eigenvalues --   -0.42208  -0.40415  -0.39562  -0.38461  -0.36100
 Alpha  occ. eigenvalues --   -0.31231
 Alpha virt. eigenvalues --   -0.00309   0.00251   0.01269   0.01486   0.02039
 Alpha virt. eigenvalues --    0.02667   0.03002   0.04070   0.05445   0.06657
 Alpha virt. eigenvalues --    0.07156   0.07833   0.08389   0.09003   0.10532

  Beta  occ. eigenvalues --  -19.68289 -19.63899 -19.63244 -10.70256 -10.63516
  Beta  occ. eigenvalues --  -10.60515 -10.58799 -10.53772  -1.25748  -1.16458
  Beta  occ. eigenvalues --   -1.09906  -0.90047  -0.86567  -0.77408  -0.70352
  Beta  occ. eigenvalues --   -0.64476  -0.60921  -0.58685  -0.57002  -0.54309
  Beta  occ. eigenvalues --   -0.53039  -0.49399  -0.46701  -0.45169  -0.44272
  Beta  occ. eigenvalues --   -0.41947  -0.39355  -0.38903  -0.38391  -0.34705
  Beta virt. eigenvalues --   -0.08488  -0.00275   0.00337   0.01663   0.02095
  Beta virt. eigenvalues --    0.02321   0.02757   0.03231   0.04169   0.05489
  Beta virt. eigenvalues --    0.06291   0.07306   0.07828   0.08116   0.08989

 Mulliken charges and spin densities:
               1          2
     1  O   -0.281131   0.254091
     2  H    0.258617   0.000482
     3  C    0.101148   0.998300
     4  H    0.227602  -0.028446
     5  C   -0.116646  -0.302379
     6  C   -0.238717   0.071167
     7  O   -0.217971  -0.000030
     8  O    0.046486   0.003107
     9  C   -0.267343   0.002816
    10  C   -0.430628   0.001346
    11  H    0.199078   0.000210
    12  H    0.199793  -0.000611
    13  H    0.161805   0.000679
    14  H    0.165369  -0.000250
    15  H    0.192538  -0.000481
 Sum of Mulliken charges =  -0.00000   1.00000

 Dipole moment (field-independent basis, Debye):
    X=              0.0398    Y=             -1.1415    Z=             -0.8849  Tot=              1.4448
 Quadrupole moment (field-independent basis, Debye-Ang):
   XX=            -32.7739   YY=            -47.8472   ZZ=            -51.5748
   XY=             -6.3381   XZ=              1.8500   YZ=              4.1111

  Exact polarizability:  83.563  -5.939  70.419  -2.909   3.910  60.186
 Approx polarizability:  81.436  -8.443  85.654  -4.809   3.696  78.181

 ******    1 imaginary frequencies (negative Signs) ******

                      1                      2                      3
                      A                      A                      A
 Frequencies --   -454.8826                33.4448                97.5645
 Red. masses --      4.5229                 1.5052                 3.9264
 Frc consts  --      0.5514                 0.0010                 0.0220
 IR Inten    --    103.2178                32.0555                 5.1562

                      4                      5                      6
                      A                      A                      A
 Frequencies --    113.1359               138.1141               193.1555
 Red. masses --      2.7265                 2.7464                 2.0041
 Frc consts  --      0.0206                 0.0309                 0.0441
 IR Inten    --      8.2587                26.5557                 9.9481

                      7                      8                      9
                      A                      A                      A
 Frequencies --    226.5152               238.9931               265.8677
 Red. masses --      1.4067                 1.7193                 3.4055
 Frc consts  --      0.0425                 0.0579                 0.1418
 IR Inten    --     27.8141                 2.8996                 0.9947

                     10                     11                     12
                      A                      A                      A
 Frequencies --    345.8698               363.1012               442.6675
 Red. masses --      3.1273                 9.8683                 3.5600
 Frc consts  --      0.2204                 0.7666                 0.4110
 IR Inten    --     12.3136                 0.9872                 3.4820

                     13                     14                     15
                      A                      A                      A
 Frequencies --    600.8785               640.0114               691.1411
 Red. masses --      3.8208                 4.8498                 1.4398
 Frc consts  --      0.8128                 1.1704                 0.4052
 IR Inten    --     11.7183                16.2472                38.9920

                     16                     17                     18
                      A                      A                      A
 Frequencies --    785.3687               803.3838               894.7814
 Red. masses --      6.3131                 1.3020                 3.2412
 Frc consts  --      2.2942                 0.4951                 1.5289
 IR Inten    --     14.6086                 4.6631                16.9742

                     19                     20                     21
                      A                      A                      A
 Frequencies --    917.5070              1066.2498              1097.4073
 Red. masses --      2.8257                 2.3791                 1.4474
 Frc consts  --      1.4015                 1.5936                 1.0270
 IR Inten    --      2.7601                33.8153                36.4003

                     22                     23                     24
                      A                      A                      A
 Frequencies --   1128.4085              1202.7392              1284.4826
 Red. masses --      2.0656                 1.7667                 3.8330
 Frc consts  --      1.5496                 1.5058                 3.7260
 IR Inten    --     21.2606                 8.0783               533.4758

                     25                     26                     27
                      A                      A                      A
 Frequencies --   1348.0141              1401.1804              1431.8778
 Red. masses --      1.2337                 1.2781                 1.3868
 Frc consts  --      1.3208                 1.4785                 1.6752
 IR Inten    --     89.5687                26.2586                 7.5769

                     28                     29                     30
                      A                      A                      A
 Frequencies --   1492.9181              1503.4534              1516.0911
 Red. masses --      1.0408                 1.0596                 1.0862
 Frc consts  --      1.3667                 1.4111                 1.4710
 IR Inten    --     10.1930                 1.2640                15.2946

                     31                     32                     33
                      A                      A                      A
 Frequencies --   1809.7846              1866.2526              3075.2533
 Red. masses --      7.9088                10.4586                 1.0354
 Frc consts  --     15.2621                21.4617                 5.7693
 IR Inten    --     99.7590               234.2409                10.5560

                     34                     35                     36
                      A                      A                      A
 Frequencies --   3108.0487              3149.9700              3155.1229
 Red. masses --      1.0607                 1.1015                 1.1048
 Frc consts  --      6.0367                 6.4395                 6.4796
 IR Inten    --     15.6877                14.2430                 2.5643

                     37                     38                     39
                      A                      A                      A
 Frequencies --   3175.7449              3431.4585              3858.8569
 Red. masses --      1.1075                 1.1226                 1.0676
 Frc consts  --      6.5808                 7.7882                 9.3662
 IR Inten    --     14.6806                73.4778                70.2659

 - Thermochemistry -
 -------------------
 Temperature   298.150 Kelvin.  Pressure   1.00000 Atm.
 Atom     1 has atomic number  8 and mass  15.99491

 Molecular mass:   115.03952 amu.
 Principal axes and moments of inertia in atomic units:
                           1         2         3
     Eigenvalues --   422.307631540.379131593.32867
           X            0.99998  -0.00343   0.00481
           Y            0.00262   0.98732   0.15872
           Z           -0.00530  -0.15870   0.98731
 This molecule is an asymmetric top.
 Rotational symmetry number  1.
 Rotational temperatures (Kelvin)      0.20510     0.05623     0.05436
 Rotational constants (GHZ):           4.27352     1.17162     1.13269
    1 imaginary frequencies ignored.
 Zero-point vibrational energy     292455.9 (Joules/Mol)
                                   69.89865 (Kcal/Mol)
 Warning -- explicit consideration of  12 degrees of freedom as
           vibrations may cause significant error
 Vibrational temperatures:     48.12   140.37   162.78   198.72   277.91
          (Kelvin)            325.90   343.86   382.52   497.63   522.42
                              636.90   864.53   920.83   994.40  1129.97
                             1155.89  1287.39  1320.09  1534.10  1578.92
                             1623.53  1730.47  1848.08  1939.49  2015.99
                             2060.15  2147.98  2163.13  2181.32  2603.88
                             2685.12  4424.60  4471.79  4532.10  4539.52
                             4569.19  4937.10  5552.03

 Zero-point correction=                           0.111391 (Hartree/Particle)
 Thermal correction to Energy=                    0.121073
 Thermal correction to Enthalpy=                  0.122017
 Thermal correction to Gibbs Free Energy=         0.075476
 Sum of electronic and zero-point Energies=           -420.110170
 Sum of electronic and thermal Energies=              -420.100488
 Sum of electronic and thermal Enthalpies=            -420.099544
 Sum of electronic and thermal Free Energies=         -420.146085

                     E (Thermal)             CV                S
                      KCal/Mol        Cal/Mol-Kelvin    Cal/Mol-Kelvin
 Total                   75.975             32.354             97.956
 Electronic               0.000              0.000              1.377
 Translational            0.889              2.981             40.136
 Rotational               0.889              2.981             28.429
 Vibrational             74.197             26.392             28.013
 Vibration     1          0.594              1.983              5.614
 Vibration     2          0.603              1.951              3.502
 Vibration     3          0.607              1.939              3.214
 Vibration     4          0.614              1.915              2.830
 Vibration     5          0.635              1.849              2.197
 Vibration     6          0.650              1.801              1.906
 Vibration     7          0.657              1.781              1.810
 Vibration     8          0.672              1.736              1.623
 Vibration     9          0.724              1.584              1.185
 Vibration    10          0.737              1.548              1.109
 Vibration    11          0.802              1.377              0.818
 Vibration    12          0.959              1.030              0.448

 1\1\GINC-AJ\Freq\UM062X\6-311++G(d,p)\C5H7O3(2)\AAYUSH\23-Jun-2025\0\\
 # freq 6-311++g(d,p) m062x\\Title Card Required\\0,2\O,2.119994,1.2588
 77,0.029037\H,2.784128,1.164451,0.723479\C,2.438891,-1.158881,-0.59761
 1\H,3.330502,-1.610239,-0.973338\C,1.585555,-0.325981,-0.163221\C,0.16
 8172,-0.197258,0.318974\O,-0.168739,-0.411658,1.448331\O,-0.5952,0.304
 222,-0.641901\C,-1.930829,0.692619,-0.25677\C,-2.857359,-0.505671,-0.2
 18137\H,-2.227214,1.409057,-1.020613\H,-1.878893,1.192394,0.711239\H,-
 3.873709,-0.1751,0.004717\H,-2.863729,-1.013172,-1.183979\H,-2.54611,-

 Normal termination of Gaussian 16 at Mon Jun 23 07:31:43 2025.
