 Gaussian 16, Revision A.03,
 Gaussian 16:  ES64L-G16RevA.03 25-Dec-2016

 --------------------------
 # freq 6-311++g(d,p) m062x
 --------------------------

 -------------------
 Title Card Required
 -------------------
 Symbolic Z-matrix:
 Charge =  0 Multiplicity = 2

                         Standard orientation:
 ---------------------------------------------------------------------
 Center     Atomic      Atomic             Coordinates (Angstroms)
 Number     Number       Type             X           Y           Z
 ---------------------------------------------------------------------
      1          8           0        2.145651    1.314715    0.004903
      2          1           0        2.800834    1.193096    0.706926
      3          6           0        2.449771   -1.169436   -0.571287
      4          1           0        3.322834   -1.660330   -0.935844
      5          6           0        1.543637   -0.432271   -0.165897
      6          6           0        0.163790   -0.191508    0.324158
      7          8           0       -0.170614   -0.372863    1.459556
      8          8           0       -0.594225    0.291960   -0.648944
      9          6           0       -1.928929    0.692199   -0.273296
     10          6           0       -2.858394   -0.502962   -0.206315
     11          1           0       -2.223541    1.390577   -1.054276
     12          1           0       -1.876615    1.215124    0.682256
     13          1           0       -3.873837   -0.164367    0.008430
     14          1           0       -2.866053   -1.033427   -1.159720
     15          1           0       -2.549347   -1.187310    0.583931
 ---------------------------------------------------------------------

 SCF Done:  E(UM062X) =  -420.205558532     A.U. after   22 cycles

 The electronic state is 2-A.
 Alpha  occ. eigenvalues --  -19.68358 -19.64350 -19.63276 -10.70712 -10.61822
 Alpha  occ. eigenvalues --  -10.60562 -10.59510 -10.53821  -1.25900  -1.16585
 Alpha  occ. eigenvalues --   -1.10704  -0.91542  -0.87928  -0.78336  -0.71215
 Alpha  occ. eigenvalues --   -0.64874  -0.62427  -0.58728  -0.57039  -0.54261
 Alpha  occ. eigenvalues --   -0.53168  -0.49902  -0.48164  -0.46158  -0.45329
 Alpha  occ. eigenvalues --   -0.42130  -0.40203  -0.39808  -0.38490  -0.36707
 Alpha  occ. eigenvalues --   -0.32230
 Alpha virt. eigenvalues --   -0.00452  -0.00034   0.00597   0.01532   0.02202
 Alpha virt. eigenvalues --    0.02650   0.02948   0.03971   0.05421   0.06466
 Alpha virt. eigenvalues --    0.07162   0.07792   0.08214   0.08982   0.10473

  Beta  occ. eigenvalues --  -19.68360 -19.63354 -19.63293 -10.70667 -10.61962
  Beta  occ. eigenvalues --  -10.60562 -10.59064 -10.53821  -1.25889  -1.16614
  Beta  occ. eigenvalues --   -1.07101  -0.90519  -0.87117  -0.77858  -0.70662
  Beta  occ. eigenvalues --   -0.64640  -0.61729  -0.58622  -0.56715  -0.53818
  Beta  occ. eigenvalues --   -0.51875  -0.49259  -0.46688  -0.45307  -0.42365
  Beta  occ. eigenvalues --   -0.40906  -0.39534  -0.38639  -0.37916  -0.35346
  Beta virt. eigenvalues --   -0.09749  -0.00263   0.00311   0.01504   0.01909
  Beta virt. eigenvalues --    0.02197   0.02725   0.03087   0.04056   0.05462
  Beta virt. eigenvalues --    0.06173   0.07304   0.07818   0.08080   0.09027

 Mulliken charges and spin densities:
               1          2
     1  O   -0.271836   0.519419
     2  H    0.241959  -0.007680
     3  C   -0.013839   0.741127
     4  H    0.220460  -0.026268
     5  C    0.102227  -0.297633
     6  C   -0.345821   0.075436
     7  O   -0.210633  -0.008245
     8  O    0.048061   0.000789
     9  C   -0.268460   0.003258
    10  C   -0.423698  -0.000201
    11  H    0.201302   0.000335
    12  H    0.200203  -0.000784
    13  H    0.161697   0.000524
    14  H    0.165319  -0.000135
    15  H    0.193056   0.000057
 Sum of Mulliken charges =  -0.00000   1.00000

 Dipole moment (field-independent basis, Debye):
    X=             -0.0108    Y=             -1.4179    Z=             -0.9125  Tot=              1.6862
 Quadrupole moment (field-independent basis, Debye-Ang):
   XX=            -32.6049   YY=            -47.2834   ZZ=            -51.6472
   XY=             -7.1303   XZ=              1.8336   YZ=              4.1618

  Exact polarizability:  84.950  -5.071  76.449  -3.088   4.852  60.327
 Approx polarizability:  84.154  -9.473  91.193  -5.863   4.873  78.495

 ******    1 imaginary frequencies (negative Signs) ******

                      1                      2                      3
                      A                      A                      A
 Frequencies --   -691.7941                77.8738                86.4359
 Red. masses --     12.3438                 3.3061                 4.2571
 Frc consts  --      3.4806                 0.0118                 0.0187
 IR Inten    --      3.2805                 3.1412                 6.1181

                      4                      5                      6
                      A                      A                      A
 Frequencies --    115.0220               167.9726               199.2803
 Red. masses --      3.4628                 2.0804                 1.4085
 Frc consts  --      0.0270                 0.0346                 0.0330
 IR Inten    --      1.2680                46.9141                38.4298

                      7                      8                      9
                      A                      A                      A
 Frequencies --    206.8910               241.5774               289.7916
 Red. masses --      3.5153                 1.7023                 2.8176
 Frc consts  --      0.0887                 0.0585                 0.1394
 IR Inten    --      2.3207                 0.7794                 7.0295

                     10                     11                     12
                      A                      A                      A
 Frequencies --    341.2264               424.7140               491.6930
 Red. masses --      2.9492                 3.5650                 1.4173
 Frc consts  --      0.2023                 0.3789                 0.2019
 IR Inten    --     12.4635                 3.0700                33.0677

                     13                     14                     15
                      A                      A                      A
 Frequencies --    575.8299               614.7507               705.5386
 Red. masses --      3.8374                 6.4668                 1.3434
 Frc consts  --      0.7497                 1.4399                 0.3940
 IR Inten    --      5.9731                11.6321                39.7361

                     16                     17                     18
                      A                      A                      A
 Frequencies --    769.8531               800.2935               894.0071
 Red. masses --     10.4675                 1.1960                 3.0098
 Frc consts  --      3.6552                 0.4513                 1.4173
 IR Inten    --     29.4990                 4.9242                20.8191

                     19                     20                     21
                      A                      A                      A
 Frequencies --    916.3691               941.7624              1075.2554
 Red. masses --      2.3086                 1.2927                 3.9917
 Frc consts  --      1.1422                 0.6755                 2.7191
 IR Inten    --     10.6924                57.1559                22.0525

                     22                     23                     24
                      A                      A                      A
 Frequencies --   1127.7611              1202.6023              1285.6279
 Red. masses --      2.0779                 1.7692                 3.7722
 Frc consts  --      1.5571                 1.5075                 3.6735
 IR Inten    --     18.8113                 8.2798               560.9632

                     25                     26                     27
                      A                      A                      A
 Frequencies --   1348.3416              1400.7516              1431.2058
 Red. masses --      1.2408                 1.2793                 1.3866
 Frc consts  --      1.3291                 1.4790                 1.6735
 IR Inten    --     96.7617                30.1677                 6.1638

                     28                     29                     30
                      A                      A                      A
 Frequencies --   1492.4504              1503.1154              1515.6443
 Red. masses --      1.0408                 1.0592                 1.0863
 Frc consts  --      1.3659                 1.4100                 1.4703
 IR Inten    --     10.4323                 1.1598                15.0645

                     31                     32                     33
                      A                      A                      A
 Frequencies --   1846.1037              1977.2144              3075.4231
 Red. masses --     11.5510                 7.0215                 1.0354
 Frc consts  --     23.1944                16.1728                 5.7699
 IR Inten    --    324.6835                49.3936                10.4637

                     34                     35                     36
                      A                      A                      A
 Frequencies --   3108.9795              3150.3183              3155.5876
 Red. masses --      1.0608                 1.1013                 1.1047
 Frc consts  --      6.0414                 6.4400                 6.4814
 IR Inten    --     14.6849                14.5472                 2.0674

                     37                     38                     39
                      A                      A                      A
 Frequencies --   3176.5897              3460.0020              3836.2335
 Red. masses --      1.1075                 1.1335                 1.0677
 Frc consts  --      6.5845                 7.9950                 9.2579
 IR Inten    --     14.4841                77.7414                63.5724

 - Thermochemistry -
 -------------------
 Temperature   298.150 Kelvin.  Pressure   1.00000 Atm.
 Atom     1 has atomic number  8 and mass  15.99491

 Molecular mass:   115.03952 amu.
 Principal axes and moments of inertia in atomic units:
                           1         2         3
     Eigenvalues --   434.463131544.643021607.09678
           X            0.99998  -0.00357   0.00508
           Y            0.00289   0.99162   0.12917
           Z           -0.00549  -0.12915   0.99161
 This molecule is an asymmetric top.
 Rotational symmetry number  1.
 Warning -- assumption of classical behavior for rotation
           may cause significant error
 Rotational temperatures (Kelvin)      0.19936     0.05607     0.05389
 Rotational constants (GHZ):           4.15396     1.16839     1.12298
    1 imaginary frequencies ignored.
 Zero-point vibrational energy     293265.1 (Joules/Mol)
                                   70.09203 (Kcal/Mol)
 Warning -- explicit consideration of  13 degrees of freedom as
           vibrations may cause significant error
 Vibrational temperatures:    112.04   124.36   165.49   241.68   286.72
          (Kelvin)            297.67   347.58   416.95   490.95   611.07
                              707.44   828.49   884.49  1015.11  1107.65
                             1151.44  1286.28  1318.45  1354.99  1547.05
                             1622.60  1730.28  1849.73  1939.96  2015.37
                             2059.19  2147.30  2162.65  2180.67  2656.13
                             2844.77  4424.85  4473.13  4532.61  4540.19
                             4570.40  4978.17  5519.48

 Zero-point correction=                           0.111699 (Hartree/Particle)
 Thermal correction to Energy=                    0.121192
 Thermal correction to Enthalpy=                  0.122136
 Thermal correction to Gibbs Free Energy=         0.076579
 Sum of electronic and zero-point Energies=           -420.093860
 Sum of electronic and thermal Energies=              -420.084367
 Sum of electronic and thermal Enthalpies=            -420.083423
 Sum of electronic and thermal Free Energies=         -420.128980

                     E (Thermal)             CV                S
                      KCal/Mol        Cal/Mol-Kelvin    Cal/Mol-Kelvin
 Total                   76.049             32.309             95.883
 Electronic               0.000              0.000              1.377
 Translational            0.889              2.981             40.136
 Rotational               0.889              2.981             28.469
 Vibrational             74.272             26.347             25.902
 Vibration     1          0.599              1.964              3.944
 Vibration     2          0.601              1.959              3.739
 Vibration     3          0.608              1.937              3.182
 Vibration     4          0.625              1.882              2.458
 Vibration     5          0.637              1.841              2.140
 Vibration     6          0.641              1.830              2.071
 Vibration     7          0.658              1.777              1.791
 Vibration     8          0.686              1.693              1.475
 Vibration     9          0.721              1.593              1.206
 Vibration    10          0.787              1.416              0.876
 Vibration    11          0.847              1.268              0.679
 Vibration    12          0.932              1.084              0.493
 Vibration    13          0.974              1.001              0.425

 1\1\GINC-AJ\Freq\UM062X\6-311++G(d,p)\C5H7O3(2)\AAYUSH\16-Aug-2025\0\\
 # freq 6-311++g(d,p) m062x\\Title Card Required\\0,2\O,2.086912,1.3062
 78,-0.024012\H,2.74176,1.192839,0.679691\C,2.383677,-1.186793,-0.56439
 8\H,3.255274,-1.685457,-0.92185\C,1.479738,-0.4412,-0.169662\C,0.10062
 6,-0.189339,0.316871\O,-0.23427,-0.353351,1.454759\O,-0.655995,0.28231
 3,-0.663091\C,-1.989498,0.691854,-0.293247\C,-2.922484,-0.499471,-0.20
 9082\H,-2.282076,1.379789,-1.084197\H,-1.935605,1.228317,0.654682\H,-3
 .936915,-0.154825,0.000764\H,-2.931744,-1.043574,-1.154756\H,-2.615429

 Normal termination of Gaussian 16 at Sat Aug 16 18:05:49 2025.
