 Gaussian 16, Revision A.03,
 Gaussian 16:  ES64L-G16RevA.03 25-Dec-2016

 --------------------------
 # ccsd(t)/6-311++g(d,p) sp
 --------------------------

 -------------------
 Title Card Required
 -------------------
 Symbolic Z-matrix:
 Charge =  0 Multiplicity = 2

                         Standard orientation:
 ---------------------------------------------------------------------
 Center     Atomic      Atomic             Coordinates (Angstroms)
 Number     Number       Type             X           Y           Z
 ---------------------------------------------------------------------
      1          8           0        2.145651    1.314715    0.004903
      2          1           0        2.800834    1.193096    0.706926
      3          6           0        2.449771   -1.169436   -0.571287
      4          1           0        3.322834   -1.660330   -0.935844
      5          6           0        1.543637   -0.432271   -0.165897
      6          6           0        0.163790   -0.191508    0.324158
      7          8           0       -0.170614   -0.372863    1.459556
      8          8           0       -0.594225    0.291960   -0.648944
      9          6           0       -1.928929    0.692199   -0.273296
     10          6           0       -2.858394   -0.502962   -0.206315
     11          1           0       -2.223541    1.390577   -1.054276
     12          1           0       -1.876615    1.215124    0.682256
     13          1           0       -3.873837   -0.164367    0.008430
     14          1           0       -2.866053   -1.033427   -1.159720
     15          1           0       -2.549347   -1.187310    0.583931
 ---------------------------------------------------------------------

 SCF Done:  E(UHF) =  -417.976887302     A.U. after   30 cycles
 E2 =    -0.1257271230D+01 EUMP2 =    -0.41923415853213D+03
 CCSD(T)= -0.41935656789D+03

 The electronic state is 2-A.
 Alpha  occ. eigenvalues --  -20.61165 -20.61106 -20.55610 -11.41285 -11.29549
 Alpha  occ. eigenvalues --  -11.28048 -11.27629 -11.22478  -1.48144  -1.37799
 Alpha  occ. eigenvalues --   -1.36901  -1.08290  -1.04496  -0.92577  -0.84009
 Alpha  occ. eigenvalues --   -0.76560  -0.73174  -0.69728  -0.67759  -0.65399
 Alpha  occ. eigenvalues --   -0.63643  -0.62553  -0.58178  -0.54669  -0.53784
 Alpha  occ. eigenvalues --   -0.53142  -0.50296  -0.47700  -0.45994  -0.43546
 Alpha  occ. eigenvalues --   -0.42118
 Alpha virt. eigenvalues --    0.03698   0.04526   0.05793   0.06628   0.07019
 Alpha virt. eigenvalues --    0.08236   0.09246   0.11120   0.11378   0.12581
 Alpha virt. eigenvalues --    0.13393   0.13674   0.14426   0.14789   0.16875

  Beta  occ. eigenvalues --  -20.61114 -20.57903 -20.55979 -11.40912 -11.30200
  Beta  occ. eigenvalues --  -11.29551 -11.25013 -11.22479  -1.48286  -1.38376
  Beta  occ. eigenvalues --   -1.26056  -1.07637  -1.03446  -0.91315  -0.83036
  Beta  occ. eigenvalues --   -0.76216  -0.71840  -0.69889  -0.66610  -0.64028
  Beta  occ. eigenvalues --   -0.62984  -0.58676  -0.55115  -0.53968  -0.50992
  Beta  occ. eigenvalues --   -0.49594  -0.48526  -0.46944  -0.45777  -0.42313
  Beta virt. eigenvalues --    0.03813   0.04360   0.04564   0.06482   0.06955
  Beta virt. eigenvalues --    0.07647   0.08604   0.09305   0.10630   0.12464
  Beta virt. eigenvalues --    0.13128   0.13667   0.14063   0.14783   0.16214

 Mulliken charges and spin densities:
               1          2
     1  O   -0.192840   0.752254
     2  H    0.253821  -0.026266
     3  C   -0.143010   1.360550
     4  H    0.230784  -0.100100
     5  C    0.286583  -1.118691
     6  C   -0.367291   0.203473
     7  O   -0.290893  -0.074987
     8  O   -0.040972   0.002418
     9  C   -0.156011   0.002843
    10  C   -0.389752  -0.002219
    11  H    0.170607   0.000192
    12  H    0.182555   0.000012
    13  H    0.129429   0.000112
    14  H    0.144155   0.000043
    15  H    0.182836   0.000366
 Sum of Mulliken charges =  -0.00000   1.00000

 Dipole moment (field-independent basis, Debye):
    X=              0.4527    Y=             -0.6989    Z=             -0.9093  Tot=              1.2330
 Quadrupole moment (field-independent basis, Debye-Ang):
   XX=            -31.9317   YY=            -46.6938   ZZ=            -52.2538
   XY=             -5.4837   XZ=              2.2802   YZ=              4.3486

 3\PMP3-0=-419.2838146\MP4SDQ=-419.2929966\CCSD=-419.3015275\CCSD(T)=-4
 Normal termination of Gaussian 16 at Thu Aug  7 04:01:26 2025.
