 Gaussian 16, Revision A.03,
 Gaussian 16:  ES64L-G16RevA.03 25-Dec-2016

 --------------------------
 # ccsd(t)/6-311++g(d,p) sp
 --------------------------

 -------------------
 Title Card Required
 -------------------
 Symbolic Z-matrix:
 Charge =  0 Multiplicity = 2

                         Standard orientation:
 ---------------------------------------------------------------------
 Center     Atomic      Atomic             Coordinates (Angstroms)
 Number     Number       Type             X           Y           Z
 ---------------------------------------------------------------------
      1          8           0        2.156708    1.335998   -0.002536
      2          1           0        2.808946    1.203861    0.701779
      3          6           0        2.451768   -1.173468   -0.563110
      4          1           0        3.323782   -1.668966   -0.923377
      5          6           0        1.526663   -0.475369   -0.166929
      6          6           0        0.162910   -0.190564    0.325475
      7          8           0       -0.171465   -0.360529    1.462859
      8          8           0       -0.593894    0.288652   -0.651002
      9          6           0       -1.927932    0.693069   -0.278229
     10          6           0       -2.859061   -0.500442   -0.202597
     11          1           0       -2.221830    1.386034   -1.064307
     12          1           0       -1.875388    1.222902    0.673490
     13          1           0       -3.874037   -0.158872    0.009662
     14          1           0       -2.867389   -1.037845   -1.152098
     15          1           0       -2.550976   -1.179444    0.592625
 ---------------------------------------------------------------------

 SCF Done:  E(UHF) =  -417.977288111     A.U. after   34 cycles
 E2 =    -0.1255927495D+01 EUMP2 =    -0.41923321560624D+03
 CCSD(T)= -0.41935396978D+03

 The electronic state is 2-A.
 Alpha  occ. eigenvalues --  -20.61705 -20.61064 -20.55546 -11.41317 -11.29527
 Alpha  occ. eigenvalues --  -11.27408 -11.27005 -11.22454  -1.48098  -1.37775
 Alpha  occ. eigenvalues --   -1.37446  -1.08101  -1.04420  -0.92551  -0.83893
 Alpha  occ. eigenvalues --   -0.76471  -0.73124  -0.69693  -0.67823  -0.65604
 Alpha  occ. eigenvalues --   -0.64210  -0.62771  -0.58161  -0.54869  -0.53832
 Alpha  occ. eigenvalues --   -0.53398  -0.50290  -0.47608  -0.45937  -0.43338
 Alpha  occ. eigenvalues --   -0.42149
 Alpha virt. eigenvalues --    0.03709   0.04536   0.05777   0.06619   0.07024
 Alpha virt. eigenvalues --    0.08243   0.09256   0.10948   0.11375   0.12520
 Alpha virt. eigenvalues --    0.13413   0.13716   0.14438   0.14863   0.16845

  Beta  occ. eigenvalues --  -20.61073 -20.58146 -20.55938 -11.40949 -11.29528
  Beta  occ. eigenvalues --  -11.29146 -11.24902 -11.22455  -1.48252  -1.38352
  Beta  occ. eigenvalues --   -1.25229  -1.07733  -1.03499  -0.91433  -0.83116
  Beta  occ. eigenvalues --   -0.76195  -0.71909  -0.69819  -0.66584  -0.63900
  Beta  occ. eigenvalues --   -0.62965  -0.58626  -0.55148  -0.53965  -0.50912
  Beta  occ. eigenvalues --   -0.49684  -0.48495  -0.46933  -0.44942  -0.42314
  Beta virt. eigenvalues --    0.03813   0.04477   0.04595   0.06497   0.06973
  Beta virt. eigenvalues --    0.07787   0.08684   0.09337   0.10719   0.12255
  Beta virt. eigenvalues --    0.13111   0.13674   0.14078   0.14806   0.16062

 Mulliken charges and spin densities:
               1          2
     1  O   -0.173444   0.829335
     2  H    0.250519  -0.029406
     3  C   -0.340964   1.214676
     4  H    0.223029  -0.091460
     5  C    0.502693  -1.054127
     6  C   -0.403299   0.207650
     7  O   -0.287578  -0.080076
     8  O   -0.037737   0.001988
     9  C   -0.155967   0.002969
    10  C   -0.386160  -0.002246
    11  H    0.170947   0.000207
    12  H    0.181772  -0.000002
    13  H    0.129320   0.000096
    14  H    0.144280   0.000054
    15  H    0.182589   0.000342
 Sum of Mulliken charges =  -0.00000   1.00000

 Dipole moment (field-independent basis, Debye):
    X=              0.5041    Y=             -0.5259    Z=             -0.8693  Tot=              1.1342
 Quadrupole moment (field-independent basis, Debye-Ang):
   XX=            -31.7278   YY=            -46.4303   ZZ=            -52.3369
   XY=             -5.1068   XZ=              2.3914   YZ=              4.3142

 1\PMP3-0=-419.2809355\MP4SDQ=-419.2915929\CCSD=-419.2992884\CCSD(T)=-4
 Normal termination of Gaussian 16 at Fri Aug 29 19:12:22 2025.
