 Gaussian 16, Revision A.03,
 Gaussian 16:  ES64L-G16RevA.03 25-Dec-2016

 --------------------------
 # ccsd(t)/6-311++g(d,p) sp
 --------------------------

 -------------------
 Title Card Required
 -------------------
 Symbolic Z-matrix:
 Charge =  0 Multiplicity = 2

                         Standard orientation:
 ---------------------------------------------------------------------
 Center     Atomic      Atomic             Coordinates (Angstroms)
 Number     Number       Type             X           Y           Z
 ---------------------------------------------------------------------
      1          8           0        2.204185    1.425850   -0.031442
      2          1           0        2.831770    1.235854    0.685089
      3          6           0        2.457628   -1.203309   -0.533741
      4          1           0        3.350587   -1.672591   -0.875394
      5          6           0        1.459795   -0.640899   -0.165455
      6          6           0        0.154962   -0.201576    0.328667
      7          8           0       -0.176600   -0.309228    1.476076
      8          8           0       -0.592686    0.276086   -0.658435
      9          6           0       -1.923106    0.699370   -0.297454
     10          6           0       -2.861530   -0.487095   -0.189982
     11          1           0       -2.213411    1.371678   -1.102608
     12          1           0       -1.869809    1.254888    0.639390
     13          1           0       -3.874671   -0.134134    0.012195
     14          1           0       -2.871991   -1.050337   -1.124335
     15          1           0       -2.558159   -1.145967    0.623851
 ---------------------------------------------------------------------

 SCF Done:  E(UHF) =  -417.987504135     A.U. after   36 cycles
 E2 =    -0.1259563617D+01 EUMP2 =    -0.41924706775197D+03
 CCSD(T)= -0.41935534526D+03

 The electronic state is 2-A.
 Alpha  occ. eigenvalues --  -20.62819 -20.61057 -20.55614 -11.41456 -11.29505
 Alpha  occ. eigenvalues --  -11.26728 -11.25804 -11.22453  -1.48048  -1.38492
 Alpha  occ. eigenvalues --   -1.37717  -1.07756  -1.04161  -0.92560  -0.83742
 Alpha  occ. eigenvalues --   -0.76315  -0.73018  -0.69591  -0.67889  -0.66622
 Alpha  occ. eigenvalues --   -0.65205  -0.62937  -0.58164  -0.55581  -0.53991
 Alpha  occ. eigenvalues --   -0.53837  -0.50307  -0.47730  -0.46007  -0.42841
 Alpha  occ. eigenvalues --   -0.42137
 Alpha virt. eigenvalues --    0.03720   0.04548   0.05767   0.06601   0.07027
 Alpha virt. eigenvalues --    0.08282   0.09314   0.10058   0.11166   0.12325
 Alpha virt. eigenvalues --    0.13426   0.13822   0.14438   0.15115   0.16479

  Beta  occ. eigenvalues --  -20.61065 -20.58771 -20.55940 -11.41203 -11.29505
  Beta  occ. eigenvalues --  -11.27026 -11.25282 -11.22454  -1.48186  -1.38247
  Beta  occ. eigenvalues --   -1.23495  -1.07801  -1.03632  -0.91941  -0.83460
  Beta  occ. eigenvalues --   -0.76220  -0.72323  -0.69646  -0.66571  -0.63505
  Beta  occ. eigenvalues --   -0.62985  -0.58463  -0.55224  -0.53999  -0.50784
  Beta  occ. eigenvalues --   -0.49948  -0.48451  -0.46801  -0.43199  -0.42275
  Beta virt. eigenvalues --    0.03789   0.04553   0.04941   0.06520   0.06995
  Beta virt. eigenvalues --    0.08131   0.09036   0.09495   0.10618   0.11336
  Beta virt. eigenvalues --    0.13012   0.13547   0.14017   0.14777   0.15681

 Mulliken charges and spin densities:
               1          2
     1  O   -0.160113   0.969797
     2  H    0.239289  -0.036042
     3  C   -1.617939   0.624899
     4  H    0.199783  -0.050471
     5  C    1.699028  -0.639423
     6  C   -0.340851   0.197025
     7  O   -0.272784  -0.067236
     8  O   -0.024220   0.001248
     9  C   -0.152214   0.001575
    10  C   -0.379157  -0.001653
    11  H    0.171773   0.000100
    12  H    0.181723   0.000081
    13  H    0.130528  -0.000027
    14  H    0.145374   0.000122
    15  H    0.179779   0.000005
 Sum of Mulliken charges =  -0.00000   1.00000

 Dipole moment (field-independent basis, Debye):
    X=              0.6053    Y=             -0.2149    Z=             -0.7591  Tot=              0.9944
 Quadrupole moment (field-independent basis, Debye-Ang):
   XX=            -31.0973   YY=            -46.2313   ZZ=            -52.6043
   XY=             -4.4209   XZ=              2.7157   YZ=              4.1112

 517\PMP3-0=-419.2821681\MP4SDQ=-419.3005256\CCSD=-419.3024237\CCSD(T)=
 Normal termination of Gaussian 16 at Sat Aug 30 02:20:57 2025.
