 Gaussian 16, Revision A.03,
 Gaussian 16:  ES64L-G16RevA.03 25-Dec-2016

 --------------------------
 # ccsd(t)/6-311++g(d,p) sp
 --------------------------

 -------------------
 Title Card Required
 -------------------
 Symbolic Z-matrix:
 Charge =  0 Multiplicity = 2

                         Standard orientation:
 ---------------------------------------------------------------------
 Center     Atomic      Atomic             Coordinates (Angstroms)
 Number     Number       Type             X           Y           Z
 ---------------------------------------------------------------------
      1          8           0        2.168158    1.357654   -0.009738
      2          1           0        2.816644    1.213861    0.696746
      3          6           0        2.453365   -1.179001   -0.555447
      4          1           0        3.327710   -1.673186   -0.911147
      5          6           0        1.509561   -0.517932   -0.167343
      6          6           0        0.161905   -0.191045    0.326492
      7          8           0       -0.172517   -0.348222    1.466108
      8          8           0       -0.593613    0.285621   -0.652943
      9          6           0       -1.926844    0.694240   -0.283029
     10          6           0       -2.859758   -0.497542   -0.199133
     11          1           0       -2.220072    1.381989   -1.073955
     12          1           0       -1.874181    1.230643    0.664996
     13          1           0       -3.874255   -0.153026    0.010675
     14          1           0       -2.868728   -1.041605   -1.144821
     15          1           0       -2.552707   -1.171417    0.600846
 ---------------------------------------------------------------------

 SCF Done:  E(UHF) =  -417.979177380     A.U. after   36 cycles
 E2 =    -0.1256080432D+01 EUMP2 =    -0.41923525781116D+03
 CCSD(T)= -0.41935308501D+03

 The electronic state is 2-A.
 Alpha  occ. eigenvalues --  -20.62119 -20.61040 -20.55524 -11.41349 -11.29510
 Alpha  occ. eigenvalues --  -11.27094 -11.26436 -11.22439  -1.48062  -1.37965
 Alpha  occ. eigenvalues --   -1.37644  -1.07963  -1.04345  -0.92546  -0.83822
 Alpha  occ. eigenvalues --   -0.76402  -0.73082  -0.69667  -0.67871  -0.65877
 Alpha  occ. eigenvalues --   -0.64660  -0.62846  -0.58151  -0.55097  -0.53876
 Alpha  occ. eigenvalues --   -0.53547  -0.50283  -0.47572  -0.45916  -0.43164
 Alpha  occ. eigenvalues --   -0.42151
 Alpha virt. eigenvalues --    0.03717   0.04543   0.05767   0.06612   0.07029
 Alpha virt. eigenvalues --    0.08252   0.09268   0.10738   0.11342   0.12478
 Alpha virt. eigenvalues --    0.13426   0.13750   0.14435   0.14932   0.16754

  Beta  occ. eigenvalues --  -20.61049 -20.58358 -20.55919 -11.41000 -11.29511
  Beta  occ. eigenvalues --  -11.28332 -11.24891 -11.22440  -1.48222  -1.38322
  Beta  occ. eigenvalues --   -1.24613  -1.07793  -1.03539  -0.91565  -0.83212
  Beta  occ. eigenvalues --   -0.76186  -0.71995  -0.69761  -0.66569  -0.63792
  Beta  occ. eigenvalues --   -0.62963  -0.58580  -0.55176  -0.53965  -0.50864
  Beta  occ. eigenvalues --   -0.49774  -0.48477  -0.46909  -0.44298  -0.42302
  Beta virt. eigenvalues --    0.03810   0.04532   0.04671   0.06508   0.06985
  Beta virt. eigenvalues --    0.07905   0.08772   0.09375   0.10772   0.12013
  Beta virt. eigenvalues --    0.13103   0.13666   0.14076   0.14814   0.15916

 Mulliken charges and spin densities:
               1          2
     1  O   -0.163068   0.883409
     2  H    0.247341  -0.031669
     3  C   -0.593571   1.062146
     4  H    0.216175  -0.081185
     5  C    0.751632  -0.963519
     6  C   -0.411337   0.209113
     7  O   -0.283582  -0.081189
     8  O   -0.033791   0.001607
     9  C   -0.155106   0.002842
    10  C   -0.383228  -0.002173
    11  H    0.171290   0.000206
    12  H    0.181224  -0.000014
    13  H    0.129414   0.000066
    14  H    0.144455   0.000074
    15  H    0.182152   0.000287
 Sum of Mulliken charges =  -0.00000   1.00000

 Dipole moment (field-independent basis, Debye):
    X=              0.5472    Y=             -0.3912    Z=             -0.8342  Tot=              1.0716
 Quadrupole moment (field-independent basis, Debye-Ang):
   XX=            -31.5345   YY=            -46.2671   ZZ=            -52.4141
   XY=             -4.8128   XZ=              2.4885   YZ=              4.2702

 6\CCSD(T)=-419.353085\S2=1.01694\S2-1=0.943439\S2A=0.792768\RMSD=4.818
 Normal termination of Gaussian 16 at Fri Aug 29 20:56:18 2025.
