 Gaussian 16, Revision A.03,
 Gaussian 16:  ES64L-G16RevA.03 25-Dec-2016

 --------------------------
 # ccsd(t)/6-311++g(d,p) sp
 --------------------------

 -------------------
 Title Card Required
 -------------------
 Symbolic Z-matrix:
 Charge =  0 Multiplicity = 2

                         Standard orientation:
 ---------------------------------------------------------------------
 Center     Atomic      Atomic             Coordinates (Angstroms)
 Number     Number       Type             X           Y           Z
 ---------------------------------------------------------------------
      1          8           0        2.197945    1.414116   -0.027722
      2          1           0        2.830493    1.232810    0.686470
      3          6           0        2.457127   -1.198373   -0.537342
      4          1           0        3.345888   -1.673903   -0.881355
      5          6           0        1.467772   -0.621065   -0.166030
      6          6           0        0.156692   -0.198620    0.328378
      7          8           0       -0.175856   -0.316099    1.474371
      8          8           0       -0.592863    0.277947   -0.657530
      9          6           0       -1.923829    0.698294   -0.295009
     10          6           0       -2.861287   -0.489111   -0.191425
     11          1           0       -2.214824    1.373211   -1.097741
     12          1           0       -1.870780    1.250597    0.643773
     13          1           0       -3.874639   -0.137507    0.012082
     14          1           0       -2.871564   -1.049172   -1.127694
     15          1           0       -2.557231   -1.150499    0.620089
 ---------------------------------------------------------------------

 SCF Done:  E(UHF) =  -417.986132508     A.U. after   40 cycles
 E2 =    -0.1258979639D+01 EUMP2 =    -0.41924511214741D+03
 CCSD(T)= -0.41935476777D+03

 The electronic state is 2-A.
 Alpha  occ. eigenvalues --  -20.62744 -20.61048 -20.55589 -11.41436 -11.29502
 Alpha  occ. eigenvalues --  -11.26748 -11.25829 -11.22446  -1.48042  -1.38451
 Alpha  occ. eigenvalues --   -1.37699  -1.07775  -1.04187  -0.92560  -0.83749
 Alpha  occ. eigenvalues --   -0.76320  -0.73024  -0.69603  -0.67896  -0.66537
 Alpha  occ. eigenvalues --   -0.65156  -0.62926  -0.58159  -0.55527  -0.53968
 Alpha  occ. eigenvalues --   -0.53795  -0.50298  -0.47686  -0.45982  -0.42878
 Alpha  occ. eigenvalues --   -0.42133
 Alpha virt. eigenvalues --    0.03721   0.04548   0.05765   0.06602   0.07028
 Alpha virt. eigenvalues --    0.08277   0.09305   0.10167   0.11196   0.12363
 Alpha virt. eigenvalues --    0.13429   0.13814   0.14430   0.15085   0.16517

  Beta  occ. eigenvalues --  -20.61057 -20.58722 -20.55932 -11.41165 -11.29502
  Beta  occ. eigenvalues --  -11.27153 -11.25188 -11.22447  -1.48187  -1.38258
  Beta  occ. eigenvalues --   -1.23627  -1.07811  -1.03617  -0.91887  -0.83429
  Beta  occ. eigenvalues --   -0.76211  -0.72268  -0.69660  -0.66566  -0.63550
  Beta  occ. eigenvalues --   -0.62979  -0.58480  -0.55220  -0.53990  -0.50795
  Beta  occ. eigenvalues --   -0.49927  -0.48454  -0.46819  -0.43315  -0.42275
  Beta virt. eigenvalues --    0.03793   0.04553   0.04903   0.06519   0.06995
  Beta virt. eigenvalues --    0.08104   0.08996   0.09477   0.10685   0.11422
  Beta virt. eigenvalues --    0.13043   0.13571   0.14029   0.14785   0.15696

 Mulliken charges and spin densities:
               1          2
     1  O   -0.159166   0.960322
     2  H    0.240446  -0.035410
     3  C   -1.428446   0.691887
     4  H    0.202335  -0.055069
     5  C    1.515951  -0.694077
     6  C   -0.349222   0.201416
     7  O   -0.274153  -0.070750
     8  O   -0.025138   0.001234
     9  C   -0.152053   0.001868
    10  C   -0.379532  -0.001756
    11  H    0.171823   0.000132
    12  H    0.181411   0.000043
    13  H    0.130303  -0.000015
    14  H    0.145185   0.000116
    15  H    0.180255   0.000057
 Sum of Mulliken charges =  -0.00000   1.00000

 Dipole moment (field-independent basis, Debye):
    X=              0.6030    Y=             -0.2247    Z=             -0.7691  Tot=              1.0028
 Quadrupole moment (field-independent basis, Debye-Ang):
   XX=            -31.1515   YY=            -46.2019   ZZ=            -52.5770
   XY=             -4.4458   XZ=              2.6823   YZ=              4.1403

 Normal termination of Gaussian 16 at Sat Aug 30 01:30:42 2025.
