 Gaussian 16, Revision A.03,
 Gaussian 16:  ES64L-G16RevA.03 25-Dec-2016

 --------------------------
 # freq 6-311++g(d,p) m062x
 --------------------------

 -------------------
 Title Card Required
 -------------------
 Symbolic Z-matrix:
 Charge =  0 Multiplicity = 2

                         Standard orientation:
 ---------------------------------------------------------------------
 Center     Atomic      Atomic             Coordinates (Angstroms)
 Number     Number       Type             X           Y           Z
 ---------------------------------------------------------------------
      1          8           0        2.140278    1.303931    0.008952
      2          1           0        2.796983    1.187654    0.709714
      3          6           0        2.448378   -1.167545   -0.575749
      4          1           0        3.323243   -1.653944   -0.942476
      5          6           0        1.552063   -0.410765   -0.165316
      6          6           0        0.164377   -0.192294    0.323362
      7          8           0       -0.170226   -0.379483    1.457738
      8          8           0       -0.594409    0.293864   -0.647801
      9          6           0       -1.929383    0.691946   -0.270584
     10          6           0       -2.858105   -0.503972   -0.208335
     11          1           0       -2.224358    1.393307   -1.048749
     12          1           0       -1.877181    1.211057    0.687065
     13          1           0       -3.873764   -0.166892    0.007763
     14          1           0       -2.865449   -1.030630   -1.163853
     15          1           0       -2.548594   -1.191267    0.579160
 ---------------------------------------------------------------------

 SCF Done:  E(UM062X) =  -420.207869442     A.U. after   21 cycles

 The electronic state is 2-A.
 Alpha  occ. eigenvalues --  -19.68367 -19.64230 -19.63293 -10.70665 -10.62263
 Alpha  occ. eigenvalues --  -10.60565 -10.59589 -10.53824  -1.25904  -1.16590
 Alpha  occ. eigenvalues --   -1.10699  -0.91535  -0.87936  -0.78320  -0.71246
 Alpha  occ. eigenvalues --   -0.64886  -0.62384  -0.58755  -0.57089  -0.54326
 Alpha  occ. eigenvalues --   -0.53206  -0.49837  -0.48176  -0.46143  -0.45322
 Alpha  occ. eigenvalues --   -0.42148  -0.40174  -0.39795  -0.38496  -0.36618
 Alpha  occ. eigenvalues --   -0.31915
 Alpha virt. eigenvalues --   -0.00412   0.00052   0.00688   0.01512   0.02147
 Alpha virt. eigenvalues --    0.02637   0.02921   0.03974   0.05417   0.06475
 Alpha virt. eigenvalues --    0.07154   0.07797   0.08243   0.08973   0.10479

  Beta  occ. eigenvalues --  -19.68367 -19.63336 -19.63307 -10.70617 -10.62414
  Beta  occ. eigenvalues --  -10.60565 -10.59099 -10.53824  -1.25888  -1.16612
  Beta  occ. eigenvalues --   -1.07503  -0.90458  -0.87047  -0.77792  -0.70626
  Beta  occ. eigenvalues --   -0.64632  -0.61647  -0.58634  -0.56747  -0.53851
  Beta  occ. eigenvalues --   -0.52106  -0.49288  -0.46684  -0.45297  -0.42506
  Beta  occ. eigenvalues --   -0.41288  -0.39465  -0.38669  -0.38048  -0.35250
  Beta virt. eigenvalues --   -0.09540  -0.00266   0.00318   0.01597   0.01947
  Beta virt. eigenvalues --    0.02151   0.02723   0.03082   0.04063   0.05461
  Beta virt. eigenvalues --    0.06160   0.07296   0.07819   0.08075   0.09010

 Mulliken charges and spin densities:
               1          2
     1  O   -0.277449   0.460982
     2  H    0.244714  -0.005536
     3  C    0.030213   0.806113
     4  H    0.223280  -0.027655
     5  C    0.040271  -0.309153
     6  C   -0.323778   0.077733
     7  O   -0.212267  -0.006877
     8  O    0.047301   0.001150
     9  C   -0.268679   0.003235
    10  C   -0.425133   0.000059
    11  H    0.201024   0.000323
    12  H    0.200379  -0.000750
    13  H    0.161754   0.000554
    14  H    0.165326  -0.000155
    15  H    0.193044  -0.000023
 Sum of Mulliken charges =  -0.00000   1.00000

 Dipole moment (field-independent basis, Debye):
    X=             -0.0196    Y=             -1.4237    Z=             -0.9182  Tot=              1.6942
 Quadrupole moment (field-independent basis, Debye-Ang):
   XX=            -32.6721   YY=            -47.4095   ZZ=            -51.6277
   XY=             -7.1144   XZ=              1.8107   YZ=              4.1591

  Exact polarizability:  84.645  -5.208  75.078  -3.030   4.616  60.274
 Approx polarizability:  83.541  -9.064  90.587  -5.587   4.678  78.426

 ******    1 imaginary frequencies (negative Signs) ******

                      1                      2                      3
                      A                      A                      A
 Frequencies --   -669.0465                80.4209                89.7002
 Red. masses --     11.8397                 3.0697                 4.4280
 Frc consts  --      3.1225                 0.0117                 0.0210
 IR Inten    --      1.0748                 3.3021                 6.4620

                      4                      5                      6
                      A                      A                      A
 Frequencies --    115.5385               169.6160               197.2073
 Red. masses --      3.3183                 1.7829                 1.5445
 Frc consts  --      0.0261                 0.0302                 0.0354
 IR Inten    --      1.7669                56.8955                27.5931

                      7                      8                      9
                      A                      A                      A
 Frequencies --    215.0357               245.6333               293.9044
 Red. masses --      3.0728                 1.9431                 2.3082
 Frc consts  --      0.0837                 0.0691                 0.1175
 IR Inten    --      3.1767                 0.9161                10.0037

                     10                     11                     12
                      A                      A                      A
 Frequencies --    342.0776               421.4301               439.9111
 Red. masses --      2.9755                 2.4617                 2.0374
 Frc consts  --      0.2051                 0.2576                 0.2323
 IR Inten    --     12.3937                16.0961                18.1052

                     13                     14                     15
                      A                      A                      A
 Frequencies --    579.8090               618.3458               701.7520
 Red. masses --      3.8500                 6.1815                 1.3557
 Frc consts  --      0.7626                 1.3925                 0.3934
 IR Inten    --      5.8673                12.5318                39.8675

                     16                     17                     18
                      A                      A                      A
 Frequencies --    772.2368               800.5885               894.3689
 Red. masses --     10.2487                 1.2014                 3.1554
 Frc consts  --      3.6010                 0.4537                 1.4871
 IR Inten    --     26.2273                 4.9131                19.1690

                     19                     20                     21
                      A                      A                      A
 Frequencies --    917.8774               973.5369              1075.2378
 Red. masses --      2.6951                 1.1813                 3.9501
 Frc consts  --      1.3378                 0.6597                 2.6907
 IR Inten    --      4.6007                58.8329                22.6522

                     22                     23                     24
                      A                      A                      A
 Frequencies --   1127.7943              1202.6018              1285.3404
 Red. masses --      2.0759                 1.7686                 3.7794
 Frc consts  --      1.5557                 1.5070                 3.6788
 IR Inten    --     18.7167                 8.3425               554.9720

                     25                     26                     27
                      A                      A                      A
 Frequencies --   1348.2954              1400.8049              1431.2970
 Red. masses --      1.2401                 1.2791                 1.3866
 Frc consts  --      1.3282                 1.4788                 1.6736
 IR Inten    --     95.5466                29.3708                 6.3905

                     28                     29                     30
                      A                      A                      A
 Frequencies --   1492.5288              1503.1818              1515.7493
 Red. masses --      1.0408                 1.0591                 1.0865
 Frc consts  --      1.3660                 1.4100                 1.4707
 IR Inten    --     10.3887                 1.1592                15.1094

                     31                     32                     33
                      A                      A                      A
 Frequencies --   1844.5978              1945.7937              3075.4231
 Red. masses --     11.2661                 7.2352                 1.0354
 Frc consts  --     22.5854                16.1396                 5.7699
 IR Inten    --    313.2727                45.5976                10.4588

                     34                     35                     36
                      A                      A                      A
 Frequencies --   3108.9703              3150.3002              3155.5834
 Red. masses --      1.0608                 1.1014                 1.1047
 Frc consts  --      6.0412                 6.4400                 6.4814
 IR Inten    --     14.8143                14.5211                 2.1198

                     37                     38                     39
                      A                      A                      A
 Frequencies --   3176.5652              3456.3281              3841.5344
 Red. masses --      1.1075                 1.1307                 1.0677
 Frc consts  --      6.5845                 7.9582                 9.2836
 IR Inten    --     14.4780                79.2689                64.7707

 - Thermochemistry -
 -------------------
 Temperature   298.150 Kelvin.  Pressure   1.00000 Atm.
 Atom     1 has atomic number  8 and mass  15.99491

 Molecular mass:   115.03952 amu.
 Principal axes and moments of inertia in atomic units:
                           1         2         3
     Eigenvalues --   431.991761543.873201604.29531
           X            0.99998  -0.00356   0.00503
           Y            0.00285   0.99089   0.13461
           Z           -0.00546  -0.13459   0.99089
 This molecule is an asymmetric top.
 Rotational symmetry number  1.
 Rotational temperatures (Kelvin)      0.20050     0.05610     0.05399
 Rotational constants (GHZ):           4.17772     1.16897     1.12494
    1 imaginary frequencies ignored.
 Zero-point vibrational energy     293126.5 (Joules/Mol)
                                   70.05891 (Kcal/Mol)
 Warning -- explicit consideration of  13 degrees of freedom as
           vibrations may cause significant error
 Vibrational temperatures:    115.71   129.06   166.23   244.04   283.74
          (Kelvin)            309.39   353.41   422.86   492.17   606.34
                              632.93   834.22   889.66  1009.66  1111.08
                             1151.87  1286.80  1320.62  1400.70  1547.03
                             1622.64  1730.28  1849.32  1939.90  2015.45
                             2059.32  2147.42  2162.74  2180.83  2653.96
                             2799.56  4424.85  4473.11  4532.58  4540.18
                             4570.37  4972.89  5527.11

 Zero-point correction=                           0.111646 (Hartree/Particle)
 Thermal correction to Energy=                    0.121139
 Thermal correction to Enthalpy=                  0.122083
 Thermal correction to Gibbs Free Energy=         0.076595
 Sum of electronic and zero-point Energies=           -420.096223
 Sum of electronic and thermal Energies=              -420.086731
 Sum of electronic and thermal Enthalpies=            -420.085787
 Sum of electronic and thermal Free Energies=         -420.131274

                     E (Thermal)             CV                S
                      KCal/Mol        Cal/Mol-Kelvin    Cal/Mol-Kelvin
 Total                   76.016             32.347             95.737
 Electronic               0.000              0.000              1.377
 Translational            0.889              2.981             40.136
 Rotational               0.889              2.981             28.461
 Vibrational             74.238             26.385             25.763
 Vibration     1          0.600              1.962              3.881
 Vibration     2          0.602              1.956              3.667
 Vibration     3          0.608              1.937              3.174
 Vibration     4          0.625              1.880              2.440
 Vibration     5          0.637              1.844              2.159
 Vibration     6          0.645              1.818              2.001
 Vibration     7          0.660              1.770              1.762
 Vibration     8          0.689              1.685              1.451
 Vibration     9          0.721              1.591              1.202
 Vibration    10          0.784              1.424              0.887
 Vibration    11          0.800              1.383              0.827
 Vibration    12          0.936              1.075              0.486
 Vibration    13          0.978              0.993              0.419

 1\1\GINC-AJ\Freq\UM062X\6-311++G(d,p)\C5H7O3(2)\AAYUSH\16-Aug-2025\0\\
 # freq 6-311++g(d,p) m062x\\Title Card Required\\0,2\O,2.082316,1.2940
 95,-0.025044\H,2.738638,1.188366,0.677745\C,2.381487,-1.188811,-0.5641
 79\H,3.254575,-1.685019,-0.921888\C,1.487924,-0.421388,-0.167745\C,0.1
 01062,-0.188972,0.316819\O,-0.234148,-0.354056,1.454444\O,-0.656026,0.
 281967,-0.663129\C,-1.989537,0.691723,-0.293311\C,-2.922553,-0.499498,
 -0.209081\H,-2.282031,1.379707,-1.084249\H,-1.935412,1.228171,0.654627
 \H,-3.93698,-0.154846,0.00077\H,-2.931847,-1.043614,-1.15475\H,-2.6154

 Normal termination of Gaussian 16 at Sat Aug 16 18:03:29 2025.
