 Gaussian 16, Revision A.03,
 Gaussian 16:  ES64L-G16RevA.03 25-Dec-2016

 --------------------------
 # freq 6-311++g(d,p) m062x
 --------------------------

 -------------------
 Title Card Required
 -------------------
 Symbolic Z-matrix:
 Charge =  0 Multiplicity = 2

                         Standard orientation:
 ---------------------------------------------------------------------
 Center     Atomic      Atomic             Coordinates (Angstroms)
 Number     Number       Type             X           Y           Z
 ---------------------------------------------------------------------
      1          8           0        2.231333    1.473970   -0.047126
      2          1           0        2.830854    1.249288    0.683965
      3          6           0        2.456420   -1.226437   -0.519422
      4          1           0        3.366342   -1.668820   -0.851996
      5          6           0        1.429220   -0.716732   -0.162246
      6          6           0        0.146378   -0.217619    0.329745
      7          8           0       -0.179145   -0.281135    1.482666
      8          8           0       -0.592218    0.265307   -0.662304
      9          6           0       -1.918914    0.704985   -0.307274
     10          6           0       -2.862775   -0.476143   -0.183882
     11          1           0       -2.204825    1.367018   -1.122378
     12          1           0       -1.862517    1.273538    0.621399
     13          1           0       -3.874854   -0.117264    0.012875
     14          1           0       -2.874199   -1.052123   -1.110413
     15          1           0       -2.562528   -1.125093    0.639131
 ---------------------------------------------------------------------

 SCF Done:  E(UM062X) =  -420.207623047     A.U. after   22 cycles

 The electronic state is 2-A.
 Alpha  occ. eigenvalues --  -19.68057 -19.67635 -19.62953 -10.70563 -10.60379
 Alpha  occ. eigenvalues --  -10.57653 -10.57372 -10.53707  -1.25536  -1.16224
 Alpha  occ. eigenvalues --   -1.13307  -0.90539  -0.87180  -0.78045  -0.70526
 Alpha  occ. eigenvalues --   -0.64347  -0.61539  -0.58452  -0.56558  -0.55172
 Alpha  occ. eigenvalues --   -0.53442  -0.50585  -0.48514  -0.46452  -0.45247
 Alpha  occ. eigenvalues --   -0.42610  -0.41747  -0.39539  -0.38263  -0.36439
 Alpha  occ. eigenvalues --   -0.36123
 Alpha virt. eigenvalues --   -0.01184  -0.00342   0.00511   0.01566   0.02346
 Alpha virt. eigenvalues --    0.02804   0.03597   0.04268   0.05534   0.06791
 Alpha virt. eigenvalues --    0.07391   0.07824   0.08414   0.09385   0.10280

  Beta  occ. eigenvalues --  -19.68061 -19.66052 -19.62964 -10.70553 -10.60379
  Beta  occ. eigenvalues --  -10.57617 -10.57315 -10.53708  -1.25543  -1.16248
  Beta  occ. eigenvalues --   -1.05643  -0.90326  -0.86970  -0.77959  -0.70439
  Beta  occ. eigenvalues --   -0.64322  -0.61337  -0.58380  -0.56374  -0.53408
  Beta  occ. eigenvalues --   -0.52172  -0.49201  -0.46625  -0.45250  -0.41920
  Beta  occ. eigenvalues --   -0.39504  -0.39069  -0.38284  -0.37964  -0.36157
  Beta virt. eigenvalues --   -0.08741  -0.00747  -0.00204   0.00557   0.01871
  Beta virt. eigenvalues --    0.02453   0.02839   0.03619   0.04378   0.05563
  Beta virt. eigenvalues --    0.06796   0.07458   0.07878   0.08543   0.09573

 Mulliken charges and spin densities:
               1          2
     1  O   -0.214135   0.937379
     2  H    0.235187  -0.021090
     3  C   -0.478186   0.128084
     4  H    0.200374  -0.006915
     5  C    1.007975  -0.022994
     6  C   -0.841131  -0.007839
     7  O   -0.195194  -0.004909
     8  O    0.055991   0.000592
     9  C   -0.265220  -0.001278
    10  C   -0.417015  -0.000686
    11  H    0.196068  -0.000170
    12  H    0.198168  -0.000296
    13  H    0.163334   0.000090
    14  H    0.166573   0.000113
    15  H    0.187210  -0.000082
 Sum of Mulliken charges =  -0.00000   1.00000

 Dipole moment (field-independent basis, Debye):
    X=              0.2821    Y=             -0.5594    Z=             -0.6520  Tot=              0.9042
 Quadrupole moment (field-independent basis, Debye-Ang):
   XX=            -31.6703   YY=            -46.5929   ZZ=            -52.0876
   XY=             -5.0219   XZ=              2.7060   YZ=              3.7954

  Exact polarizability:  87.222  -8.579  65.639  -4.189   2.610  60.106
 Approx polarizability:  90.840 -13.433  73.137  -8.183   2.508  78.320

 ******    1 imaginary frequencies (negative Signs) ******

                      1                      2                      3
                      A                      A                      A
 Frequencies --    -23.2682                47.6678                99.9926
 Red. masses --      5.2359                 4.6333                 5.4943
 Frc consts  --      0.0017                 0.0062                 0.0324
 IR Inten    --      7.7395                 1.9468                 4.6962

                      4                      5                      6
                      A                      A                      A
 Frequencies --    114.6816               158.4350               191.0684
 Red. masses --      3.4672                 2.5389                 2.1171
 Frc consts  --      0.0269                 0.0375                 0.0455
 IR Inten    --      3.2136                17.3901                27.1326

                      7                      8                      9
                      A                      A                      A
 Frequencies --    215.2527               229.8727               292.6747
 Red. masses --      1.9789                 1.3277                 3.8777
 Frc consts  --      0.0540                 0.0413                 0.1957
 IR Inten    --     37.4424                 0.5924                 8.7466

                     10                     11                     12
                      A                      A                      A
 Frequencies --    339.6936               423.2597               495.7129
 Red. masses --      2.9392                 3.8728                 1.0820
 Frc consts  --      0.1998                 0.4088                 0.1567
 IR Inten    --     10.5899                 0.3779               122.4740

                     13                     14                     15
                      A                      A                      A
 Frequencies --    564.6736               607.4849               725.1788
 Red. masses --      3.9532                 7.0874                 1.3269
 Frc consts  --      0.7427                 1.5410                 0.4111
 IR Inten    --      4.8533                 7.2364                37.6585

                     16                     17                     18
                      A                      A                      A
 Frequencies --    760.6193               782.0774               799.9330
 Red. masses --      1.3285                 7.4746                 1.2121
 Frc consts  --      0.4528                 2.6936                 0.4570
 IR Inten    --     24.1249                48.0426                 5.2094

                     19                     20                     21
                      A                      A                      A
 Frequencies --    895.8443               927.7718              1075.4040
 Red. masses --      3.1462                 2.8179                 4.1698
 Frc consts  --      1.4876                 1.4291                 2.8412
 IR Inten    --     14.9160                 6.1009                21.2647

                     22                     23                     24
                      A                      A                      A
 Frequencies --   1127.1152              1203.0754              1293.1292
 Red. masses --      2.0997                 1.7753                 3.4938
 Frc consts  --      1.5716                 1.5139                 3.4422
 IR Inten    --     22.1420                 4.8249               554.7631

                     25                     26                     27
                      A                      A                      A
 Frequencies --   1346.3942              1400.2246              1429.0393
 Red. masses --      1.2657                 1.2890                 1.3898
 Frc consts  --      1.3518                 1.4890                 1.6722
 IR Inten    --    113.9769                33.5841                10.0311

                     28                     29                     30
                      A                      A                      A
 Frequencies --   1492.4201              1502.9656              1514.4806
 Red. masses --      1.0409                 1.0605                 1.0857
 Frc consts  --      1.3659                 1.4114                 1.4671
 IR Inten    --     10.4819                 1.9652                17.7423

                     31                     32                     33
                      A                      A                      A
 Frequencies --   1839.5251              2247.0208              3075.1310
 Red. masses --     12.0019                 5.8244                 1.0353
 Frc consts  --     23.9282                17.3267                 5.7682
 IR Inten    --    328.7652                58.2303                10.6707

                     34                     35                     36
                      A                      A                      A
 Frequencies --   3109.5375              3150.5356              3154.8368
 Red. masses --      1.0608                 1.1014                 1.1047
 Frc consts  --      6.0434                 6.4410                 6.4780
 IR Inten    --     16.3894                15.2081                 2.1575

                     37                     38                     39
                      A                      A                      A
 Frequencies --   3176.0855              3488.0337              3793.5518
 Red. masses --      1.1076                 1.1676                 1.0672
 Frc consts  --      6.5830                 8.3695                 9.0487
 IR Inten    --     14.6407                65.8515                33.4432

 - Thermochemistry -
 -------------------
 Temperature   298.150 Kelvin.  Pressure   1.00000 Atm.
 Atom     1 has atomic number  8 and mass  15.99491

 Molecular mass:   115.03952 amu.
 Principal axes and moments of inertia in atomic units:
                           1         2         3
     Eigenvalues --   478.560811556.911341657.17286
           X            0.99998  -0.00401   0.00565
           Y            0.00360   0.99755   0.06985
           Z           -0.00591  -0.06983   0.99754
 This molecule is an asymmetric top.
 Rotational symmetry number  1.
 Warning -- assumption of classical behavior for rotation
           may cause significant error
 Rotational temperatures (Kelvin)      0.18099     0.05563     0.05227
 Rotational constants (GHZ):           3.77118     1.15918     1.08905
    1 imaginary frequencies ignored.
 Zero-point vibrational energy     293625.8 (Joules/Mol)
                                   70.17825 (Kcal/Mol)
 Warning -- explicit consideration of  13 degrees of freedom as
           vibrations may cause significant error
 Vibrational temperatures:     68.58   143.87   165.00   227.95   274.90
          (Kelvin)            309.70   330.74   421.09   488.74   608.98
                              713.22   812.44   874.04  1043.37  1094.36
                             1125.23  1150.93  1288.92  1334.86  1547.27
                             1621.67  1730.96  1860.52  1937.16  2014.61
                             2056.07  2147.26  2162.43  2179.00  2646.67
                             3232.96  4424.43  4473.93  4532.92  4539.11
                             4569.68  5018.50  5458.07

 Zero-point correction=                           0.111836 (Hartree/Particle)
 Thermal correction to Energy=                    0.121436
 Thermal correction to Enthalpy=                  0.122380
 Thermal correction to Gibbs Free Energy=         0.076286
 Sum of electronic and zero-point Energies=           -420.095787
 Sum of electronic and thermal Energies=              -420.086187
 Sum of electronic and thermal Enthalpies=            -420.085243
 Sum of electronic and thermal Free Energies=         -420.131337

                     E (Thermal)             CV                S
                      KCal/Mol        Cal/Mol-Kelvin    Cal/Mol-Kelvin
 Total                   76.202             32.563             97.013
 Electronic               0.000              0.000              1.377
 Translational            0.889              2.981             40.136
 Rotational               0.889              2.981             28.603
 Vibrational             74.425             26.601             26.897
 Vibration     1          0.595              1.978              4.912
 Vibration     2          0.604              1.949              3.454
 Vibration     3          0.608              1.937              3.188
 Vibration     4          0.621              1.893              2.568
 Vibration     5          0.634              1.852              2.217
 Vibration     6          0.645              1.818              1.999
 Vibration     7          0.652              1.795              1.880
 Vibration     8          0.688              1.687              1.458
 Vibration     9          0.720              1.596              1.214
 Vibration    10          0.785              1.420              0.881
 Vibration    11          0.851              1.260              0.669
 Vibration    12          0.920              1.108              0.515
 Vibration    13          0.966              1.016              0.437

 1\1\GINC-AJ\Freq\UM062X\6-311++G(d,p)\C5H7O3(2)\AAYUSH\16-Aug-2025\0\\
 # freq 6-311++g(d,p) m062x\\Title Card Required\\0,2\O,2.156259,1.4937
 21,-0.006425\H,2.758306,1.249049,0.716124\C,2.404934,-1.186486,-0.5726
 17\H,3.318492,-1.608907,-0.920811\C,1.373525,-0.698687,-0.197437\C,0.0
 8668,-0.228442,0.312223\O,-0.23739,-0.334973,1.462377\O,-0.656925,0.28
 2161,-0.662066\C,-1.987199,0.69739,-0.291336\C,-2.920451,-0.495666,-0.
 208743\H,-2.279591,1.384846,-1.082751\H,-1.935142,1.233728,0.656556\H,
 -3.935524,-0.152872,0.000854\H,-2.927469,-1.0391,-1.154773\H,-2.613833

 Normal termination of Gaussian 16 at Sat Aug 16 18:37:59 2025.
