 Gaussian 16, Revision A.03,
 Gaussian 16:  ES64L-G16RevA.03 25-Dec-2016

 --------------------------
 # ccsd(t)/6-311++g(d,p) sp
 --------------------------

 -------------------
 Title Card Required
 -------------------
 Symbolic Z-matrix:
 Charge =  0 Multiplicity = 2

                         Standard orientation:
 ---------------------------------------------------------------------
 Center     Atomic      Atomic             Coordinates (Angstroms)
 Number     Number       Type             X           Y           Z
 ---------------------------------------------------------------------
      1          8           0        2.135018    1.292989    0.013316
      2          1           0        2.793347    1.182122    0.712719
      3          6           0        2.446636   -1.165623   -0.580539
      4          1           0        3.324235   -1.645922   -0.949474
      5          6           0        1.560470   -0.389346   -0.164744
      6          6           0        0.165092   -0.193270    0.322458
      7          8           0       -0.169852   -0.386558    1.455754
      8          8           0       -0.594602    0.295997   -0.646549
      9          6           0       -1.929803    0.691842   -0.267633
     10          6           0       -2.857851   -0.504777   -0.210498
     11          1           0       -2.225141    1.396444   -1.042734
     12          1           0       -1.877700    1.206806    0.692277
     13          1           0       -3.873712   -0.169244    0.007060
     14          1           0       -2.864905   -1.027308   -1.168283
     15          1           0       -2.547887   -1.195277    0.574001
 ---------------------------------------------------------------------

 SCF Done:  E(UHF) =  -417.978812093     A.U. after   30 cycles
 E2 =    -0.1260761281D+01 EUMP2 =    -0.41923957337403D+03
 CCSD(T)= -0.41936114261D+03

 The electronic state is 2-A.
 Alpha  occ. eigenvalues --  -20.61162 -20.60503 -20.55712 -11.41249 -11.29576
 Alpha  occ. eigenvalues --  -11.29166 -11.28083 -11.22507  -1.48196  -1.37868
 Alpha  occ. eigenvalues --   -1.36191  -1.08539  -1.04571  -0.92618  -0.84161
 Alpha  occ. eigenvalues --   -0.76659  -0.73215  -0.69785  -0.67707  -0.65250
 Alpha  occ. eigenvalues --   -0.63294  -0.61938  -0.58201  -0.54550  -0.53749
 Alpha  occ. eigenvalues --   -0.52740  -0.50287  -0.47829  -0.46091  -0.43763
 Alpha  occ. eigenvalues --   -0.42006
 Alpha virt. eigenvalues --    0.03688   0.04515   0.05811   0.06637   0.07012
 Alpha virt. eigenvalues --    0.08230   0.09239   0.11251   0.11348   0.12681
 Alpha virt. eigenvalues --    0.13372   0.13629   0.14406   0.14717   0.16818

  Beta  occ. eigenvalues --  -20.61168 -20.57665 -20.56037 -11.40886 -11.31424
  Beta  occ. eigenvalues --  -11.29578 -11.25187 -11.22507  -1.48317  -1.38383
  Beta  occ. eigenvalues --   -1.27166  -1.07504  -1.03379  -0.91217  -0.82978
  Beta  occ. eigenvalues --   -0.76245  -0.71765  -0.69964  -0.66653  -0.64198
  Beta  occ. eigenvalues --   -0.63026  -0.58725  -0.55084  -0.53965  -0.51135
  Beta  occ. eigenvalues --   -0.49553  -0.48617  -0.46994  -0.46726  -0.42280
  Beta virt. eigenvalues --    0.03814   0.04224   0.04547   0.06462   0.06930
  Beta virt. eigenvalues --    0.07498   0.08540   0.09280   0.10524   0.12639
  Beta virt. eigenvalues --    0.13161   0.13653   0.14033   0.14747   0.16360

 Mulliken charges and spin densities:
               1          2
     1  O   -0.222528   0.644248
     2  H    0.257285  -0.022065
     3  C   -0.000814   1.485923
     4  H    0.238810  -0.105567
     5  C    0.113441  -1.136963
     6  C   -0.311752   0.195668
     7  O   -0.293055  -0.065052
     8  O   -0.042956   0.002762
     9  C   -0.155185   0.002416
    10  C   -0.393612  -0.002063
    11  H    0.170285   0.000161
    12  H    0.183403   0.000023
    13  H    0.129695   0.000110
    14  H    0.144076   0.000047
    15  H    0.182908   0.000351
 Sum of Mulliken charges =  -0.00000   1.00000

 Dipole moment (field-independent basis, Debye):
    X=              0.3981    Y=             -0.8862    Z=             -0.9506  Tot=              1.3592
 Quadrupole moment (field-independent basis, Debye-Ang):
   XX=            -32.1339   YY=            -47.0488   ZZ=            -52.1597
   XY=             -5.8947   XZ=              2.1593   YZ=              4.3729

 Normal termination of Gaussian 16 at Mon Aug 25 20:43:49 2025.
