 Gaussian 16, Revision A.03,
 Gaussian 16:  ES64L-G16RevA.03 25-Dec-2016

 -------------------
 # freq 6-31+g m062x
 -------------------

 -------------------
 Title Card Required
 -------------------
 Symbolic Z-matrix:
 Charge =  0 Multiplicity = 2

                         Standard orientation:
 ---------------------------------------------------------------------
 Center     Atomic      Atomic             Coordinates (Angstroms)
 Number     Number       Type             X           Y           Z
 ---------------------------------------------------------------------
      1          8           0        2.185803    1.390990   -0.020440
      2          1           0        2.826422    1.226485    0.690064
      3          6           0        2.455701   -1.189475   -0.544519
      4          1           0        3.337111   -1.675368   -0.893273
      5          6           0        1.484143   -0.580604   -0.166939
      6          6           0        0.159479   -0.194158    0.327726
      7          8           0       -0.174402   -0.329408    1.470989
      8          8           0       -0.593194    0.281208   -0.655719
      9          6           0       -1.925107    0.696447   -0.290155
     10          6           0       -2.860747   -0.492708   -0.194368
     11          1           0       -2.217175    1.376547   -1.088122
     12          1           0       -1.872289    1.242372    0.652399
     13          1           0       -3.874535   -0.143869    0.011731
     14          1           0       -2.870586   -1.046394   -1.134434
     15          1           0       -2.555405   -1.159108    0.612518
 ---------------------------------------------------------------------

 SCF Done:  E(UM062X) =  -419.954882272     A.U. after   24 cycles

 The electronic state is 2-A.
 Alpha  occ. eigenvalues --  -19.70445 -19.69096 -19.66143 -10.72964 -10.61391
 Alpha  occ. eigenvalues --  -10.60282 -10.59634 -10.54520  -1.27962  -1.18596
 Alpha  occ. eigenvalues --   -1.13701  -0.91615  -0.88144  -0.78611  -0.71310
 Alpha  occ. eigenvalues --   -0.64626  -0.62268  -0.58559  -0.56974  -0.54398
 Alpha  occ. eigenvalues --   -0.53756  -0.50602  -0.48366  -0.46622  -0.45222
 Alpha  occ. eigenvalues --   -0.42129  -0.41331  -0.39663  -0.38063  -0.36849
 Alpha  occ. eigenvalues --   -0.34969
 Alpha virt. eigenvalues --   -0.00919   0.01977   0.02557   0.03627   0.03799
 Alpha virt. eigenvalues --    0.04524   0.05336   0.05813   0.07866   0.08039
 Alpha virt. eigenvalues --    0.08370   0.08989   0.09632   0.11603   0.12287

  Beta  occ. eigenvalues --  -19.70450 -19.67543 -19.66162 -10.72940 -10.61390
  Beta  occ. eigenvalues --  -10.60315 -10.59447 -10.54521  -1.27970  -1.18626
  Beta  occ. eigenvalues --   -1.07326  -0.91206  -0.87833  -0.78467  -0.71145
  Beta  occ. eigenvalues --   -0.64561  -0.61845  -0.58397  -0.56814  -0.53956
  Beta  occ. eigenvalues --   -0.51463  -0.49292  -0.46850  -0.45219  -0.42002
  Beta  occ. eigenvalues --   -0.39484  -0.39278  -0.38153  -0.37989  -0.36242
  Beta virt. eigenvalues --   -0.09339  -0.00036   0.02030   0.02625   0.03629
  Beta virt. eigenvalues --    0.03894   0.04610   0.05352   0.05917   0.07918
  Beta virt. eigenvalues --    0.08139   0.08382   0.09083   0.09673   0.11583

 Mulliken charges and spin densities:
               1          2
     1  O   -0.420271   0.852839
     2  H    0.404423  -0.030871
     3  C   -0.033627   0.248115
     4  H    0.324535  -0.010637
     5  C   -0.478439  -0.110377
     6  C    0.393670   0.060413
     7  O   -0.340459  -0.008618
     8  O   -0.182815  -0.000367
     9  C   -0.212158  -0.000235
    10  C   -0.573129  -0.000123
    11  H    0.222517  -0.000073
    12  H    0.234787  -0.000090
    13  H    0.207239   0.000043
    14  H    0.219375  -0.000014
    15  H    0.234353  -0.000005
 Sum of Mulliken charges =  -0.00000   1.00000

 Dipole moment (field-independent basis, Debye):
    X=              0.3416    Y=             -0.8846    Z=             -0.5161  Tot=              1.0796
 Quadrupole moment (field-independent basis, Debye-Ang):
   XX=            -31.2246   YY=            -47.0011   ZZ=            -53.1321
   XY=             -5.7735   XZ=              2.8215   YZ=              4.4878

  Exact polarizability:  81.631  -7.145  70.822  -3.391   4.146  58.149
 Approx polarizability:  80.973 -14.500  73.785  -7.967   3.394  73.519

 ******    4 imaginary frequencies (negative Signs) ******

                      1                      2                      3
                      A                      A                      A
 Frequencies --   -470.8335              -282.3016              -107.2752
 Red. masses --      1.0864                 8.2489                 6.5647
 Frc consts  --      0.1419                 0.3873                 0.0445
 IR Inten    --    115.3966                11.2203                16.8922

                      4                      5                      6
                      A                      A                      A
 Frequencies --    -58.8052                22.0700                87.8562
 Red. masses --      4.9128                 2.7081                 3.1025
 Frc consts  --      0.0100                 0.0008                 0.0141
 IR Inten    --      4.9710                 0.4335                 5.7160

                      7                      8                      9
                      A                      A                      A
 Frequencies --    121.4980               184.8892               202.7319
 Red. masses --      5.4474                 1.2958                 4.6030
 Frc consts  --      0.0474                 0.0261                 0.1115
 IR Inten    --      0.2979                 2.3096                 0.1891

                     10                     11                     12
                      A                      A                      A
 Frequencies --    310.5277               400.9441               447.1992
 Red. masses --      2.8803                 2.7523                 1.2900
 Frc consts  --      0.1636                 0.2607                 0.1520
 IR Inten    --     18.2280                11.7916               108.9358

                     13                     14                     15
                      A                      A                      A
 Frequencies --    580.0110               618.8947               709.4374
 Red. masses --      3.8727                 5.3224                 1.7190
 Frc consts  --      0.7676                 1.2011                 0.5097
 IR Inten    --      6.4693                11.9727                11.8529

                     16                     17                     18
                      A                      A                      A
 Frequencies --    736.6527               768.5719               815.0537
 Red. masses --      3.5228                 1.3633                 1.2587
 Frc consts  --      1.1263                 0.4745                 0.4927
 IR Inten    --     90.2929                48.4732                 6.4255

                     19                     20                     21
                      A                      A                      A
 Frequencies --    898.0842               944.3870              1113.1131
 Red. masses --      3.4044                 2.5737                 4.1269
 Frc consts  --      1.6178                 1.3524                 3.0127
 IR Inten    --     21.4434                 6.8362                 5.7405

                     22                     23                     24
                      A                      A                      A
 Frequencies --   1157.9908              1227.5125              1328.7035
 Red. masses --      2.0987                 1.7565                 1.8649
 Frc consts  --      1.6581                 1.5594                 1.9398
 IR Inten    --     18.2090                 4.5521               310.8282

                     25                     26                     27
                      A                      A                      A
 Frequencies --   1374.0335              1443.6656              1455.2940
 Red. masses --      1.8195                 1.3769                 1.2774
 Frc consts  --      2.0240                 1.6908                 1.5939
 IR Inten    --    309.3822                45.0079                13.9046

                     28                     29                     30
                      A                      A                      A
 Frequencies --   1527.8658              1537.3744              1545.3247
 Red. masses --      1.0420                 1.0696                 1.0740
 Frc consts  --      1.4331                 1.4895                 1.5110
 IR Inten    --     14.3191                 3.3600                20.7608

                     31                     32                     33
                      A                      A                      A
 Frequencies --   1910.8124              2259.6019              3107.2558
 Red. masses --     12.2313                 5.8379                 1.0351
 Frc consts  --     26.3123                17.5619                 5.8884
 IR Inten    --    309.9421                75.1645                13.8270

                     34                     35                     36
                      A                      A                      A
 Frequencies --   3138.6766              3186.6717              3191.1101
 Red. masses --      1.0602                 1.1001                 1.1026
 Frc consts  --      6.1537                 6.5821                 6.6153
 IR Inten    --     16.9150                14.8373                 5.2543

                     37                     38                     39
                      A                      A                      A
 Frequencies --   3212.1448              3526.3007              3818.8012
 Red. masses --      1.1053                 1.1670                 1.0673
 Frc consts  --      6.7193                 8.5502                 9.1701
 IR Inten    --     17.6235                61.2762                15.9106

 - Thermochemistry -
 -------------------
 Temperature   298.150 Kelvin.  Pressure   1.00000 Atm.
 Atom     1 has atomic number  8 and mass  15.99491

 Molecular mass:   115.03952 amu.
 Principal axes and moments of inertia in atomic units:
                           1         2         3
     Eigenvalues --   454.030861550.403961629.49918
           X            0.99998  -0.00365   0.00536
           Y            0.00312   0.99542   0.09557
           Z           -0.00568  -0.09555   0.99541
 This molecule is an asymmetric top.
 Rotational symmetry number  1.
 Warning -- assumption of classical behavior for rotation
           may cause significant error
 Rotational temperatures (Kelvin)      0.19077     0.05587     0.05315
 Rotational constants (GHZ):           3.97493     1.16405     1.10754
    4 imaginary frequencies ignored.
 Zero-point vibrational energy     292553.1 (Joules/Mol)
                                   69.92187 (Kcal/Mol)
 Warning -- explicit consideration of  10 degrees of freedom as
           vibrations may cause significant error
 Vibrational temperatures:     31.75   126.41   174.81   266.01   291.69
          (Kelvin)            446.78   576.87   643.42   834.51   890.45
                             1020.72  1059.88  1105.80  1172.68  1292.14
                             1358.76  1601.52  1666.09  1766.12  1911.71
                             1976.93  2077.11  2093.84  2198.26  2211.94
                             2223.38  2749.23  3251.06  4470.65  4515.86
                             4584.91  4591.30  4621.56  5073.56  5494.40

 Zero-point correction=                           0.111428 (Hartree/Particle)
 Thermal correction to Energy=                    0.119624
 Thermal correction to Enthalpy=                  0.120568
 Thermal correction to Gibbs Free Energy=         0.076296
 Sum of electronic and zero-point Energies=           -419.843455
 Sum of electronic and thermal Energies=              -419.835258
 Sum of electronic and thermal Enthalpies=            -419.834314
 Sum of electronic and thermal Free Energies=         -419.878586

                     E (Thermal)             CV                S
                      KCal/Mol        Cal/Mol-Kelvin    Cal/Mol-Kelvin
 Total                   75.065             27.273             93.178
 Electronic               0.000              0.000              1.377
 Translational            0.889              2.981             40.136
 Rotational               0.889              2.981             28.530
 Vibrational             73.288             21.311             23.135
 Vibration     1          0.593              1.985              6.439
 Vibration     2          0.601              1.958              3.707
 Vibration     3          0.609              1.931              3.076
 Vibration     4          0.631              1.860              2.278
 Vibration     5          0.639              1.836              2.108
 Vibration     6          0.699              1.654              1.360
 Vibration     7          0.767              1.468              0.959
 Vibration     8          0.806              1.367              0.804
 Vibration     9          0.937              1.075              0.485
 Vibration    10          0.979              0.992              0.418

 Normal termination of Gaussian 16 at Fri Jun 20 14:32:04 2025.
