 Gaussian 16, Revision A.03,
 Gaussian 16:  ES64L-G16RevA.03 25-Dec-2016

 -------------------
 # freq 6-31+g m062x
 -------------------

 -------------------
 Title Card Required
 -------------------
 Symbolic Z-matrix:
 Charge =  0 Multiplicity = 2

                         Standard orientation:
 ---------------------------------------------------------------------
 Center     Atomic      Atomic             Coordinates (Angstroms)
 Number     Number       Type             X           Y           Z
 ---------------------------------------------------------------------
      1          8           0        2.197945    1.414116   -0.027722
      2          1           0        2.830493    1.232810    0.686470
      3          6           0        2.457127   -1.198373   -0.537342
      4          1           0        3.345888   -1.673903   -0.881355
      5          6           0        1.467772   -0.621065   -0.166030
      6          6           0        0.156692   -0.198620    0.328378
      7          8           0       -0.175856   -0.316099    1.474371
      8          8           0       -0.592863    0.277947   -0.657530
      9          6           0       -1.923829    0.698294   -0.295009
     10          6           0       -2.861287   -0.489111   -0.191425
     11          1           0       -2.214824    1.373211   -1.097741
     12          1           0       -1.870780    1.250597    0.643773
     13          1           0       -3.874639   -0.137507    0.012082
     14          1           0       -2.871564   -1.049172   -1.127694
     15          1           0       -2.557231   -1.150499    0.620089
 ---------------------------------------------------------------------

 SCF Done:  E(UM062X) =  -419.956718337     A.U. after   24 cycles

 The electronic state is 2-A.
 Alpha  occ. eigenvalues --  -19.70398 -19.69549 -19.66092 -10.72918 -10.61357
 Alpha  occ. eigenvalues --  -10.59861 -10.59367 -10.54506  -1.27894  -1.18531
 Alpha  occ. eigenvalues --   -1.14058  -0.91463  -0.88038  -0.78573  -0.71223
 Alpha  occ. eigenvalues --   -0.64553  -0.62116  -0.58514  -0.56895  -0.54530
 Alpha  occ. eigenvalues --   -0.53824  -0.50666  -0.48421  -0.46645  -0.45209
 Alpha  occ. eigenvalues --   -0.42244  -0.41533  -0.39594  -0.38026  -0.36785
 Alpha  occ. eigenvalues --   -0.35500
 Alpha virt. eigenvalues --   -0.01009   0.02007   0.02547   0.03679   0.03816
 Alpha virt. eigenvalues --    0.04568   0.05350   0.05829   0.07919   0.08080
 Alpha virt. eigenvalues --    0.08358   0.08997   0.09650   0.11658   0.12318

  Beta  occ. eigenvalues --  -19.70403 -19.67950 -19.66109 -10.72899 -10.61357
  Beta  occ. eigenvalues --  -10.59873 -10.59224 -10.54506  -1.27903  -1.18560
  Beta  occ. eigenvalues --   -1.07261  -0.91136  -0.87779  -0.78459  -0.71093
  Beta  occ. eigenvalues --   -0.64509  -0.61773  -0.58364  -0.56747  -0.53902
  Beta  occ. eigenvalues --   -0.51531  -0.49316  -0.46834  -0.45209  -0.41949
  Beta  occ. eigenvalues --   -0.39459  -0.39076  -0.38225  -0.38019  -0.36337
  Beta virt. eigenvalues --   -0.09116  -0.00300   0.02062   0.02604   0.03738
  Beta virt. eigenvalues --    0.03890   0.04663   0.05364   0.05950   0.08010
  Beta virt. eigenvalues --    0.08134   0.08386   0.09109   0.09684   0.11652

 Mulliken charges and spin densities:
               1          2
     1  O   -0.411153   0.892715
     2  H    0.404152  -0.032482
     3  C   -0.173470   0.169942
     4  H    0.331341  -0.008198
     5  C   -0.413577  -0.075408
     6  C    0.444407   0.061946
     7  O   -0.335823  -0.007526
     8  O   -0.179690  -0.000204
     9  C   -0.212662  -0.000401
    10  C   -0.571532  -0.000250
    11  H    0.222151  -0.000057
    12  H    0.234837  -0.000083
    13  H    0.207318   0.000017
    14  H    0.219489  -0.000010
    15  H    0.234212  -0.000003
 Sum of Mulliken charges =  -0.00000   1.00000

 Dipole moment (field-independent basis, Debye):
    X=              0.3868    Y=             -0.7740    Z=             -0.4803  Tot=              0.9897
 Quadrupole moment (field-independent basis, Debye-Ang):
   XX=            -31.0849   YY=            -46.9450   ZZ=            -53.2001
   XY=             -5.4611   XZ=              2.9569   YZ=              4.4170

  Exact polarizability:  81.843  -7.952  67.509  -3.568   3.499  58.057
 Approx polarizability:  81.895 -14.790  70.327  -8.189   2.863  73.475

 ******    3 imaginary frequencies (negative Signs) ******

                      1                      2                      3
                      A                      A                      A
 Frequencies --   -471.9168              -155.0049               -83.9727
 Red. masses --      1.0830                 5.0944                 4.4444
 Frc consts  --      0.1421                 0.0721                 0.0185
 IR Inten    --    117.8920                 6.4945                19.6885

                      4                      5                      6
                      A                      A                      A
 Frequencies --      5.1102                43.1881                87.8172
 Red. masses --      3.3788                 4.4942                 3.1194
 Frc consts  --      0.0001                 0.0049                 0.0142
 IR Inten    --      0.9368                 0.2030                 5.8237

                      7                      8                      9
                      A                      A                      A
 Frequencies --    126.9477               183.5412               196.7555
 Red. masses --      5.9468                 1.4159                 3.5347
 Frc consts  --      0.0565                 0.0281                 0.0806
 IR Inten    --      0.3832                 3.2658                 0.9325

                     10                     11                     12
                      A                      A                      A
 Frequencies --    308.9143               366.4889               414.2001
 Red. masses --      2.7092                 1.3257                 3.1727
 Frc consts  --      0.1523                 0.1049                 0.3207
 IR Inten    --     23.9170                99.2660                16.9192

                     13                     14                     15
                      A                      A                      A
 Frequencies --    575.7805               620.6502               737.4792
 Red. masses --      4.1214                 5.3855                 2.1583
 Frc consts  --      0.8050                 1.2223                 0.6916
 IR Inten    --      3.3622                12.4105                15.8190

                     16                     17                     18
                      A                      A                      A
 Frequencies --    747.5728               782.5721               815.0672
 Red. masses --      2.5124                 1.3746                 1.2602
 Frc consts  --      0.8273                 0.4960                 0.4932
 IR Inten    --     91.8161                44.5808                 5.8388

                     19                     20                     21
                      A                      A                      A
 Frequencies --    898.4626               944.8591              1112.7923
 Red. masses --      3.3985                 2.5680                 4.1279
 Frc consts  --      1.6164                 1.3508                 3.0117
 IR Inten    --     20.7788                 6.5864                 6.1959

                     22                     23                     24
                      A                      A                      A
 Frequencies --   1157.9853              1227.5072              1329.3163
 Red. masses --      2.1045                 1.7590                 1.8274
 Frc consts  --      1.6627                 1.5615                 1.9026
 IR Inten    --     18.3361                 4.2521               300.2553

                     25                     26                     27
                      A                      A                      A
 Frequencies --   1374.1105              1443.4492              1455.0500
 Red. masses --      1.8485                 1.3837                 1.2756
 Frc consts  --      2.0564                 1.6986                 1.5912
 IR Inten    --    316.0313                46.2890                14.4614

                     28                     29                     30
                      A                      A                      A
 Frequencies --   1527.9054              1537.3119              1545.1710
 Red. masses --      1.0420                 1.0704                 1.0733
 Frc consts  --      1.4333                 1.4905                 1.5099
 IR Inten    --     14.3041                 3.8570                21.0513

                     31                     32                     33
                      A                      A                      A
 Frequencies --   1909.6142              2285.3492              3107.2181
 Red. masses --     12.2490                 5.7360                 1.0351
 Frc consts  --     26.3174                17.6509                 5.8881
 IR Inten    --    307.5480                66.7306                13.8313

                     34                     35                     36
                      A                      A                      A
 Frequencies --   3138.7779              3186.7135              3190.9862
 Red. masses --      1.0602                 1.1002                 1.1025
 Frc consts  --      6.1540                 6.5827                 6.6144
 IR Inten    --     17.4004                14.6506                 5.6117

                     37                     38                     39
                      A                      A                      A
 Frequencies --   3211.9966              3529.1369              3813.2573
 Red. masses --      1.1053                 1.1711                 1.0672
 Frc consts  --      6.7188                 8.5934                 9.1432
 IR Inten    --     17.6885                60.8345                14.0561

 - Thermochemistry -
 -------------------
 Temperature   298.150 Kelvin.  Pressure   1.00000 Atm.
 Atom     1 has atomic number  8 and mass  15.99491

 Molecular mass:   115.03952 amu.
 Principal axes and moments of inertia in atomic units:
                           1         2         3
     Eigenvalues --   460.581421552.331591637.04336
           X            0.99998  -0.00371   0.00544
           Y            0.00322   0.99618   0.08731
           Z           -0.00574  -0.08729   0.99617
 This molecule is an asymmetric top.
 Rotational symmetry number  1.
 Warning -- assumption of classical behavior for rotation
           may cause significant error
 Rotational temperatures (Kelvin)      0.18805     0.05580     0.05291
 Rotational constants (GHZ):           3.91840     1.16260     1.10244
    3 imaginary frequencies ignored.
 Zero-point vibrational energy     292720.6 (Joules/Mol)
                                   69.96189 (Kcal/Mol)
 Warning -- explicit consideration of  11 degrees of freedom as
           vibrations may cause significant error
 Vibrational temperatures:      7.35    62.14   126.35   182.65   264.07
          (Kelvin)            283.09   444.46   527.30   595.94   828.42
                              892.98  1061.07  1075.59  1125.95  1172.70
                             1292.69  1359.44  1601.06  1666.08  1766.11
                             1912.59  1977.04  2076.80  2093.49  2198.32
                             2211.85  2223.16  2747.51  3288.11  4470.59
                             4516.00  4584.97  4591.12  4621.35  5077.64
                             5486.43

 Zero-point correction=                           0.111491 (Hartree/Particle)
 Thermal correction to Energy=                    0.120626
 Thermal correction to Enthalpy=                  0.121570
 Thermal correction to Gibbs Free Energy=         0.073392
 Sum of electronic and zero-point Energies=           -419.845227
 Sum of electronic and thermal Energies=              -419.836093
 Sum of electronic and thermal Enthalpies=            -419.835148
 Sum of electronic and thermal Free Energies=         -419.883326

                     E (Thermal)             CV                S
                      KCal/Mol        Cal/Mol-Kelvin    Cal/Mol-Kelvin
 Total                   75.694             29.317            101.399
 Electronic               0.000              0.000              1.377
 Translational            0.889              2.981             40.136
 Rotational               0.889              2.981             28.550
 Vibrational             73.916             23.355             31.336
 Vibration     1          0.593              1.987              9.345
 Vibration     2          0.595              1.980              5.107
 Vibration     3          0.601              1.958              3.708
 Vibration     4          0.611              1.926              2.992
 Vibration     5          0.631              1.862              2.292
 Vibration     6          0.636              1.844              2.163
 Vibration     7          0.698              1.657              1.368
 Vibration     8          0.739              1.541              1.094
 Vibration     9          0.778              1.439              0.912
 Vibration    10          0.932              1.084              0.493
 Vibration    11          0.981              0.988              0.415

 Normal termination of Gaussian 16 at Fri Jun 20 14:41:43 2025.
