 Gaussian 16, Revision A.03,
 Gaussian 16:  ES64L-G16RevA.03 25-Dec-2016

 --------------------------
 # freq 6-311++g(d,p) m062x
 --------------------------

 -------------------
 Title Card Required
 -------------------
 Symbolic Z-matrix:
 Charge =  0 Multiplicity = 2

                         Standard orientation:
 ---------------------------------------------------------------------
 Center     Atomic      Atomic             Coordinates (Angstroms)
 Number     Number       Type             X           Y           Z
 ---------------------------------------------------------------------
      1          8           0        2.162400    1.346721   -0.006119
      2          1           0        2.812908    1.209050    0.699284
      3          6           0        2.452579   -1.175989   -0.559261
      4          1           0        3.325363   -1.671511   -0.917294
      5          6           0        1.518086   -0.496751   -0.167230
      6          6           0        0.162476   -0.190588    0.326009
      7          8           0       -0.171959   -0.354466    1.464462
      8          8           0       -0.593750    0.287146   -0.651974
      9          6           0       -1.927396    0.693631   -0.280608
     10          6           0       -2.859413   -0.499019   -0.200847
     11          1           0       -2.220964    1.384000   -1.069107
     12          1           0       -1.874781    1.226744    0.669273
     13          1           0       -3.874148   -0.155978    0.010204
     14          1           0       -2.868072   -1.039749   -1.148451
     15          1           0       -2.551832   -1.175467    0.596748
 ---------------------------------------------------------------------

 SCF Done:  E(UM062X) =  -420.201900106     A.U. after   23 cycles

 The electronic state is 2-A.
 Alpha  occ. eigenvalues --  -19.68272 -19.65129 -19.63160 -10.70726 -10.60516
 Alpha  occ. eigenvalues --  -10.60247 -10.58952 -10.53777  -1.25806  -1.16488
 Alpha  occ. eigenvalues --   -1.11288  -0.91326  -0.87775  -0.78278  -0.71021
 Alpha  occ. eigenvalues --   -0.64733  -0.62302  -0.58632  -0.56894  -0.54190
 Alpha  occ. eigenvalues --   -0.53257  -0.50207  -0.48205  -0.46220  -0.45302
 Alpha  occ. eigenvalues --   -0.42069  -0.40485  -0.39879  -0.38435  -0.36776
 Alpha  occ. eigenvalues --   -0.33411
 Alpha virt. eigenvalues --   -0.00607  -0.00217   0.00511   0.01547   0.02312
 Alpha virt. eigenvalues --    0.02715   0.03158   0.04015   0.05456   0.06524
 Alpha virt. eigenvalues --    0.07213   0.07792   0.08164   0.09034   0.10444

  Beta  occ. eigenvalues --  -19.68276 -19.63850 -19.63180 -10.70693 -10.60515
  Beta  occ. eigenvalues --  -10.60337 -10.58638 -10.53778  -1.25807  -1.16528
  Beta  occ. eigenvalues --   -1.06331  -0.90561  -0.87180  -0.77957  -0.70665
  Beta  occ. eigenvalues --   -0.64576  -0.61722  -0.58543  -0.56608  -0.53713
  Beta  occ. eigenvalues --   -0.51560  -0.49215  -0.46670  -0.45291  -0.42166
  Beta  occ. eigenvalues --   -0.39872  -0.39578  -0.38518  -0.37736  -0.35669
  Beta virt. eigenvalues --   -0.09946  -0.00248   0.00276   0.01132   0.01871
  Beta virt. eigenvalues --    0.02365   0.02764   0.03201   0.04091   0.05490
  Beta virt. eigenvalues --    0.06316   0.07348   0.07827   0.08128   0.09099

 Mulliken charges and spin densities:
               1          2
     1  O   -0.246644   0.689771
     2  H    0.236942  -0.014156
     3  C   -0.247400   0.516192
     4  H    0.208564  -0.020453
     5  C    0.350582  -0.226302
     6  C   -0.382359   0.062348
     7  O   -0.205734  -0.009865
     8  O    0.051573   0.000255
     9  C   -0.265769   0.002838
    10  C   -0.420091  -0.000640
    11  H    0.201626   0.000306
    12  H    0.199043  -0.000822
    13  H    0.161505   0.000425
    14  H    0.165344  -0.000079
    15  H    0.192817   0.000179
 Sum of Mulliken charges =  -0.00000   1.00000

 Dipole moment (field-independent basis, Debye):
    X=              0.0696    Y=             -1.2092    Z=             -0.8598  Tot=              1.4853
 Quadrupole moment (field-independent basis, Debye-Ang):
   XX=            -32.3337   YY=            -46.8926   ZZ=            -51.7368
   XY=             -6.7055   XZ=              1.9990   YZ=              4.1372

  Exact polarizability:  85.844  -4.880  79.621  -3.282   5.432  60.487
 Approx polarizability:  86.058 -11.098  89.902  -6.754   4.991  78.623

 ******    1 imaginary frequencies (negative Signs) ******

                      1                      2                      3
                      A                      A                      A
 Frequencies --   -644.0921                54.3290                74.4723
 Red. masses --     12.1614                 4.2631                 3.6699
 Frc consts  --      2.9725                 0.0074                 0.0120
 IR Inten    --     67.6883                 5.8407                 3.5453

                      4                      5                      6
                      A                      A                      A
 Frequencies --    113.8500               153.0910               177.3624
 Red. masses --      3.8179                 3.4488                 3.2347
 Frc consts  --      0.0292                 0.0476                 0.0600
 IR Inten    --      0.8702                32.3598                 3.1455

                      7                      8                      9
                      A                      A                      A
 Frequencies --    200.5186               233.5108               268.8713
 Red. masses --      1.3343                 1.3879                 2.9965
 Frc consts  --      0.0316                 0.0446                 0.1276
 IR Inten    --     46.4364                 0.7204                 8.5434

                     10                     11                     12
                      A                      A                      A
 Frequencies --    339.2389               419.5900               566.7266
 Red. masses --      2.9060                 3.7217                 3.7848
 Frc consts  --      0.1970                 0.3860                 0.7162
 IR Inten    --     12.3555                 0.9846                 3.6148

                     13                     14                     15
                      A                      A                      A
 Frequencies --    605.6055               639.5791               717.1032
 Red. masses --      4.7942                 1.4209                 1.3111
 Frc consts  --      1.0360                 0.3424                 0.3972
 IR Inten    --     17.6696                24.9882                39.3144

                     16                     17                     18
                      A                      A                      A
 Frequencies --    767.1540               799.8926               818.3261
 Red. masses --      9.4481                 1.1888                 1.1471
 Frc consts  --      3.2761                 0.4482                 0.4526
 IR Inten    --     34.0554                 4.8992                84.7022

                     19                     20                     21
                      A                      A                      A
 Frequencies --    895.6847               924.5349              1076.4069
 Red. masses --      3.2161                 2.8283                 4.0582
 Frc consts  --      1.5202                 1.4244                 2.7703
 IR Inten    --     16.6344                 7.8807                20.5822

                     22                     23                     24
                      A                      A                      A
 Frequencies --   1127.8055              1202.7145              1287.2799
 Red. masses --      2.0853                 1.7713                 3.7360
 Frc consts  --      1.5628                 1.5096                 3.6475
 IR Inten    --     19.3367                 7.5431               574.8372

                     25                     26                     27
                      A                      A                      A
 Frequencies --   1348.4915              1400.6730              1431.0032
 Red. masses --      1.2434                 1.2806                 1.3877
 Frc consts  --      1.3322                 1.4803                 1.6743
 IR Inten    --    100.7751                32.5215                 6.0008

                     28                     29                     30
                      A                      A                      A
 Frequencies --   1492.2405              1502.9178              1515.3075
 Red. masses --      1.0408                 1.0599                 1.0858
 Frc consts  --      1.3655                 1.4105                 1.4689
 IR Inten    --     10.5180                 1.2531                15.1526

                     31                     32                     33
                      A                      A                      A
 Frequencies --   1846.5060              2084.4242              3075.3689
 Red. masses --     11.8722                 6.5111                 1.0354
 Frc consts  --     23.8497                16.6678                 5.7697
 IR Inten    --    336.8093                85.8221                10.5575

                     34                     35                     36
                      A                      A                      A
 Frequencies --   3108.6107              3150.2621              3155.4260
 Red. masses --      1.0609                 1.1013                 1.1048
 Frc consts  --      6.0402                 6.4397                 6.4808
 IR Inten    --     14.6317                14.6201                 1.9886

                     37                     38                     39
                      A                      A                      A
 Frequencies --   3176.3307              3470.6759              3821.7504
 Red. masses --      1.1074                 1.1450                 1.0676
 Frc consts  --      6.5829                 8.1260                 9.1871
 IR Inten    --     14.6474                71.8671                55.6816

 - Thermochemistry -
 -------------------
 Temperature   298.150 Kelvin.  Pressure   1.00000 Atm.
 Atom     1 has atomic number  8 and mass  15.99491

 Molecular mass:   115.03952 amu.
 Principal axes and moments of inertia in atomic units:
                           1         2         3
     Eigenvalues --   442.236121546.922621615.93724
           X            0.99998  -0.00360   0.00521
           Y            0.00298   0.99349   0.11392
           Z           -0.00558  -0.11390   0.99348
 This molecule is an asymmetric top.
 Rotational symmetry number  1.
 Warning -- assumption of classical behavior for rotation
           may cause significant error
 Rotational temperatures (Kelvin)      0.19585     0.05599     0.05360
 Rotational constants (GHZ):           4.08094     1.16667     1.11684
    1 imaginary frequencies ignored.
 Zero-point vibrational energy     293346.1 (Joules/Mol)
                                   70.11140 (Kcal/Mol)
 Warning -- explicit consideration of  12 degrees of freedom as
           vibrations may cause significant error
 Vibrational temperatures:     78.17   107.15   163.80   220.26   255.18
          (Kelvin)            288.50   335.97   386.85   488.09   603.70
                              815.39   871.33   920.21  1031.75  1103.76
                             1150.87  1177.39  1288.69  1330.20  1548.71
                             1622.66  1730.44  1852.11  1940.18  2015.26
                             2058.89  2147.00  2162.36  2180.19  2656.71
                             2999.02  4424.77  4472.60  4532.52  4539.95
                             4570.03  4993.53  5498.65

 Zero-point correction=                           0.111730 (Hartree/Particle)
 Thermal correction to Energy=                    0.121354
 Thermal correction to Enthalpy=                  0.122298
 Thermal correction to Gibbs Free Energy=         0.076024
 Sum of electronic and zero-point Energies=           -420.090170
 Sum of electronic and thermal Energies=              -420.080546
 Sum of electronic and thermal Enthalpies=            -420.079602
 Sum of electronic and thermal Free Energies=         -420.125876

                     E (Thermal)             CV                S
                      KCal/Mol        Cal/Mol-Kelvin    Cal/Mol-Kelvin
 Total                   76.151             32.310             97.392
 Electronic               0.000              0.000              1.377
 Translational            0.889              2.981             40.136
 Rotational               0.889              2.981             28.493
 Vibrational             74.373             26.349             27.386
 Vibration     1          0.596              1.976              4.653
 Vibration     2          0.599              1.966              4.032
 Vibration     3          0.607              1.938              3.202
 Vibration     4          0.619              1.899              2.633
 Vibration     5          0.628              1.870              2.356
 Vibration     6          0.638              1.839              2.128
 Vibration     7          0.654              1.790              1.852
 Vibration     8          0.673              1.730              1.603
 Vibration     9          0.719              1.597              1.216
 Vibration    10          0.782              1.428              0.893
 Vibration    11          0.923              1.103              0.511
 Vibration    12          0.964              1.020              0.440

 1\1\GINC-AJ\Freq\UM062X\6-311++G(d,p)\C5H7O3(2)\AAYUSH\23-Jun-2025\0\\
 # freq 6-311++g(d,p) m062x\\Title Card Required\\0,2\O,2.1624,1.346721
 ,-0.006119\H,2.812908,1.20905,0.699284\C,2.452579,-1.175989,-0.559261\
 H,3.325363,-1.671511,-0.917294\C,1.518086,-0.496751,-0.16723\C,0.16247
 6,-0.190588,0.326009\O,-0.171959,-0.354466,1.464462\O,-0.59375,0.28714
 6,-0.651974\C,-1.927396,0.693631,-0.280608\C,-2.859413,-0.499019,-0.20
 0847\H,-2.220964,1.384,-1.069107\H,-1.874781,1.226744,0.669273\H,-3.87
 4148,-0.155978,0.010204\H,-2.868072,-1.039749,-1.148451\H,-2.551832,-1

 Normal termination of Gaussian 16 at Mon Jun 23 07:14:54 2025.
