 Gaussian 16, Revision A.03,
 Gaussian 16:  ES64L-G16RevA.03 25-Dec-2016

 -------------------
 # freq 6-31+g m062x
 -------------------

 -------------------
 Title Card Required
 -------------------
 Symbolic Z-matrix:
 Charge =  0 Multiplicity = 2

                         Standard orientation:
 ---------------------------------------------------------------------
 Center     Atomic      Atomic             Coordinates (Angstroms)
 Number     Number       Type             X           Y           Z
 ---------------------------------------------------------------------
      1          8           0        2.210579    1.437703   -0.035226
      2          1           0        2.832482    1.238910    0.684076
      3          6           0        2.457881   -1.208574   -0.530137
      4          1           0        3.355231   -1.671111   -0.869463
      5          6           0        1.451959   -0.660437   -0.164803
      6          6           0        0.153044   -0.204993    0.328941
      7          8           0       -0.177326   -0.302259    1.477768
      8          8           0       -0.592513    0.273992   -0.659347
      9          6           0       -1.922289    0.700567   -0.299899
     10          6           0       -2.861771   -0.484867   -0.188535
     11          1           0       -2.211776    1.370272   -1.107498
     12          1           0       -1.868601    1.259311    0.634974
     13          1           0       -3.874696   -0.130543    0.012298
     14          1           0       -2.872405   -1.051283   -1.120962
     15          1           0       -2.559108   -1.141222    0.627614
 ---------------------------------------------------------------------

 SCF Done:  E(UM062X) =  -419.958443864     A.U. after   24 cycles

 The electronic state is 2-A.
 Alpha  occ. eigenvalues --  -19.70371 -19.69897 -19.66071 -10.72897 -10.61336
 Alpha  occ. eigenvalues --  -10.59598 -10.59194 -10.54505  -1.27852  -1.18490
 Alpha  occ. eigenvalues --   -1.14311  -0.91355  -0.87961  -0.78550  -0.71161
 Alpha  occ. eigenvalues --   -0.64505  -0.62009  -0.58486  -0.56834  -0.54682
 Alpha  occ. eigenvalues --   -0.53841  -0.50676  -0.48472  -0.46671  -0.45209
 Alpha  occ. eigenvalues --   -0.42392  -0.41631  -0.39553  -0.38006  -0.36750
 Alpha  occ. eigenvalues --   -0.35925
 Alpha virt. eigenvalues --   -0.01113   0.02016   0.02536   0.03677   0.03841
 Alpha virt. eigenvalues --    0.04586   0.05357   0.05860   0.07942   0.08145
 Alpha virt. eigenvalues --    0.08349   0.09005   0.09653   0.11683   0.12312

  Beta  occ. eigenvalues --  -19.70375 -19.68270 -19.66086 -10.72882 -10.61336
  Beta  occ. eigenvalues --  -10.59594 -10.59084 -10.54505  -1.27860  -1.18516
  Beta  occ. eigenvalues --   -1.07223  -0.91086  -0.87743  -0.78457  -0.71056
  Beta  occ. eigenvalues --   -0.64473  -0.61729  -0.58351  -0.56701  -0.53862
  Beta  occ. eigenvalues --   -0.51599  -0.49334  -0.46829  -0.45211  -0.41914
  Beta  occ. eigenvalues --   -0.39453  -0.38966  -0.38315  -0.37998  -0.36402
  Beta virt. eigenvalues --   -0.09005  -0.00550   0.02072   0.02583   0.03793
  Beta virt. eigenvalues --    0.03884   0.04681   0.05370   0.05993   0.08085
  Beta virt. eigenvalues --    0.08145   0.08385   0.09132   0.09681   0.11691

 Mulliken charges and spin densities:
               1          2
     1  O   -0.404931   0.920959
     2  H    0.403333  -0.033699
     3  C   -0.298840   0.119282
     4  H    0.337392  -0.006510
     5  C   -0.335779  -0.052026
     6  C    0.472795   0.059602
     7  O   -0.331665  -0.006482
     8  O   -0.176657  -0.000112
     9  C   -0.213273  -0.000500
    10  C   -0.570506  -0.000383
    11  H    0.221938  -0.000044
    12  H    0.235088  -0.000079
    13  H    0.207495   0.000001
    14  H    0.219637  -0.000006
    15  H    0.233974  -0.000002
 Sum of Mulliken charges =  -0.00000   1.00000

 Dipole moment (field-independent basis, Debye):
    X=              0.4125    Y=             -0.7072    Z=             -0.4499  Tot=              0.9342
 Quadrupole moment (field-independent basis, Debye-Ang):
   XX=            -30.9881   YY=            -46.9401   ZZ=            -53.2571
   XY=             -5.2481   XZ=              3.0757   YZ=              4.3445

  Exact polarizability:  82.051  -8.607  64.819  -3.696   2.971  57.989
 Approx polarizability:  82.725 -14.935  67.489  -8.345   2.433  73.452

 ******    3 imaginary frequencies (negative Signs) ******

                      1                      2                      3
                      A                      A                      A
 Frequencies --   -471.2166              -148.3517               -76.6701
 Red. masses --      1.0820                 3.4401                 4.7849
 Frc consts  --      0.1416                 0.0446                 0.0166
 IR Inten    --    119.5922                37.1331                12.1819

                      4                      5                      6
                      A                      A                      A
 Frequencies --     11.8615                81.2946                91.5340
 Red. masses --      2.8377                 4.5014                 3.0113
 Frc consts  --      0.0002                 0.0175                 0.0149
 IR Inten    --      0.5332                 0.2094                 6.2659

                      7                      8                      9
                      A                      A                      A
 Frequencies --    153.2973               185.3667               204.1318
 Red. masses --      4.7774                 1.3308                 3.6252
 Frc consts  --      0.0661                 0.0269                 0.0890
 IR Inten    --     11.6856                 2.2992                 0.1282

                     10                     11                     12
                      A                      A                      A
 Frequencies --    298.4823               327.6385               414.6853
 Red. masses --      2.0608                 2.0922                 3.7119
 Frc consts  --      0.1082                 0.1323                 0.3761
 IR Inten    --     58.8500                49.5421                 4.3280

                     13                     14                     15
                      A                      A                      A
 Frequencies --    573.9877               622.3146               756.6801
 Red. masses --      4.1695                 5.3135                 4.3357
 Frc consts  --      0.8094                 1.2124                 1.4626
 IR Inten    --      2.7075                12.6372                81.6134

                     16                     17                     18
                      A                      A                      A
 Frequencies --    764.8382               801.3275               815.1717
 Red. masses --      1.5265                 1.4541                 1.2644
 Frc consts  --      0.5261                 0.5501                 0.4950
 IR Inten    --     39.2678                32.4185                 5.0519

                     19                     20                     21
                      A                      A                      A
 Frequencies --    898.5342               944.7654              1111.9340
 Red. masses --      3.3935                 2.5560                 4.1363
 Frc consts  --      1.6142                 1.3442                 3.0131
 IR Inten    --     20.5891                 6.3363                 6.6593

                     22                     23                     24
                      A                      A                      A
 Frequencies --   1157.8188              1227.4495              1329.3106
 Red. masses --      2.1065                 1.7602                 1.8065
 Frc consts  --      1.6637                 1.5625                 1.8808
 IR Inten    --     18.4885                 4.1298               293.2726

                     25                     26                     27
                      A                      A                      A
 Frequencies --   1373.7102              1443.0112              1454.8439
 Red. masses --      1.8668                 1.3901                 1.2722
 Frc consts  --      2.0756                 1.7055                 1.5865
 IR Inten    --    318.9695                46.6347                15.0558

                     28                     29                     30
                      A                      A                      A
 Frequencies --   1527.9986              1537.3302              1545.0638
 Red. masses --      1.0421                 1.0708                 1.0729
 Frc consts  --      1.4335                 1.4911                 1.5091
 IR Inten    --     14.3075                 4.2464                21.2896

                     31                     32                     33
                      A                      A                      A
 Frequencies --   1908.3557              2300.0738              3107.2171
 Red. masses --     12.2599                 5.6759                 1.0351
 Frc consts  --     26.3060                17.6916                 5.8880
 IR Inten    --    305.6255                62.0251                13.7907

                     34                     35                     36
                      A                      A                      A
 Frequencies --   3139.1330              3186.8535              3190.9584
 Red. masses --      1.0602                 1.1003                 1.1025
 Frc consts  --      6.1553                 6.5837                 6.6138
 IR Inten    --     17.7454                14.5062                 5.8833

                     37                     38                     39
                      A                      A                      A
 Frequencies --   3211.9673              3530.3986              3808.5002
 Red. masses --      1.1054                 1.1735                 1.0672
 Frc consts  --      6.7191                 8.6175                 9.1202
 IR Inten    --     17.6885                60.5336                12.1971

 - Thermochemistry -
 -------------------
 Temperature   298.150 Kelvin.  Pressure   1.00000 Atm.
 Atom     1 has atomic number  8 and mass  15.99491

 Molecular mass:   115.03952 amu.
 Principal axes and moments of inertia in atomic units:
                           1         2         3
     Eigenvalues --   467.508291554.245781644.92270
           X            0.99998  -0.00379   0.00552
           Y            0.00334   0.99681   0.07977
           Z           -0.00580  -0.07975   0.99680
 This molecule is an asymmetric top.
 Rotational symmetry number  1.
 Warning -- assumption of classical behavior for rotation
           may cause significant error
 Rotational temperatures (Kelvin)      0.18527     0.05573     0.05266
 Rotational constants (GHZ):           3.86034     1.16117     1.09716
    3 imaginary frequencies ignored.
 Zero-point vibrational energy     293311.4 (Joules/Mol)
                                   70.10311 (Kcal/Mol)
 Warning -- explicit consideration of  10 degrees of freedom as
           vibrations may cause significant error
 Vibrational temperatures:     17.07   116.96   131.70   220.56   266.70
          (Kelvin)            293.70   429.45   471.40   596.64   825.84
                              895.37  1088.69  1100.43  1152.93  1172.85
                             1292.79  1359.31  1599.82  1665.84  1766.03
                             1912.58  1976.46  2076.17  2093.20  2198.45
                             2211.88  2223.00  2745.70  3309.29  4470.59
                             4516.51  4585.17  4591.08  4621.30  5079.46
                             5479.58

 Zero-point correction=                           0.111716 (Hartree/Particle)
 Thermal correction to Energy=                    0.120727
 Thermal correction to Enthalpy=                  0.121671
 Thermal correction to Gibbs Free Energy=         0.075036
 Sum of electronic and zero-point Energies=           -419.846727
 Sum of electronic and thermal Energies=              -419.837717
 Sum of electronic and thermal Enthalpies=            -419.836773
 Sum of electronic and thermal Free Energies=         -419.883408

                     E (Thermal)             CV                S
                      KCal/Mol        Cal/Mol-Kelvin    Cal/Mol-Kelvin
 Total                   75.757             29.259             98.153
 Electronic               0.000              0.000              1.377
 Translational            0.889              2.981             40.136
 Rotational               0.889              2.981             28.571
 Vibrational             73.980             23.297             28.069
 Vibration     1          0.593              1.987              7.672
 Vibration     2          0.600              1.962              3.859
 Vibration     3          0.602              1.955              3.627
 Vibration     4          0.619              1.899              2.631
 Vibration     5          0.631              1.860              2.274
 Vibration     6          0.640              1.834              2.096
 Vibration     7          0.692              1.677              1.425
 Vibration     8          0.711              1.620              1.272
 Vibration     9          0.778              1.438              0.910
 Vibration    10          0.930              1.088              0.497

 Normal termination of Gaussian 16 at Fri Jun 20 14:32:53 2025.
