 Gaussian 16, Revision A.03,
 Gaussian 16:  ES64L-G16RevA.03 25-Dec-2016

 --------------------------
 # freq 6-311++g(d,p) m062x
 --------------------------

 -------------------
 Title Card Required
 -------------------
 Symbolic Z-matrix:
 Charge =  0 Multiplicity = 2

                         Standard orientation:
 ---------------------------------------------------------------------
 Center     Atomic      Atomic             Coordinates (Angstroms)
 Number     Number       Type             X           Y           Z
 ---------------------------------------------------------------------
      1          8           0        2.197945    1.414116   -0.027722
      2          1           0        2.830493    1.232810    0.686470
      3          6           0        2.457127   -1.198373   -0.537342
      4          1           0        3.345888   -1.673903   -0.881355
      5          6           0        1.467772   -0.621065   -0.166030
      6          6           0        0.156692   -0.198620    0.328378
      7          8           0       -0.175856   -0.316099    1.474371
      8          8           0       -0.592863    0.277947   -0.657530
      9          6           0       -1.923829    0.698294   -0.295009
     10          6           0       -2.861287   -0.489111   -0.191425
     11          1           0       -2.214824    1.373211   -1.097741
     12          1           0       -1.870780    1.250597    0.643773
     13          1           0       -3.874639   -0.137507    0.012082
     14          1           0       -2.871564   -1.049172   -1.127694
     15          1           0       -2.557231   -1.150499    0.620089
 ---------------------------------------------------------------------

 SCF Done:  E(UM062X) =  -420.204433000     A.U. after   25 cycles

 The electronic state is 2-A.
 Alpha  occ. eigenvalues --  -19.68089 -19.66904 -19.62949 -10.70563 -10.60401
 Alpha  occ. eigenvalues --  -10.58117 -10.57729 -10.53695  -1.25579  -1.16264
 Alpha  occ. eigenvalues --   -1.12813  -0.90730  -0.87340  -0.78090  -0.70644
 Alpha  occ. eigenvalues --   -0.64426  -0.61733  -0.58477  -0.56656  -0.54742
 Alpha  occ. eigenvalues --   -0.53479  -0.50605  -0.48397  -0.46356  -0.45230
 Alpha  occ. eigenvalues --   -0.42243  -0.41574  -0.39588  -0.38287  -0.36482
 Alpha  occ. eigenvalues --   -0.35301
 Alpha virt. eigenvalues --   -0.00873  -0.00333   0.00526   0.01541   0.02352
 Alpha virt. eigenvalues --    0.02786   0.03523   0.04190   0.05526   0.06716
 Alpha virt. eigenvalues --    0.07302   0.07790   0.08153   0.09174   0.10311

  Beta  occ. eigenvalues --  -19.68094 -19.65372 -19.62965 -10.70547 -10.60401
  Beta  occ. eigenvalues --  -10.58117 -10.57597 -10.53695  -1.25587  -1.16297
  Beta  occ. eigenvalues --   -1.05791  -0.90381  -0.87019  -0.77946  -0.70494
  Beta  occ. eigenvalues --   -0.64374  -0.61407  -0.58385  -0.56412  -0.53501
  Beta  occ. eigenvalues --   -0.51932  -0.49210  -0.46613  -0.45229  -0.41970
  Beta  occ. eigenvalues --   -0.39509  -0.38982  -0.38285  -0.38052  -0.36046
  Beta virt. eigenvalues --   -0.08958  -0.00292  -0.00084   0.00648   0.01857
  Beta virt. eigenvalues --    0.02456   0.02823   0.03529   0.04276   0.05553
  Beta virt. eigenvalues --    0.06660   0.07407   0.07839   0.08243   0.09272

 Mulliken charges and spin densities:
               1          2
     1  O   -0.213564   0.881535
     2  H    0.236874  -0.019215
     3  C   -1.103272   0.176502
     4  H    0.186659  -0.010545
     5  C    1.064667  -0.084318
     6  C   -0.276276   0.062578
     7  O   -0.196885  -0.007192
     8  O    0.058466   0.000470
     9  C   -0.255450   0.001049
    10  C   -0.418829  -0.000830
    11  H    0.201496   0.000191
    12  H    0.197582  -0.000569
    13  H    0.161866   0.000181
    14  H    0.165876   0.000050
    15  H    0.190788   0.000114
 Sum of Mulliken charges =  -0.00000   1.00000

 Dipole moment (field-independent basis, Debye):
    X=              0.2506    Y=             -0.6845    Z=             -0.7247  Tot=              1.0279
 Quadrupole moment (field-independent basis, Debye-Ang):
   XX=            -31.8210   YY=            -46.5232   ZZ=            -51.9672
   XY=             -5.4179   XZ=              2.4445   YZ=              3.9672

  Exact polarizability:  86.768  -7.087  71.471  -3.904   3.785  60.271
 Approx polarizability:  89.145 -13.071  79.184  -7.848   3.427  78.448

 ******    1 imaginary frequencies (negative Signs) ******

                      1                      2                      3
                      A                      A                      A
 Frequencies --    -40.9072                26.2480                88.8755
 Red. masses --      4.7173                 5.0066                 5.5386
 Frc consts  --      0.0047                 0.0020                 0.0258
 IR Inten    --      5.4433                11.1832                 6.5848

                      4                      5                      6
                      A                      A                      A
 Frequencies --    110.9095               125.0418               158.5205
 Red. masses --      6.3571                 4.3361                 2.4143
 Frc consts  --      0.0461                 0.0399                 0.0357
 IR Inten    --      7.5471                 6.5770                18.3990

                      7                      8                      9
                      A                      A                      A
 Frequencies --    191.1016               228.8218               253.1658
 Red. masses --      1.4126                 1.3086                 2.6457
 Frc consts  --      0.0304                 0.0404                 0.0999
 IR Inten    --     44.4975                 2.3207                15.2647

                     10                     11                     12
                      A                      A                      A
 Frequencies --    337.8974               418.2106               557.5959
 Red. masses --      2.8855                 3.8187                 2.8868
 Frc consts  --      0.1941                 0.3935                 0.5288
 IR Inten    --     11.5717                 0.3327                19.7142

                     13                     14                     15
                      A                      A                      A
 Frequencies --    606.2048               616.6961               718.2448
 Red. masses --      3.3733                 1.4688                 1.3369
 Frc consts  --      0.7304                 0.3291                 0.4063
 IR Inten    --     31.1550                63.7668                35.8468

                     16                     17                     18
                      A                      A                      A
 Frequencies --    745.4022               777.2089               799.6893
 Red. masses --      1.3227                 8.3319                 1.1955
 Frc consts  --      0.4330                 2.9653                 0.4504
 IR Inten    --     20.8937                55.2174                 4.9232

                     19                     20                     21
                      A                      A                      A
 Frequencies --    895.8580               928.6262              1077.7234
 Red. masses --      3.1242                 2.8686                 4.1453
 Frc consts  --      1.4773                 1.4575                 2.8367
 IR Inten    --     14.7566                 6.6556                20.6973

                     22                     23                     24
                      A                      A                      A
 Frequencies --   1127.6582              1203.0361              1292.8645
 Red. masses --      2.0985                 1.7746                 3.5469
 Frc consts  --      1.5722                 1.5133                 3.4931
 IR Inten    --     21.0277                 5.1754               564.6764

                     25                     26                     27
                      A                      A                      A
 Frequencies --   1348.2734              1400.6153              1430.2281
 Red. masses --      1.2584                 1.2865                 1.3915
 Frc consts  --      1.3478                 1.4869                 1.6770
 IR Inten    --    111.4260                34.7817                 8.4383

                     28                     29                     30
                      A                      A                      A
 Frequencies --   1492.0945              1502.7374              1514.7164
 Red. masses --      1.0409                 1.0611                 1.0853
 Frc consts  --      1.3653                 1.4118                 1.4671
 IR Inten    --     10.4994                 1.8192                16.7741

                     31                     32                     33
                      A                      A                      A
 Frequencies --   1842.8150              2220.5741              3075.1875
 Red. masses --     11.9853                 5.9365                 1.0354
 Frc consts  --     23.9808                17.2469                 5.7688
 IR Inten    --    332.3319                66.3442                10.7275

                     34                     35                     36
                      A                      A                      A
 Frequencies --   3108.2766              3150.2058              3154.9482
 Red. masses --      1.0609                 1.1014                 1.1048
 Frc consts  --      6.0390                 6.4395                 6.4789
 IR Inten    --     15.8420                15.0273                 1.9912

                     37                     38                     39
                      A                      A                      A
 Frequencies --   3175.7805              3485.9746              3802.9070
 Red. masses --      1.1074                 1.1634                 1.0673
 Frc consts  --      6.5802                 8.3299                 9.0944
 IR Inten    --     14.9268                66.9906                40.4819

 - Thermochemistry -
 -------------------
 Temperature   298.150 Kelvin.  Pressure   1.00000 Atm.
 Atom     1 has atomic number  8 and mass  15.99491

 Molecular mass:   115.03952 amu.
 Principal axes and moments of inertia in atomic units:
                           1         2         3
     Eigenvalues --   460.581521552.331441637.04343
           X            0.99998  -0.00371   0.00544
           Y            0.00322   0.99618   0.08731
           Z           -0.00574  -0.08729   0.99617
 This molecule is an asymmetric top.
 Rotational symmetry number  1.
 Warning -- assumption of classical behavior for rotation
           may cause significant error
 Rotational temperatures (Kelvin)      0.18805     0.05580     0.05291
 Rotational constants (GHZ):           3.91840     1.16260     1.10244
    1 imaginary frequencies ignored.
 Zero-point vibrational energy     293030.9 (Joules/Mol)
                                   70.03606 (Kcal/Mol)
 Warning -- explicit consideration of  13 degrees of freedom as
           vibrations may cause significant error
 Vibrational temperatures:     37.77   127.87   159.57   179.91   228.08
          (Kelvin)            274.95   329.22   364.25   486.16   601.71
                              802.26   872.19   887.29  1033.39  1072.47
                             1118.23  1150.57  1288.94  1336.09  1550.60
                             1622.45  1730.90  1860.14  1939.86  2015.17
                             2057.78  2146.79  2162.10  2179.34  2651.40
                             3194.91  4424.51  4472.12  4532.44  4539.27
                             4569.24  5015.54  5471.53

 Zero-point correction=                           0.111610 (Hartree/Particle)
 Thermal correction to Energy=                    0.121432
 Thermal correction to Enthalpy=                  0.122377
 Thermal correction to Gibbs Free Energy=         0.075084
 Sum of electronic and zero-point Energies=           -420.092823
 Sum of electronic and thermal Energies=              -420.083001
 Sum of electronic and thermal Enthalpies=            -420.082056
 Sum of electronic and thermal Free Energies=         -420.129349

                     E (Thermal)             CV                S
                      KCal/Mol        Cal/Mol-Kelvin    Cal/Mol-Kelvin
 Total                   76.200             32.576             99.536
 Electronic               0.000              0.000              1.377
 Translational            0.889              2.981             40.136
 Rotational               0.889              2.981             28.550
 Vibrational             74.423             26.614             29.473
 Vibration     1          0.593              1.985              6.095
 Vibration     2          0.602              1.957              3.685
 Vibration     3          0.607              1.940              3.253
 Vibration     4          0.610              1.928              3.021
 Vibration     5          0.621              1.893              2.567
 Vibration     6          0.634              1.852              2.217
 Vibration     7          0.651              1.797              1.888
 Vibration     8          0.664              1.757              1.708
 Vibration     9          0.718              1.600              1.222
 Vibration    10          0.781              1.431              0.898
 Vibration    11          0.913              1.123              0.529
 Vibration    12          0.965              1.019              0.439
 Vibration    13          0.976              0.997              0.422

 1\1\GINC-AJ\Freq\UM062X\6-311++G(d,p)\C5H7O3(2)\AAYUSH\23-Jun-2025\0\\
 # freq 6-311++g(d,p) m062x\\Title Card Required\\0,2\O,2.197945,1.4141
 16,-0.027722\H,2.830493,1.23281,0.68647\C,2.457127,-1.198373,-0.537342
 \H,3.345888,-1.673903,-0.881355\C,1.467772,-0.621065,-0.16603\C,0.1566
 92,-0.19862,0.328378\O,-0.175856,-0.316099,1.474371\O,-0.592863,0.2779
 47,-0.65753\C,-1.923829,0.698294,-0.295009\C,-2.861287,-0.489111,-0.19
 1425\H,-2.214824,1.373211,-1.097741\H,-1.87078,1.250597,0.643773\H,-3.
 874639,-0.137507,0.012082\H,-2.871564,-1.049172,-1.127694\H,-2.557231,

 Normal termination of Gaussian 16 at Mon Jun 23 07:36:31 2025.
