 Gaussian 16, Revision A.03,
 Gaussian 16:  ES64L-G16RevA.03 25-Dec-2016

 -------------------
 # freq 6-31+g m062x
 -------------------

 -------------------
 Title Card Required
 -------------------
 Symbolic Z-matrix:
 Charge =  0 Multiplicity = 2

                         Standard orientation:
 ---------------------------------------------------------------------
 Center     Atomic      Atomic             Coordinates (Angstroms)
 Number     Number       Type             X           Y           Z
 ---------------------------------------------------------------------
      1          8           0        2.135018    1.292989    0.013316
      2          1           0        2.793347    1.182122    0.712719
      3          6           0        2.446636   -1.165623   -0.580539
      4          1           0        3.324235   -1.645922   -0.949474
      5          6           0        1.560470   -0.389346   -0.164744
      6          6           0        0.165092   -0.193270    0.322458
      7          8           0       -0.169852   -0.386558    1.455754
      8          8           0       -0.594602    0.295997   -0.646549
      9          6           0       -1.929803    0.691842   -0.267633
     10          6           0       -2.857851   -0.504777   -0.210498
     11          1           0       -2.225141    1.396444   -1.042734
     12          1           0       -1.877700    1.206806    0.692277
     13          1           0       -3.873712   -0.169244    0.007060
     14          1           0       -2.864905   -1.027308   -1.168283
     15          1           0       -2.547887   -1.195277    0.574001
 ---------------------------------------------------------------------

 SCF Done:  E(UM062X) =  -419.959246470     A.U. after   20 cycles

 The electronic state is 2-A.
 Alpha  occ. eigenvalues --  -19.70745 -19.66947 -19.66551 -10.73041 -10.64186
 Alpha  occ. eigenvalues --  -10.61566 -10.61227 -10.54655  -1.28325  -1.18945
 Alpha  occ. eigenvalues --   -1.12242  -0.92319  -0.88616  -0.78797  -0.71911
 Alpha  occ. eigenvalues --   -0.65066  -0.62808  -0.58985  -0.57470  -0.54677
 Alpha  occ. eigenvalues --   -0.53666  -0.49755  -0.48200  -0.46487  -0.45333
 Alpha  occ. eigenvalues --   -0.42257  -0.40276  -0.39786  -0.38277  -0.36716
 Alpha  occ. eigenvalues --   -0.31594
 Alpha virt. eigenvalues --   -0.00064   0.01779   0.02399   0.02721   0.03850
 Alpha virt. eigenvalues --    0.04152   0.05276   0.06045   0.07732   0.08018
 Alpha virt. eigenvalues --    0.08523   0.08990   0.09459   0.11266   0.11962

  Beta  occ. eigenvalues --  -19.70744 -19.66565 -19.66106 -10.72979 -10.64363
  Beta  occ. eigenvalues --  -10.61565 -10.60663 -10.54654  -1.28304  -1.18954
  Beta  occ. eigenvalues --   -1.09430  -0.91261  -0.87819  -0.78318  -0.71295
  Beta  occ. eigenvalues --   -0.64792  -0.61924  -0.58696  -0.57245  -0.54269
  Beta  occ. eigenvalues --   -0.52575  -0.49361  -0.46945  -0.45297  -0.42808
  Beta  occ. eigenvalues --   -0.41672  -0.39382  -0.38640  -0.38160  -0.35313
  Beta virt. eigenvalues --   -0.09560   0.01042   0.01626   0.02556   0.02808
  Beta virt. eigenvalues --    0.03866   0.04118   0.05278   0.05856   0.07646
  Beta virt. eigenvalues --    0.08094   0.08317   0.08883   0.09560   0.11089

 Mulliken charges and spin densities:
               1          2
     1  O   -0.494750   0.420893
     2  H    0.413656  -0.011270
     3  C    0.346704   0.896536
     4  H    0.296285  -0.032893
     5  C   -0.565644  -0.340086
     6  C    0.213140   0.069846
     7  O   -0.353751  -0.005670
     8  O   -0.195524   0.000423
     9  C   -0.193918   0.001834
    10  C   -0.587860   0.000539
    11  H    0.224849  -0.000156
    12  H    0.235869  -0.000114
    13  H    0.207697   0.000206
    14  H    0.219153  -0.000053
    15  H    0.234092  -0.000037
 Sum of Mulliken charges =  -0.00000   1.00000

 Dipole moment (field-independent basis, Debye):
    X=              0.0980    Y=             -1.4867    Z=             -0.6672  Tot=              1.6324
 Quadrupole moment (field-independent basis, Debye-Ang):
   XX=            -31.9307   YY=            -48.1594   ZZ=            -52.8192
   XY=             -7.1603   XZ=              2.2677   YZ=              4.6373

  Exact polarizability:  79.662  -5.963  71.337  -2.659   4.272  58.063
 Approx polarizability:  75.709 -10.333  82.955  -5.714   4.011  73.363

 ******    3 imaginary frequencies (negative Signs) ******

                      1                      2                      3
                      A                      A                      A
 Frequencies --   -633.7844              -472.5549               -85.4109
 Red. masses --     10.2864                 1.0701                 6.9939
 Frc consts  --      2.4344                 0.1408                 0.0301
 IR Inten    --     13.2674               114.1480                 5.5032

                      4                      5                      6
                      A                      A                      A
 Frequencies --     42.5504                63.9211               148.2648
 Red. masses --      2.5535                 3.5908                 2.4896
 Frc consts  --      0.0027                 0.0086                 0.0322
 IR Inten    --      2.3312                 6.4530                 4.5987

                      7                      8                      9
                      A                      A                      A
 Frequencies --    190.8942               215.9805               272.3586
 Red. masses --      1.9345                 3.4773                 1.6413
 Frc consts  --      0.0415                 0.0956                 0.0717
 IR Inten    --      5.2043                 0.5382                19.1163

                     10                     11                     12
                      A                      A                      A
 Frequencies --    316.1020               368.0559               420.3448
 Red. masses --      2.8987                 2.7765                 3.4684
 Frc consts  --      0.1706                 0.2216                 0.3611
 IR Inten    --     16.8168                22.6413                 2.7285

                     13                     14                     15
                      A                      A                      A
 Frequencies --    576.1869               621.8857               717.1138
 Red. masses --      3.4890                 6.0483                 1.4384
 Frc consts  --      0.6825                 1.3782                 0.4358
 IR Inten    --     14.1347                15.0391                63.6773

                     16                     17                     18
                      A                      A                      A
 Frequencies --    721.9733               814.9296               892.5267
 Red. masses --      6.1594                 1.2874                 2.8588
 Frc consts  --      1.8916                 0.5038                 1.3418
 IR Inten    --     23.0772                 7.4016                27.8936

                     19                     20                     21
                      A                      A                      A
 Frequencies --    902.6506               944.8885              1110.5704
 Red. masses --      1.4600                 2.1334                 4.1177
 Frc consts  --      0.7009                 1.1222                 2.9922
 IR Inten    --     38.7521                15.3398                 7.2526

                     22                     23                     24
                      A                      A                      A
 Frequencies --   1156.7521              1227.0876              1323.3564
 Red. masses --      2.0553                 1.7400                 2.0969
 Frc consts  --      1.6203                 1.5436                 2.1636
 IR Inten    --     18.0929                 6.0017               336.5208

                     25                     26                     27
                      A                      A                      A
 Frequencies --   1371.4688              1443.2559              1456.1858
 Red. masses --      1.6813                 1.3553                 1.2723
 Frc consts  --      1.8632                 1.6633                 1.5896
 IR Inten    --    252.9467                30.9522                14.7993

                     28                     29                     30
                      A                      A                      A
 Frequencies --   1528.1496              1538.1400              1546.2956
 Red. masses --      1.0419                 1.0641                 1.0782
 Frc consts  --      1.4335                 1.4833                 1.5190
 IR Inten    --     14.3016                 1.9969                20.3568

                     31                     32                     33
                      A                      A                      A
 Frequencies --   1905.2205              1972.7385              3107.5398
 Red. masses --     10.6120                 7.5287                 1.0352
 Frc consts  --     22.6954                17.2627                 5.8897
 IR Inten    --    262.7968                66.1084                13.4950

                     34                     35                     36
                      A                      A                      A
 Frequencies --   3139.5620              3186.9517              3191.9439
 Red. masses --      1.0603                 1.0998                 1.1028
 Frc consts  --      6.1576                 6.5815                 6.6197
 IR Inten    --     15.9639                15.5636                 4.0230

                     37                     38                     39
                      A                      A                      A
 Frequencies --   3213.1483              3497.1319              3861.6762
 Red. masses --      1.1054                 1.1322                 1.0673
 Frc consts  --      6.7242                 8.1582                 9.3772
 IR Inten    --     17.0876                67.7634                34.5671

 - Thermochemistry -
 -------------------
 Temperature   298.150 Kelvin.  Pressure   1.00000 Atm.
 Atom     1 has atomic number  8 and mass  15.99491

 Molecular mass:   115.03952 amu.
 Principal axes and moments of inertia in atomic units:
                           1         2         3
     Eigenvalues --   429.550891543.072471601.52954
           X            0.99998  -0.00354   0.00498
           Y            0.00280   0.99011   0.14027
           Z           -0.00543  -0.14026   0.99010
 This molecule is an asymmetric top.
 Rotational symmetry number  1.
 Rotational temperatures (Kelvin)      0.20164     0.05613     0.05408
 Rotational constants (GHZ):           4.20146     1.16958     1.12689
    3 imaginary frequencies ignored.
 Zero-point vibrational energy     293131.8 (Joules/Mol)
                                   70.06017 (Kcal/Mol)
 Warning -- explicit consideration of  10 degrees of freedom as
           vibrations may cause significant error
 Vibrational temperatures:     61.22    91.97   213.32   274.65   310.75
          (Kelvin)            391.86   454.80   529.55   604.78   829.00
                              894.75  1031.77  1038.76  1172.50  1284.15
                             1298.71  1359.48  1597.86  1664.31  1765.51
                             1904.01  1973.24  2076.52  2095.13  2198.67
                             2213.04  2224.77  2741.19  2838.33  4471.06
                             4517.13  4585.31  4592.50  4623.00  5031.59
                             5556.09

 Zero-point correction=                           0.111648 (Hartree/Particle)
 Thermal correction to Energy=                    0.120247
 Thermal correction to Enthalpy=                  0.121191
 Thermal correction to Gibbs Free Energy=         0.076741
 Sum of electronic and zero-point Energies=           -419.847598
 Sum of electronic and thermal Energies=              -419.838999
 Sum of electronic and thermal Enthalpies=            -419.838055
 Sum of electronic and thermal Free Energies=         -419.882505

                     E (Thermal)             CV                S
                      KCal/Mol        Cal/Mol-Kelvin    Cal/Mol-Kelvin
 Total                   75.456             28.900             93.553
 Electronic               0.000              0.000              1.377
 Translational            0.889              2.981             40.136
 Rotational               0.889              2.981             28.453
 Vibrational             73.679             22.938             23.587
 Vibration     1          0.595              1.980              5.137
 Vibration     2          0.597              1.972              4.332
 Vibration     3          0.618              1.905              2.694
 Vibration     4          0.634              1.852              2.219
 Vibration     5          0.645              1.817              1.993
 Vibration     6          0.675              1.724              1.581
 Vibration     7          0.703              1.643              1.330
 Vibration     8          0.741              1.538              1.088
 Vibration     9          0.783              1.426              0.891
 Vibration    10          0.933              1.083              0.492

 Normal termination of Gaussian 16 at Fri Jun 20 14:30:27 2025.
