 Gaussian 16, Revision A.03,
 Gaussian 16:  ES64L-G16RevA.03 25-Dec-2016

 --------------------------
 # freq 6-311++g(d,p) m062x
 --------------------------

 -------------------
 Title Card Required
 -------------------
 Symbolic Z-matrix:
 Charge =  0 Multiplicity = 2

                         Standard orientation:
 ---------------------------------------------------------------------
 Center     Atomic      Atomic             Coordinates (Angstroms)
 Number     Number       Type             X           Y           Z
 ---------------------------------------------------------------------
      1          8           0        2.115269    1.246962    0.035451
      2          1           0        2.781761    1.157988    0.727815
      3          6           0        2.435318   -1.155998   -0.604512
      4          1           0        3.333516   -1.593815   -0.982500
      5          6           0        1.593865   -0.305294   -0.162817
      6          6           0        0.169570   -0.198929    0.317498
      7          8           0       -0.168339   -0.421784    1.445164
      8          8           0       -0.595388    0.307756   -0.639948
      9          6           0       -1.931079    0.693317   -0.252241
     10          6           0       -2.857300   -0.505341   -0.221188
     11          1           0       -2.227783    1.414627   -1.011400
     12          1           0       -1.879129    1.186801    0.719029
     13          1           0       -3.873765   -0.176584    0.003844
     14          1           0       -2.863527   -1.006639   -1.190266
     15          1           0       -2.545654   -1.212389    0.547700
 ---------------------------------------------------------------------

 SCF Done:  E(UM062X) =  -420.225709968     A.U. after   19 cycles

 The electronic state is 2-A.
 Alpha  occ. eigenvalues --  -19.68250 -19.64592 -19.63204 -10.70197 -10.63472
 Alpha  occ. eigenvalues --  -10.60491 -10.59337 -10.53747  -1.25726  -1.16403
 Alpha  occ. eigenvalues --   -1.12283  -0.90968  -0.87671  -0.77988  -0.71180
 Alpha  occ. eigenvalues --   -0.64711  -0.61608  -0.59167  -0.57529  -0.54990
 Alpha  occ. eigenvalues --   -0.53344  -0.49890  -0.48574  -0.46087  -0.45179
 Alpha  occ. eigenvalues --   -0.42236  -0.40581  -0.39410  -0.38434  -0.35932
 Alpha  occ. eigenvalues --   -0.31201
 Alpha virt. eigenvalues --   -0.00294   0.00272   0.01268   0.01615   0.02057
 Alpha virt. eigenvalues --    0.02687   0.03071   0.04114   0.05461   0.06732
 Alpha virt. eigenvalues --    0.07162   0.07844   0.08420   0.09029   0.10556

  Beta  occ. eigenvalues --  -19.68246 -19.64136 -19.63205 -10.70140 -10.63627
  Beta  occ. eigenvalues --  -10.60490 -10.58657 -10.53747  -1.25686  -1.16391
  Beta  occ. eigenvalues --   -1.10677  -0.89923  -0.86411  -0.77296  -0.70274
  Beta  occ. eigenvalues --   -0.64417  -0.60668  -0.58755  -0.57144  -0.54558
  Beta  occ. eigenvalues --   -0.53104  -0.49425  -0.46775  -0.45123  -0.44817
  Beta  occ. eigenvalues --   -0.41980  -0.39640  -0.38777  -0.38359  -0.34503
  Beta virt. eigenvalues --   -0.08219  -0.00283   0.00340   0.01661   0.02103
  Beta virt. eigenvalues --    0.02404   0.02771   0.03313   0.04212   0.05502
  Beta virt. eigenvalues --    0.06361   0.07316   0.07830   0.08137   0.08999

 Mulliken charges and spin densities:
               1          2
     1  O   -0.278371   0.213513
     2  H    0.262525   0.001220
     3  C    0.100615   1.029555
     4  H    0.226948  -0.027380
     5  C   -0.135028  -0.291924
     6  C   -0.223044   0.066201
     7  O   -0.219140   0.001458
     8  O    0.046681   0.003585
     9  C   -0.266702   0.002692
    10  C   -0.431750   0.001665
    11  H    0.198446   0.000177
    12  H    0.199375  -0.000589
    13  H    0.161756   0.000711
    14  H    0.165371  -0.000276
    15  H    0.192318  -0.000606
 Sum of Mulliken charges =  -0.00000   1.00000

 Dipole moment (field-independent basis, Debye):
    X=              0.0742    Y=             -1.0153    Z=             -0.8655  Tot=              1.3362
 Quadrupole moment (field-independent basis, Debye-Ang):
   XX=            -32.7599   YY=            -47.9453   ZZ=            -51.5612
   XY=             -6.0184   XZ=              1.8812   YZ=              4.0947

  Exact polarizability:  83.334  -6.155  69.444  -2.918   3.778  60.194
 Approx polarizability:  81.006  -8.483  84.256  -4.704   3.467  78.143

 ******    2 imaginary frequencies (negative Signs) ******

                      1                      2                      3
                      A                      A                      A
 Frequencies --   -360.9297               -22.9560                98.9489
 Red. masses --      2.6318                 1.4626                 3.7249
 Frc consts  --      0.2020                 0.0005                 0.0215
 IR Inten    --    130.8270                38.5841                 4.6645

                      4                      5                      6
                      A                      A                      A
 Frequencies --    115.0719               138.9671               196.0202
 Red. masses --      2.9802                 2.8570                 2.0098
 Frc consts  --      0.0233                 0.0325                 0.0455
 IR Inten    --      5.9829                28.6623                 5.4515

                      7                      8                      9
                      A                      A                      A
 Frequencies --    232.9174               252.7680               275.5063
 Red. masses --      1.9223                 1.6751                 3.0628
 Frc consts  --      0.0614                 0.0631                 0.1370
 IR Inten    --     12.4182                 6.3130                 1.6328

                     10                     11                     12
                      A                      A                      A
 Frequencies --    346.8977               375.5359               446.4454
 Red. masses --      3.2002                 9.0867                 3.5755
 Frc consts  --      0.2269                 0.7550                 0.4199
 IR Inten    --     11.9834                 0.4549                 3.5728

                     13                     14                     15
                      A                      A                      A
 Frequencies --    607.4235               646.9764               690.5413
 Red. masses --      3.7841                 4.4223                 1.4868
 Frc consts  --      0.8226                 1.0906                 0.4177
 IR Inten    --     14.5704                18.6175                37.9722

                     16                     17                     18
                      A                      A                      A
 Frequencies --    788.8501               804.9445               894.9547
 Red. masses --      4.6709                 1.4039                 3.2333
 Frc consts  --      1.7125                 0.5359                 1.5258
 IR Inten    --     12.3521                 4.4229                16.3430

                     19                     20                     21
                      A                      A                      A
 Frequencies --    917.9562              1069.1865              1117.9127
 Red. masses --      2.8543                 3.0585                 1.3141
 Frc consts  --      1.4171                 2.0600                 0.9676
 IR Inten    --      2.9327                30.6056                28.9126

                     22                     23                     24
                      A                      A                      A
 Frequencies --   1129.3172              1202.8086              1284.3626
 Red. masses --      1.9811                 1.7661                 3.8511
 Frc consts  --      1.4886                 1.5054                 3.7430
 IR Inten    --     32.1935                 7.8093               529.0639

                     25                     26                     27
                      A                      A                      A
 Frequencies --   1347.8924              1401.3199              1432.0800
 Red. masses --      1.2310                 1.2778                 1.3869
 Frc consts  --      1.3177                 1.4784                 1.6758
 IR Inten    --     87.7580                25.5703                 7.8719

                     28                     29                     30
                      A                      A                      A
 Frequencies --   1493.0433              1503.5078              1516.1398
 Red. masses --      1.0408                 1.0601                 1.0858
 Frc consts  --      1.3669                 1.4119                 1.4706
 IR Inten    --     10.1472                 1.3308                15.3009

                     31                     32                     33
                      A                      A                      A
 Frequencies --   1791.8505              1860.1316              3075.1410
 Red. masses --      7.5707                11.2172                 1.0354
 Frc consts  --     14.3215                22.8678                 5.7689
 IR Inten    --     60.7608               272.2150                10.6038

                     34                     35                     36
                      A                      A                      A
 Frequencies --   3107.5822              3149.7942              3154.8823
 Red. masses --      1.0606                 1.1016                 1.1048
 Frc consts  --      6.0346                 6.4391                 6.4786
 IR Inten    --     15.9688                14.0910                 2.7752

                     37                     38                     39
                      A                      A                      A
 Frequencies --   3175.3614              3421.4806              3862.1350
 Red. masses --      1.1074                 1.1211                 1.0675
 Frc consts  --      6.5790                 7.7323                 9.3815
 IR Inten    --     14.7706                68.6726                72.7807

 - Thermochemistry -
 -------------------
 Temperature   298.150 Kelvin.  Pressure   1.00000 Atm.
 Atom     1 has atomic number  8 and mass  15.99491

 Molecular mass:   115.03952 amu.
 Principal axes and moments of inertia in atomic units:
                           1         2         3
     Eigenvalues --   419.886241539.341051590.58640
           X            0.99998  -0.00338   0.00475
           Y            0.00255   0.98623   0.16538
           Z           -0.00525  -0.16536   0.98622
 This molecule is an asymmetric top.
 Rotational symmetry number  1.
 Rotational temperatures (Kelvin)      0.20628     0.05627     0.05445
 Rotational constants (GHZ):           4.29817     1.17241     1.13464
    2 imaginary frequencies ignored.
 Zero-point vibrational energy     292646.4 (Joules/Mol)
                                   69.94416 (Kcal/Mol)
 Warning -- explicit consideration of  11 degrees of freedom as
           vibrations may cause significant error
 Vibrational temperatures:    142.37   165.56   199.94   282.03   335.12
          (Kelvin)            363.68   396.39   499.11   540.31   642.34
                              873.95   930.85   993.53  1134.98  1158.14
                             1287.64  1320.73  1538.32  1608.43  1624.84
                             1730.57  1847.91  1939.32  2016.19  2060.44
                             2148.16  2163.21  2181.39  2578.07  2676.31
                             4424.44  4471.12  4531.85  4539.17  4568.64
                             4922.75  5556.75

 Zero-point correction=                           0.111463 (Hartree/Particle)
 Thermal correction to Energy=                    0.120194
 Thermal correction to Enthalpy=                  0.121138
 Thermal correction to Gibbs Free Energy=         0.077461
 Sum of electronic and zero-point Energies=           -420.114247
 Sum of electronic and thermal Energies=              -420.105516
 Sum of electronic and thermal Enthalpies=            -420.104572
 Sum of electronic and thermal Free Energies=         -420.148249

                     E (Thermal)             CV                S
                      KCal/Mol        Cal/Mol-Kelvin    Cal/Mol-Kelvin
 Total                   75.423             30.223             91.925
 Electronic               0.000              0.000              1.377
 Translational            0.889              2.981             40.136
 Rotational               0.889              2.981             28.421
 Vibrational             73.645             24.261             21.990
 Vibration     1          0.604              1.950              3.475
 Vibration     2          0.608              1.937              3.182
 Vibration     3          0.615              1.914              2.818
 Vibration     4          0.636              1.845              2.170
 Vibration     5          0.654              1.791              1.856
 Vibration     6          0.664              1.758              1.711
 Vibration     7          0.677              1.719              1.561
 Vibration     8          0.725              1.582              1.180
 Vibration     9          0.746              1.522              1.057
 Vibration    10          0.806              1.369              0.807
 Vibration    11          0.966              1.016              0.437

 1\1\GINC-AJ\Freq\UM062X\6-311++G(d,p)\C5H7O3(2)\AAYUSH\16-Aug-2025\0\\
 # freq 6-311++g(d,p) m062x\\Title Card Required\\0,2\O,2.060013,1.2325
 94,-0.030124\H,2.72599,1.170762,0.665683\C,2.365628,-1.198516,-0.56163
 4\H,3.261169,-1.658212,-0.91941\C,1.529307,-0.32384,-0.158714\C,0.1056
 96,-0.187519,0.316029\O,-0.233493,-0.357562,1.452476\O,-0.656254,0.280
 301,-0.663344\C,-1.989593,0.690849,-0.293614\C,-2.922979,-0.499643,-0.
 209059\H,-2.282002,1.37916,-1.084417\H,-1.934644,1.227065,0.654565\H,-
 3.937446,-0.155045,0.000778\H,-2.932253,-1.04384,-1.154688\H,-2.615542

 Normal termination of Gaussian 16 at Sat Aug 16 17:52:16 2025.
