 Gaussian 16, Revision A.03,
 Gaussian 16:  ES64L-G16RevA.03 25-Dec-2016

 --------------------------
 # ccsd(t)/6-311++g(d,p) sp
 --------------------------

 -------------------
 Title Card Required
 -------------------
 Symbolic Z-matrix:
 Charge =  0 Multiplicity = 2

                         Standard orientation:
 ---------------------------------------------------------------------
 Center     Atomic      Atomic             Coordinates (Angstroms)
 Number     Number       Type             X           Y           Z
 ---------------------------------------------------------------------
      1          8           0        2.210579    1.437703   -0.035226
      2          1           0        2.832482    1.238910    0.684076
      3          6           0        2.457881   -1.208574   -0.530137
      4          1           0        3.355231   -1.671111   -0.869463
      5          6           0        1.451959   -0.660437   -0.164803
      6          6           0        0.153044   -0.204993    0.328941
      7          8           0       -0.177326   -0.302259    1.477768
      8          8           0       -0.592513    0.273992   -0.659347
      9          6           0       -1.922289    0.700567   -0.299899
     10          6           0       -2.861771   -0.484867   -0.188535
     11          1           0       -2.211776    1.370272   -1.107498
     12          1           0       -1.868601    1.259311    0.634974
     13          1           0       -3.874696   -0.130543    0.012298
     14          1           0       -2.872405   -1.051283   -1.120962
     15          1           0       -2.559108   -1.141222    0.627614
 ---------------------------------------------------------------------

 SCF Done:  E(UHF) =  -417.988806545     A.U. after   40 cycles
 E2 =    -0.1260099793D+01 EUMP2 =    -0.41924890633792D+03
 CCSD(T)= -0.41935592126D+03

 The electronic state is 2-A.
 Alpha  occ. eigenvalues --  -20.62883 -20.61066 -20.55642 -11.41476 -11.29509
 Alpha  occ. eigenvalues --  -11.26717 -11.25796 -11.22462  -1.48055  -1.38520
 Alpha  occ. eigenvalues --   -1.37737  -1.07742  -1.04138  -0.92558  -0.83736
 Alpha  occ. eigenvalues --   -0.76312  -0.73014  -0.69580  -0.67881  -0.66691
 Alpha  occ. eigenvalues --   -0.65245  -0.62947  -0.58169  -0.55627  -0.54018
 Alpha  occ. eigenvalues --   -0.53875  -0.50317  -0.47776  -0.46035  -0.42810
 Alpha  occ. eigenvalues --   -0.42145
 Alpha virt. eigenvalues --    0.03718   0.04547   0.05768   0.06600   0.07024
 Alpha virt. eigenvalues --    0.08286   0.09323   0.09954   0.11137   0.12279
 Alpha virt. eigenvalues --    0.13422   0.13829   0.14452   0.15145   0.16446

  Beta  occ. eigenvalues --  -20.61074 -20.58814 -20.55949 -11.41240 -11.29509
  Beta  occ. eigenvalues --  -11.26923 -11.25378 -11.22463  -1.48186  -1.38237
  Beta  occ. eigenvalues --   -1.23377  -1.07789  -1.03648  -0.91991  -0.83488
  Beta  occ. eigenvalues --   -0.76230  -0.72378  -0.69634  -0.66577  -0.63463
  Beta  occ. eigenvalues --   -0.62990  -0.58446  -0.55225  -0.54008  -0.50773
  Beta  occ. eigenvalues --   -0.49968  -0.48447  -0.46782  -0.43104  -0.42279
  Beta virt. eigenvalues --    0.03784   0.04552   0.04977   0.06520   0.06994
  Beta virt. eigenvalues --    0.08154   0.09074   0.09511   0.10533   0.11268
  Beta virt. eigenvalues --    0.12973   0.13523   0.14005   0.14771   0.15676

 Mulliken charges and spin densities:
               1          2
     1  O   -0.161266   0.978066
     2  H    0.238207  -0.036689
     3  C   -1.808733   0.560923
     4  H    0.197197  -0.046140
     5  C    1.892545  -0.584706
     6  C   -0.340401   0.190780
     7  O   -0.271619  -0.063433
     8  O   -0.023643   0.001272
     9  C   -0.152871   0.001240
    10  C   -0.378764  -0.001545
    11  H    0.171637   0.000060
    12  H    0.182091   0.000130
    13  H    0.130761  -0.000039
    14  H    0.145562   0.000127
    15  H    0.179297  -0.000047
 Sum of Mulliken charges =  -0.00000   1.00000

 Dipole moment (field-independent basis, Debye):
    X=              0.6052    Y=             -0.2106    Z=             -0.7496  Tot=              0.9861
 Quadrupole moment (field-independent basis, Debye-Ang):
   XX=            -31.0536   YY=            -46.2682   ZZ=            -52.6290
   XY=             -4.4074   XZ=              2.7485   YZ=              4.0820

 Normal termination of Gaussian 16 at Wed Aug  6 13:29:47 2025.
