 Gaussian 16, Revision A.03,
 Gaussian 16:  ES64L-G16RevA.03 25-Dec-2016

 --------------------------
 # freq 6-311++g(d,p) m062x
 --------------------------

 -------------------
 Title Card Required
 -------------------
 Symbolic Z-matrix:
 Charge =  0 Multiplicity = 2

                         Standard orientation:
 ---------------------------------------------------------------------
 Center     Atomic      Atomic             Coordinates (Angstroms)
 Number     Number       Type             X           Y           Z
 ---------------------------------------------------------------------
      1          8           0        2.151129    1.325388    0.001102
      2          1           0        2.804836    1.198464    0.704298
      3          6           0        2.450868   -1.171372   -0.567094
      4          1           0        3.322997   -1.665275   -0.929511
      5          6           0        1.535182   -0.453825   -0.166453
      6          6           0        0.163312   -0.190921    0.324859
      7          8           0       -0.171023   -0.366590    1.461246
      8          8           0       -0.594052    0.290239   -0.650003
      9          6           0       -1.928444    0.692583   -0.275821
     10          6           0       -2.858715   -0.501773   -0.204412
     11          1           0       -2.222696    1.388182   -1.059422
     12          1           0       -1.876013    1.219055    0.677767
     13          1           0       -3.873930   -0.161687    0.009066
     14          1           0       -2.866705   -1.035796   -1.155824
     15          1           0       -2.550144   -1.183379    0.588390
 ---------------------------------------------------------------------

 SCF Done:  E(UM062X) =  -420.203790426     A.U. after   22 cycles

 The electronic state is 2-A.
 Alpha  occ. eigenvalues --  -19.68339 -19.64546 -19.63247 -10.70737 -10.61322
 Alpha  occ. eigenvalues --  -10.60553 -10.59372 -10.53812  -1.25881  -1.16565
 Alpha  occ. eigenvalues --   -1.10815  -0.91507  -0.87898  -0.78332  -0.71165
 Alpha  occ. eigenvalues --   -0.64843  -0.62426  -0.58699  -0.56992  -0.54217
 Alpha  occ. eigenvalues --   -0.53161  -0.49991  -0.48167  -0.46176  -0.45327
 Alpha  occ. eigenvalues --   -0.42110  -0.40239  -0.39849  -0.38478  -0.36767
 Alpha  occ. eigenvalues --   -0.32595
 Alpha virt. eigenvalues --   -0.00501  -0.00112   0.00545   0.01544   0.02250
 Alpha virt. eigenvalues --    0.02671   0.02998   0.03977   0.05429   0.06473
 Alpha virt. eigenvalues --    0.07175   0.07790   0.08191   0.08995   0.10467

  Beta  occ. eigenvalues --  -19.68341 -19.63449 -19.63266 -10.70696 -10.61448
  Beta  occ. eigenvalues --  -10.60552 -10.58971 -10.53812  -1.25875  -1.16599
  Beta  occ. eigenvalues --   -1.06777  -0.90557  -0.87162  -0.77908  -0.70681
  Beta  occ. eigenvalues --   -0.64632  -0.61765  -0.58603  -0.56683  -0.53786
  Beta  occ. eigenvalues --   -0.51703  -0.49236  -0.46688  -0.45309  -0.42279
  Beta  occ. eigenvalues --   -0.40522  -0.39577  -0.38606  -0.37817  -0.35445
  Beta virt. eigenvalues --   -0.09902  -0.00259   0.00303   0.01386   0.01891
  Beta virt. eigenvalues --    0.02255   0.02734   0.03108   0.04058   0.05468
  Beta virt. eigenvalues --    0.06205   0.07315   0.07820   0.08091   0.09048

 Mulliken charges and spin densities:
               1          2
     1  O   -0.264452   0.578327
     2  H    0.239679  -0.009936
     3  C   -0.073237   0.669826
     4  H    0.216957  -0.024523
     5  C    0.174487  -0.279468
     6  C   -0.364628   0.071656
     7  O   -0.208970  -0.009219
     8  O    0.049053   0.000520
     9  C   -0.267913   0.003207
    10  C   -0.422341  -0.000408
    11  H    0.201488   0.000335
    12  H    0.199903  -0.000811
    13  H    0.161630   0.000493
    14  H    0.165318  -0.000116
    15  H    0.193023   0.000117
 Sum of Mulliken charges =  -0.00000   1.00000

 Dipole moment (field-independent basis, Debye):
    X=              0.0078    Y=             -1.3775    Z=             -0.9005  Tot=              1.6457
 Quadrupole moment (field-independent basis, Debye-Ang):
   XX=            -32.5237   YY=            -47.1518   ZZ=            -51.6712
   XY=             -7.0629   XZ=              1.8729   YZ=              4.1593

  Exact polarizability:  85.257  -4.959  77.799  -3.150   5.094  60.386
 Approx polarizability:  84.788  -9.973  91.331  -6.160   5.006  78.555

 ******    1 imaginary frequencies (negative Signs) ******

                      1                      2                      3
                      A                      A                      A
 Frequencies --   -700.3035                72.9710                82.6496
 Red. masses --     12.4351                 3.6452                 3.9607
 Frc consts  --      3.5931                 0.0114                 0.0159
 IR Inten    --     19.8351                 3.8531                 5.2266

                      4                      5                      6
                      A                      A                      A
 Frequencies --    114.5303               164.3468               197.1768
 Red. masses --      3.6022                 2.4148                 3.7320
 Frc consts  --      0.0278                 0.0384                 0.0855
 IR Inten    --      0.9976                40.0813                 4.4729

                      7                      8                      9
                      A                      A                      A
 Frequencies --    201.0021               238.1974               282.5875
 Red. masses --      1.3542                 1.5433                 3.0292
 Frc consts  --      0.0322                 0.0516                 0.1425
 IR Inten    --     41.9426                 0.6717                 6.5290

                     10                     11                     12
                      A                      A                      A
 Frequencies --    340.4494               422.8675               546.4527
 Red. masses --      2.9295                 3.6571                 1.3654
 Frc consts  --      0.2001                 0.3853                 0.2402
 IR Inten    --     12.4804                 1.9146                30.3953

                     13                     14                     15
                      A                      A                      A
 Frequencies --    572.9185               612.2351               709.5181
 Red. masses --      3.6359                 6.6169                 1.3320
 Frc consts  --      0.7031                 1.4613                 0.3951
 IR Inten    --      9.6153                10.0893                39.5521

                     16                     17                     18
                      A                      A                      A
 Frequencies --    768.1207               800.0868               889.9881
 Red. masses --     10.4694                 1.1925                 1.7328
 Frc consts  --      3.6394                 0.4498                 0.8086
 IR Inten    --     32.5366                 4.9286                44.2249

                     19                     20                     21
                      A                      A                      A
 Frequencies --    901.1990               924.8327              1075.4912
 Red. masses --      1.8185                 2.4119                 4.0167
 Frc consts  --      0.8702                 1.2154                 2.7374
 IR Inten    --     34.2101                16.7299                21.4798

                     22                     23                     24
                      A                      A                      A
 Frequencies --   1127.7557              1202.6171              1285.9757
 Red. masses --      2.0800                 1.7698                 3.7657
 Frc consts  --      1.5587                 1.5081                 3.6691
 IR Inten    --     18.9405                 8.1558               566.6736

                     25                     26                     27
                      A                      A                      A
 Frequencies --   1348.3865              1400.7119              1431.1295
 Red. masses --      1.2413                 1.2796                 1.3868
 Frc consts  --      1.3298                 1.4791                 1.6734
 IR Inten    --     97.9148                30.9426                 6.0038

                     28                     29                     30
                      A                      A                      A
 Frequencies --   1492.3768              1503.0487              1515.5341
 Red. masses --      1.0408                 1.0594                 1.0862
 Frc consts  --      1.3658                 1.4101                 1.4699
 IR Inten    --     10.4698                 1.1731                15.0415

                     31                     32                     33
                      A                      A                      A
 Frequencies --   1846.7449              2011.4138              3075.4082
 Red. masses --     11.7140                 6.8436                 1.0354
 Frc consts  --     23.5381                16.3130                 5.7698
 IR Inten    --    331.1221                60.9662                10.4827

                     34                     35                     36
                      A                      A                      A
 Frequencies --   3108.9116              3150.3087              3155.5564
 Red. masses --      1.0609                 1.1013                 1.1047
 Frc consts  --      6.0413                 6.4399                 6.4813
 IR Inten    --     14.6041                14.5692                 2.0283

                     37                     38                     39
                      A                      A                      A
 Frequencies --   3176.5479              3463.3693              3830.9114
 Red. masses --      1.1075                 1.1368                 1.0677
 Frc consts  --      6.5842                 8.0341                 9.2321
 IR Inten    --     14.5158                75.7253                61.7285

 - Thermochemistry -
 -------------------
 Temperature   298.150 Kelvin.  Pressure   1.00000 Atm.
 Atom     1 has atomic number  8 and mass  15.99491

 Molecular mass:   115.03952 amu.
 Principal axes and moments of inertia in atomic units:
                           1         2         3
     Eigenvalues --   436.977271545.392521609.94834
           X            0.99998  -0.00358   0.00512
           Y            0.00292   0.99229   0.12393
           Z           -0.00553  -0.12391   0.99228
 This molecule is an asymmetric top.
 Rotational symmetry number  1.
 Warning -- assumption of classical behavior for rotation
           may cause significant error
 Rotational temperatures (Kelvin)      0.19821     0.05605     0.05380
 Rotational constants (GHZ):           4.13006     1.16782     1.12099
    1 imaginary frequencies ignored.
 Zero-point vibrational energy     293350.2 (Joules/Mol)
                                   70.11239 (Kcal/Mol)
 Warning -- explicit consideration of  13 degrees of freedom as
           vibrations may cause significant error
 Vibrational temperatures:    104.99   118.91   164.78   236.46   283.69
          (Kelvin)            289.20   342.71   406.58   489.83   608.41
                              786.22   824.30   880.87  1020.84  1105.15
                             1151.15  1280.49  1296.62  1330.63  1547.39
                             1622.59  1730.30  1850.23  1940.03  2015.31
                             2059.08  2147.20  2162.55  2180.52  2657.05
                             2893.98  4424.83  4473.03  4532.59  4540.14
                             4570.34  4983.02  5511.83

 Zero-point correction=                           0.111731 (Hartree/Particle)
 Thermal correction to Energy=                    0.121248
 Thermal correction to Enthalpy=                  0.122192
 Thermal correction to Gibbs Free Energy=         0.076483
 Sum of electronic and zero-point Energies=           -420.092059
 Sum of electronic and thermal Energies=              -420.082542
 Sum of electronic and thermal Enthalpies=            -420.081598
 Sum of electronic and thermal Free Energies=         -420.127308

                     E (Thermal)             CV                S
                      KCal/Mol        Cal/Mol-Kelvin    Cal/Mol-Kelvin
 Total                   76.084             32.286             96.204
 Electronic               0.000              0.000              1.377
 Translational            0.889              2.981             40.136
 Rotational               0.889              2.981             28.477
 Vibrational             74.307             26.325             26.214
 Vibration     1          0.599              1.967              4.072
 Vibration     2          0.600              1.961              3.827
 Vibration     3          0.607              1.937              3.191
 Vibration     4          0.623              1.886              2.499
 Vibration     5          0.637              1.844              2.159
 Vibration     6          0.638              1.838              2.124
 Vibration     7          0.656              1.782              1.816
 Vibration     8          0.682              1.706              1.518
 Vibration     9          0.720              1.595              1.210
 Vibration    10          0.785              1.421              0.882
 Vibration    11          0.902              1.147              0.552
 Vibration    12          0.929              1.090              0.499
 Vibration    13          0.971              1.006              0.429

 1\1\GINC-AJ\Freq\UM062X\6-311++G(d,p)\C5H7O3(2)\AAYUSH\23-Jun-2025\0\\
 # freq 6-311++g(d,p) m062x\\Title Card Required\\0,2\O,2.151129,1.3253
 88,0.001102\H,2.804836,1.198464,0.704298\C,2.450868,-1.171372,-0.56709
 4\H,3.322997,-1.665275,-0.929511\C,1.535182,-0.453825,-0.166453\C,0.16
 3312,-0.190921,0.324859\O,-0.171023,-0.36659,1.461246\O,-0.594052,0.29
 0239,-0.650003\C,-1.928444,0.692583,-0.275821\C,-2.858715,-0.501773,-0
 .204412\H,-2.222696,1.388182,-1.059422\H,-1.876013,1.219055,0.677767\H
 ,-3.87393,-0.161687,0.009066\H,-2.866705,-1.035796,-1.155824\H,-2.5501

 Normal termination of Gaussian 16 at Mon Jun 23 07:46:08 2025.
