 Gaussian 16, Revision A.03,
 Gaussian 16:  ES64L-G16RevA.03 25-Dec-2016

 -------------------
 # freq 6-31+g m062x
 -------------------

 -------------------
 Title Card Required
 -------------------
 Symbolic Z-matrix:
 Charge =  0 Multiplicity = 2

                         Standard orientation:
 ---------------------------------------------------------------------
 Center     Atomic      Atomic             Coordinates (Angstroms)
 Number     Number       Type             X           Y           Z
 ---------------------------------------------------------------------
      1          8           0        2.156708    1.335998   -0.002536
      2          1           0        2.808946    1.203861    0.701779
      3          6           0        2.451768   -1.173468   -0.563110
      4          1           0        3.323782   -1.668966   -0.923377
      5          6           0        1.526663   -0.475369   -0.166929
      6          6           0        0.162910   -0.190564    0.325475
      7          8           0       -0.171465   -0.360529    1.462859
      8          8           0       -0.593894    0.288652   -0.651002
      9          6           0       -1.927932    0.693069   -0.278229
     10          6           0       -2.859061   -0.500442   -0.202597
     11          1           0       -2.221830    1.386034   -1.064307
     12          1           0       -1.875388    1.222902    0.673490
     13          1           0       -3.874037   -0.158872    0.009662
     14          1           0       -2.867389   -1.037845   -1.152098
     15          1           0       -2.550976   -1.179444    0.592625
 ---------------------------------------------------------------------

 SCF Done:  E(UM062X) =  -419.952867703     A.U. after   22 cycles

 The electronic state is 2-A.
 Alpha  occ. eigenvalues --  -19.70656 -19.67558 -19.66411 -10.73150 -10.62358
 Alpha  occ. eigenvalues --  -10.61523 -10.60741 -10.54619  -1.28234  -1.18861
 Alpha  occ. eigenvalues --   -1.12402  -0.92187  -0.88513  -0.78787  -0.71687
 Alpha  occ. eigenvalues --   -0.64935  -0.62800  -0.58764  -0.57262  -0.54402
 Alpha  occ. eigenvalues --   -0.53400  -0.50107  -0.48218  -0.46559  -0.45317
 Alpha  occ. eigenvalues --   -0.42142  -0.40420  -0.39856  -0.38216  -0.37018
 Alpha  occ. eigenvalues --   -0.33052
 Alpha virt. eigenvalues --   -0.00691   0.01815   0.02551   0.03108   0.03825
 Alpha virt. eigenvalues --    0.04312   0.05277   0.05882   0.07726   0.07997
 Alpha virt. eigenvalues --    0.08405   0.08973   0.09517   0.11381   0.12077

  Beta  occ. eigenvalues --  -19.70659 -19.66434 -19.66291 -10.73105 -10.62478
  Beta  occ. eigenvalues --  -10.61522 -10.60371 -10.54619  -1.28233  -1.18892
  Beta  occ. eigenvalues --   -1.07873  -0.91415  -0.87988  -0.78497  -0.71335
  Beta  occ. eigenvalues --   -0.64761  -0.62117  -0.58579  -0.57076  -0.54149
  Beta  occ. eigenvalues --   -0.51567  -0.49230  -0.46937  -0.45299  -0.42235
  Beta  occ. eigenvalues --   -0.40366  -0.39551  -0.38357  -0.37832  -0.35699
  Beta virt. eigenvalues --   -0.10048   0.00588   0.01830   0.02654   0.03050
  Beta virt. eigenvalues --    0.03877   0.04331   0.05295   0.05860   0.07734
  Beta virt. eigenvalues --    0.08123   0.08325   0.08980   0.09593   0.11328

 Mulliken charges and spin densities:
               1          2
     1  O   -0.462509   0.658347
     2  H    0.405053  -0.022203
     3  C    0.277745   0.598677
     4  H    0.308876  -0.021991
     5  C   -0.579662  -0.263568
     6  C    0.255666   0.060771
     7  O   -0.349312  -0.010227
     8  O   -0.190596  -0.000629
     9  C   -0.205505   0.000876
    10  C   -0.580458   0.000100
    11  H    0.224071  -0.000128
    12  H    0.235591  -0.000114
    13  H    0.207585   0.000143
    14  H    0.219230  -0.000035
    15  H    0.234225  -0.000019
 Sum of Mulliken charges =  -0.00000   1.00000

 Dipole moment (field-independent basis, Debye):
    X=              0.1575    Y=             -1.3578    Z=             -0.6304  Tot=              1.5053
 Quadrupole moment (field-independent basis, Debye-Ang):
   XX=            -31.6852   YY=            -47.5214   ZZ=            -52.9323
   XY=             -6.9362   XZ=              2.4195   YZ=              4.6194

  Exact polarizability:  80.815  -5.707  75.693  -2.940   5.055  58.263
 Approx polarizability:  78.224 -12.534  82.866  -6.931   4.521  73.612

 ******    4 imaginary frequencies (negative Signs) ******

                      1                      2                      3
                      A                      A                      A
 Frequencies --   -671.8677              -468.8388               -96.1604
 Red. masses --     12.7040                 1.0754                 7.3222
 Frc consts  --      3.3788                 0.1393                 0.0399
 IR Inten    --     38.7455               113.2584                 7.2547

                      4                      5                      6
                      A                      A                      A
 Frequencies --    -10.3054                40.7987               114.8394
 Red. masses --      3.8998                 2.6048                 3.3236
 Frc consts  --      0.0002                 0.0026                 0.0258
 IR Inten    --      7.0760                 0.7323                 5.5470

                      7                      8                      9
                      A                      A                      A
 Frequencies --    164.5620               191.0915               249.3989
 Red. masses --      4.7930                 1.3869                 4.2759
 Frc consts  --      0.0765                 0.0298                 0.1567
 IR Inten    --      1.9890                 1.5597                 0.9321

                     10                     11                     12
                      A                      A                      A
 Frequencies --    312.6960               407.5369               558.8945
 Red. masses --      2.9250                 3.6035                 2.8753
 Frc consts  --      0.1685                 0.3526                 0.5292
 IR Inten    --     17.5821                 0.6545                17.7826

                     13                     14                     15
                      A                      A                      A
 Frequencies --    588.7663               613.6465               706.4902
 Red. masses --      1.3978                 4.5943                 1.2135
 Frc consts  --      0.2855                 1.0193                 0.3569
 IR Inten    --     49.6386                 7.8676                59.3846

                     16                     17                     18
                      A                      A                      A
 Frequencies --    715.3314               750.8146               814.7128
 Red. masses --      7.3737                 1.4869                 1.2718
 Frc consts  --      2.2231                 0.4939                 0.4974
 IR Inten    --     69.1326                52.6611                 7.3883

                     19                     20                     21
                      A                      A                      A
 Frequencies --    895.3843               939.9510              1111.4232
 Red. masses --      3.4019                 2.5516                 4.1375
 Frc consts  --      1.6069                 1.3282                 3.0112
 IR Inten    --     24.0135                 6.2307                 5.8107

                     22                     23                     24
                      A                      A                      A
 Frequencies --   1157.2405              1227.1740              1325.0061
 Red. masses --      2.0712                 1.7459                 2.0236
 Frc consts  --      1.6342                 1.5491                 2.0932
 IR Inten    --     17.9986                 5.8911               340.1200

                     25                     26                     27
                      A                      A                      A
 Frequencies --   1372.3360              1443.3931              1455.8332
 Red. masses --      1.7194                 1.3609                 1.2744
 Frc consts  --      1.9079                 1.6705                 1.5914
 IR Inten    --    275.4411                37.0153                13.7209

                     28                     29                     30
                      A                      A                      A
 Frequencies --   1527.9747              1537.7798              1545.8424
 Red. masses --      1.0419                 1.0663                 1.0763
 Frc consts  --      1.4332                 1.4857                 1.5153
 IR Inten    --     14.3943                 2.2389                20.1240

                     31                     32                     33
                      A                      A                      A
 Frequencies --   1912.5355              2111.5871              3107.4401
 Red. masses --     12.0562                 6.4653                 1.0351
 Frc consts  --     25.9823                16.9846                 5.8892
 IR Inten    --    311.1438                78.9927                13.5949

                     34                     35                     36
                      A                      A                      A
 Frequencies --   3139.4205              3186.8956              3191.7465
 Red. masses --      1.0603                 1.0999                 1.1027
 Frc consts  --      6.1570                 6.5816                 6.6187
 IR Inten    --     15.7446                15.4249                 4.1886

                     37                     38                     39
                      A                      A                      A
 Frequencies --   3212.9221              3511.2961              3839.3978
 Red. masses --      1.1054                 1.1466                 1.0673
 Frc consts  --      6.7231                 8.3292                 9.2699
 IR Inten    --     17.2136                65.0232                24.5548

 - Thermochemistry -
 -------------------
 Temperature   298.150 Kelvin.  Pressure   1.00000 Atm.
 Atom     1 has atomic number  8 and mass  15.99491

 Molecular mass:   115.03952 amu.
 Principal axes and moments of inertia in atomic units:
                           1         2         3
     Eigenvalues --   439.552271546.142441612.87574
           X            0.99998  -0.00359   0.00516
           Y            0.00295   0.99291   0.11887
           Z           -0.00555  -0.11886   0.99290
 This molecule is an asymmetric top.
 Rotational symmetry number  1.
 Warning -- assumption of classical behavior for rotation
           may cause significant error
 Rotational temperatures (Kelvin)      0.19705     0.05602     0.05370
 Rotational constants (GHZ):           4.10586     1.16725     1.11896
    4 imaginary frequencies ignored.
 Zero-point vibrational energy     292978.4 (Joules/Mol)
                                   70.02351 (Kcal/Mol)
 Warning -- explicit consideration of  10 degrees of freedom as
           vibrations may cause significant error
 Vibrational temperatures:     58.70   165.23   236.77   274.94   358.83
          (Kelvin)            449.90   586.35   804.12   847.10   882.90
                             1016.48  1029.20  1080.25  1172.19  1288.26
                             1352.38  1599.09  1665.01  1765.63  1906.39
                             1974.49  2076.72  2094.62  2198.41  2212.52
                             2224.12  2751.71  3038.10  4470.91  4516.93
                             4585.23  4592.21  4622.68  5051.97  5524.04

 Zero-point correction=                           0.111590 (Hartree/Particle)
 Thermal correction to Energy=                    0.119462
 Thermal correction to Enthalpy=                  0.120407
 Thermal correction to Gibbs Free Energy=         0.077595
 Sum of electronic and zero-point Energies=           -419.841278
 Sum of electronic and thermal Energies=              -419.833405
 Sum of electronic and thermal Enthalpies=            -419.832461
 Sum of electronic and thermal Free Energies=         -419.875273

                     E (Thermal)             CV                S
                      KCal/Mol        Cal/Mol-Kelvin    Cal/Mol-Kelvin
 Total                   74.964             26.943             90.105
 Electronic               0.000              0.000              1.377
 Translational            0.889              2.981             40.136
 Rotational               0.889              2.981             28.485
 Vibrational             73.186             20.981             20.108
 Vibration     1          0.594              1.981              5.220
 Vibration     2          0.608              1.937              3.185
 Vibration     3          0.623              1.886              2.497
 Vibration     4          0.634              1.852              2.217
 Vibration     5          0.662              1.764              1.735
 Vibration     6          0.701              1.649              1.348
 Vibration     7          0.772              1.454              0.935
 Vibration     8          0.914              1.120              0.526
 Vibration     9          0.946              1.056              0.469
 Vibration    10          0.973              1.003              0.427

 Normal termination of Gaussian 16 at Fri Jun 20 14:28:50 2025.
