 Gaussian 16, Revision A.03,
 Gaussian 16:  ES64L-G16RevA.03 25-Dec-2016

 -------------------
 # freq 6-31+g m062x
 -------------------

 -------------------
 Title Card Required
 -------------------
 Symbolic Z-matrix:
 Charge =  0 Multiplicity = 2

                         Standard orientation:
 ---------------------------------------------------------------------
 Center     Atomic      Atomic             Coordinates (Angstroms)
 Number     Number       Type             X           Y           Z
 ---------------------------------------------------------------------
      1          8           0        2.145651    1.314715    0.004903
      2          1           0        2.800834    1.193096    0.706926
      3          6           0        2.449771   -1.169436   -0.571287
      4          1           0        3.322834   -1.660330   -0.935844
      5          6           0        1.543637   -0.432271   -0.165897
      6          6           0        0.163790   -0.191508    0.324158
      7          8           0       -0.170614   -0.372863    1.459556
      8          8           0       -0.594225    0.291960   -0.648944
      9          6           0       -1.928929    0.692199   -0.273296
     10          6           0       -2.858394   -0.502962   -0.206315
     11          1           0       -2.223541    1.390577   -1.054276
     12          1           0       -1.876615    1.215124    0.682256
     13          1           0       -3.873837   -0.164367    0.008430
     14          1           0       -2.866053   -1.033427   -1.159720
     15          1           0       -2.549347   -1.187310    0.583931
 ---------------------------------------------------------------------

 SCF Done:  E(UM062X) =  -419.954947992     A.U. after   21 cycles

 The electronic state is 2-A.
 Alpha  occ. eigenvalues --  -19.70724 -19.67121 -19.66508 -10.73141 -10.63380
 Alpha  occ. eigenvalues --  -10.61559 -10.61092 -10.54650  -1.28311  -1.18936
 Alpha  occ. eigenvalues --   -1.12120  -0.92338  -0.88608  -0.78829  -0.71835
 Alpha  occ. eigenvalues --   -0.65038  -0.62890  -0.58868  -0.57378  -0.54507
 Alpha  occ. eigenvalues --   -0.53472  -0.49883  -0.48189  -0.46523  -0.45342
 Alpha  occ. eigenvalues --   -0.42203  -0.40308  -0.39798  -0.38259  -0.36922
 Alpha  occ. eigenvalues --   -0.32210
 Alpha virt. eigenvalues --   -0.00443   0.01775   0.02517   0.02840   0.03840
 Alpha virt. eigenvalues --    0.04224   0.05268   0.05961   0.07713   0.07998
 Alpha virt. eigenvalues --    0.08446   0.08978   0.09476   0.11305   0.12000

  Beta  occ. eigenvalues --  -19.70725 -19.66528 -19.66062 -10.73087 -10.63536
  Beta  occ. eigenvalues --  -10.61558 -10.60623 -10.54650  -1.28302  -1.18959
  Beta  occ. eigenvalues --   -1.08492  -0.91395  -0.87953  -0.78443  -0.71354
  Beta  occ. eigenvalues --   -0.64805  -0.62105  -0.58647  -0.57172  -0.54215
  Beta  occ. eigenvalues --   -0.51953  -0.49280  -0.46954  -0.45315  -0.42401
  Beta  occ. eigenvalues --   -0.41047  -0.39516  -0.38464  -0.37975  -0.35489
  Beta virt. eigenvalues --   -0.09941   0.00816   0.01726   0.02636   0.02832
  Beta virt. eigenvalues --    0.03865   0.04212   0.05278   0.05847   0.07681
  Beta virt. eigenvalues --    0.08105   0.08305   0.08928   0.09565   0.11205

 Mulliken charges and spin densities:
               1          2
     1  O   -0.480972   0.539799
     2  H    0.408190  -0.016529
     3  C    0.335776   0.762924
     4  H    0.302947  -0.027987
     5  C   -0.582976  -0.318373
     6  C    0.224760   0.067632
     7  O   -0.351631  -0.008774
     8  O   -0.193301  -0.000241
     9  C   -0.200142   0.001427
    10  C   -0.584174   0.000277
    11  H    0.224598  -0.000147
    12  H    0.235888  -0.000118
    13  H    0.207726   0.000182
    14  H    0.219193  -0.000044
    15  H    0.234117  -0.000028
 Sum of Mulliken charges =  -0.00000   1.00000

 Dipole moment (field-independent basis, Debye):
    X=              0.1062    Y=             -1.4861    Z=             -0.6604  Tot=              1.6297
 Quadrupole moment (field-independent basis, Debye-Ang):
   XX=            -31.8419   YY=            -47.8465   ZZ=            -52.8682
   XY=             -7.2042   XZ=              2.3119   YZ=              4.6379

  Exact polarizability:  80.242  -5.769  73.846  -2.793   4.700  58.165
 Approx polarizability:  76.935 -11.306  83.991  -6.300   4.416  73.516

 ******    3 imaginary frequencies (negative Signs) ******

                      1                      2                      3
                      A                      A                      A
 Frequencies --   -710.5728              -471.1211               -89.5909
 Red. masses --     12.5826                 1.0724                 7.1281
 Frc consts  --      3.7432                 0.1402                 0.0337
 IR Inten    --      3.3539               113.0734                 6.2667

                      4                      5                      6
                      A                      A                      A
 Frequencies --     35.5996                52.8002               133.7561
 Red. masses --      2.8796                 3.2125                 3.0492
 Frc consts  --      0.0022                 0.0053                 0.0321
 IR Inten    --      3.9649                 4.1297                 5.1706

                      7                      8                      9
                      A                      A                      A
 Frequencies --    181.6272               200.7205               273.2160
 Red. masses --      2.4497                 2.1204                 3.4795
 Frc consts  --      0.0476                 0.0503                 0.1530
 IR Inten    --      4.0071                 0.5639                 3.8320

                     10                     11                     12
                      A                      A                      A
 Frequencies --    314.6099               410.5989               484.0605
 Red. masses --      2.9247                 3.5182                 1.3922
 Frc consts  --      0.1706                 0.3495                 0.1922
 IR Inten    --     17.4504                 2.4248                39.3764

                     13                     14                     15
                      A                      A                      A
 Frequencies --    568.0513               614.8402               715.4736
 Red. masses --      3.3133                 6.2550                 7.7765
 Frc consts  --      0.6299                 1.3932                 2.3454
 IR Inten    --     16.5279                14.1729                48.3806

                     16                     17                     18
                      A                      A                      A
 Frequencies --    724.0708               814.6469               821.1622
 Red. masses --      1.3215                 1.2804                 1.2837
 Frc consts  --      0.4082                 0.5006                 0.5100
 IR Inten    --     50.0336                 8.8445                62.9471

                     19                     20                     21
                      A                      A                      A
 Frequencies --    894.4211               939.1289              1110.7281
 Red. masses --      3.3848                 2.5242                 4.1343
 Frc consts  --      1.5954                 1.3117                 3.0052
 IR Inten    --     23.6010                 6.0029                 6.4933

                     22                     23                     24
                      A                      A                      A
 Frequencies --   1156.9286              1227.1032              1324.0318
 Red. masses --      2.0620                 1.7424                 2.0638
 Frc consts  --      1.6261                 1.5458                 2.1316
 IR Inten    --     18.0381                 6.0459               339.6891

                     25                     26                     27
                      A                      A                      A
 Frequencies --   1371.8559              1443.2872              1456.0056
 Red. masses --      1.6983                 1.3577                 1.2730
 Frc consts  --      1.8832                 1.6663                 1.5901
 IR Inten    --    263.5614                33.7575                14.2146

                     28                     29                     30
                      A                      A                      A
 Frequencies --   1528.0596              1537.9747              1546.0765
 Red. masses --      1.0419                 1.0650                 1.0774
 Frc consts  --      1.4334                 1.4843                 1.5173
 IR Inten    --     14.3702                 2.0591                20.1986

                     31                     32                     33
                      A                      A                      A
 Frequencies --   1911.0976              2034.8607              3107.5092
 Red. masses --     11.7220                 6.8560                 1.0351
 Frc consts  --     25.2242                16.7258                 5.8895
 IR Inten    --    301.3735                56.0021                13.5096

                     34                     35                     36
                      A                      A                      A
 Frequencies --   3139.6630              3186.9765              3191.9298
 Red. masses --      1.0603                 1.0998                 1.1027
 Frc consts  --      6.1581                 6.5816                 6.6196
 IR Inten    --     15.7285                15.5467                 4.0102

                     37                     38                     39
                      A                      A                      A
 Frequencies --   3213.1447              3504.7615              3851.0619
 Red. masses --      1.1054                 1.1381                 1.0673
 Frc consts  --      6.7243                 8.2367                 9.3264
 IR Inten    --     17.0929                67.1617                30.3336

 - Thermochemistry -
 -------------------
 Temperature   298.150 Kelvin.  Pressure   1.00000 Atm.
 Atom     1 has atomic number  8 and mass  15.99491

 Molecular mass:   115.03952 amu.
 Principal axes and moments of inertia in atomic units:
                           1         2         3
     Eigenvalues --   434.463131544.643021607.09678
           X            0.99998  -0.00357   0.00508
           Y            0.00289   0.99162   0.12917
           Z           -0.00549  -0.12915   0.99161
 This molecule is an asymmetric top.
 Rotational symmetry number  1.
 Warning -- assumption of classical behavior for rotation
           may cause significant error
 Rotational temperatures (Kelvin)      0.19936     0.05607     0.05389
 Rotational constants (GHZ):           4.15396     1.16839     1.12298
    3 imaginary frequencies ignored.
 Zero-point vibrational energy     293215.7 (Joules/Mol)
                                   70.08024 (Kcal/Mol)
 Warning -- explicit consideration of  11 degrees of freedom as
           vibrations may cause significant error
 Vibrational temperatures:     51.22    75.97   192.45   261.32   288.79
          (Kelvin)            393.10   452.65   590.76   696.46   817.30
                              884.62  1029.41  1041.78  1172.10  1181.47
                             1286.87  1351.20  1598.09  1664.56  1765.53
                             1904.99  1973.79  2076.57  2094.87  2198.54
                             2212.80  2224.46  2749.64  2927.71  4471.01
                             4517.27  4585.35  4592.48  4623.00  5042.57
                             5540.82

 Zero-point correction=                           0.111680 (Hartree/Particle)
 Thermal correction to Energy=                    0.120313
 Thermal correction to Enthalpy=                  0.121257
 Thermal correction to Gibbs Free Energy=         0.076381
 Sum of electronic and zero-point Energies=           -419.843268
 Sum of electronic and thermal Energies=              -419.834635
 Sum of electronic and thermal Enthalpies=            -419.833691
 Sum of electronic and thermal Free Energies=         -419.878567

                     E (Thermal)             CV                S
                      KCal/Mol        Cal/Mol-Kelvin    Cal/Mol-Kelvin
 Total                   75.498             28.879             94.450
 Electronic               0.000              0.000              1.377
 Translational            0.889              2.981             40.136
 Rotational               0.889              2.981             28.469
 Vibrational             73.720             22.918             24.469
 Vibration     1          0.594              1.982              5.490
 Vibration     2          0.596              1.976              4.710
 Vibration     3          0.613              1.920              2.891
 Vibration     4          0.630              1.865              2.312
 Vibration     5          0.638              1.839              2.126
 Vibration     6          0.676              1.723              1.576
 Vibration     7          0.702              1.646              1.338
 Vibration     8          0.775              1.447              0.925
 Vibration     9          0.840              1.285              0.699
 Vibration    10          0.924              1.100              0.508
 Vibration    11          0.974              1.000              0.425

 Normal termination of Gaussian 16 at Fri Jun 20 14:44:10 2025.
