 Gaussian 16, Revision A.03,
 Gaussian 16:  ES64L-G16RevA.03 25-Dec-2016

 -------------------
 # freq 6-31+g m062x
 -------------------

 -------------------
 Title Card Required
 -------------------
 Symbolic Z-matrix:
 Charge =  0 Multiplicity = 2

                         Standard orientation:
 ---------------------------------------------------------------------
 Center     Atomic      Atomic             Coordinates (Angstroms)
 Number     Number       Type             X           Y           Z
 ---------------------------------------------------------------------
      1          8           0        2.162400    1.346721   -0.006119
      2          1           0        2.812908    1.209050    0.699284
      3          6           0        2.452579   -1.175989   -0.559261
      4          1           0        3.325363   -1.671511   -0.917294
      5          6           0        1.518086   -0.496751   -0.167230
      6          6           0        0.162476   -0.190588    0.326009
      7          8           0       -0.171959   -0.354466    1.464462
      8          8           0       -0.593750    0.287146   -0.651974
      9          6           0       -1.927396    0.693631   -0.280608
     10          6           0       -2.859413   -0.499019   -0.200847
     11          1           0       -2.220964    1.384000   -1.069107
     12          1           0       -1.874781    1.226744    0.669273
     13          1           0       -3.874148   -0.155978    0.010204
     14          1           0       -2.868072   -1.039749   -1.148451
     15          1           0       -2.551832   -1.175467    0.596748
 ---------------------------------------------------------------------

 SCF Done:  E(UM062X) =  -419.952628517     A.U. after   22 cycles

 The electronic state is 2-A.
 Alpha  occ. eigenvalues --  -19.70611 -19.67861 -19.66350 -10.73123 -10.61843
 Alpha  occ. eigenvalues --  -10.61496 -10.60509 -10.54597  -1.28178  -1.18806
 Alpha  occ. eigenvalues --   -1.12653  -0.92069  -0.88441  -0.78750  -0.71601
 Alpha  occ. eigenvalues --   -0.64867  -0.62704  -0.58714  -0.57199  -0.54366
 Alpha  occ. eigenvalues --   -0.53438  -0.50235  -0.48243  -0.46574  -0.45295
 Alpha  occ. eigenvalues --   -0.42114  -0.40565  -0.39852  -0.38186  -0.37013
 Alpha  occ. eigenvalues --   -0.33494
 Alpha virt. eigenvalues --   -0.00765   0.01849   0.02557   0.03248   0.03817
 Alpha virt. eigenvalues --    0.04359   0.05288   0.05853   0.07744   0.08002
 Alpha virt. eigenvalues --    0.08394   0.08975   0.09543   0.11429   0.12124

  Beta  occ. eigenvalues --  -19.70614 -19.66508 -19.66373 -10.73083 -10.61943
  Beta  occ. eigenvalues --  -10.61496 -10.60185 -10.54597  -1.28180  -1.18838
  Beta  occ. eigenvalues --   -1.07678  -0.91387  -0.87971  -0.78501  -0.71303
  Beta  occ. eigenvalues --   -0.64722  -0.62075  -0.58538  -0.57020  -0.54109
  Beta  occ. eigenvalues --   -0.51471  -0.49230  -0.46919  -0.45281  -0.42176
  Beta  occ. eigenvalues --   -0.40079  -0.39538  -0.38303  -0.37808  -0.35830
  Beta virt. eigenvalues --   -0.09976   0.00470   0.01881   0.02651   0.03189
  Beta virt. eigenvalues --    0.03883   0.04395   0.05307   0.05870   0.07765
  Beta virt. eigenvalues --    0.08130   0.08341   0.09006   0.09611   0.11387

 Mulliken charges and spin densities:
               1          2
     1  O   -0.452471   0.710566
     2  H    0.404412  -0.024695
     3  C    0.229158   0.514504
     4  H    0.311714  -0.019098
     5  C   -0.568316  -0.228925
     6  C    0.278837   0.058152
     7  O   -0.347999  -0.010306
     8  O   -0.189126  -0.000681
     9  C   -0.207641   0.000584
    10  C   -0.578701   0.000049
    11  H    0.223738  -0.000117
    12  H    0.235379  -0.000110
    13  H    0.207482   0.000121
    14  H    0.219249  -0.000030
    15  H    0.234286  -0.000015
 Sum of Mulliken charges =  -0.00000   1.00000

 Dipole moment (field-independent basis, Debye):
    X=              0.1948    Y=             -1.2601    Z=             -0.6083  Tot=              1.4127
 Quadrupole moment (field-independent basis, Debye-Ang):
   XX=            -31.5915   YY=            -47.3742   ZZ=            -52.9712
   XY=             -6.7115   XZ=              2.4949   YZ=              4.6013

  Exact polarizability:  81.059  -5.780  75.886  -3.013   5.102  58.287
 Approx polarizability:  78.839 -13.104  81.490  -7.212   4.419  73.624

 ******    4 imaginary frequencies (negative Signs) ******

                      1                      2                      3
                      A                      A                      A
 Frequencies --   -613.2790              -468.8317               -99.9559
 Red. masses --     12.3478                 1.0775                 7.3765
 Frc consts  --      2.7362                 0.1395                 0.0434
 IR Inten    --     51.1127               114.1194                 8.0675

                      4                      5                      6
                      A                      A                      A
 Frequencies --    -32.6512                36.1866               106.5935
 Red. masses --      4.1947                 2.5699                 3.3046
 Frc consts  --      0.0026                 0.0020                 0.0221
 IR Inten    --      7.3050                 0.3069                 5.6249

                      7                      8                      9
                      A                      A                      A
 Frequencies --    154.0003               188.8784               237.1544
 Red. masses --      5.5200                 1.3088                 4.5052
 Frc consts  --      0.0771                 0.0275                 0.1493
 IR Inten    --      1.2902                 1.8425                 0.4126

                     10                     11                     12
                      A                      A                      A
 Frequencies --    312.0427               406.2566               552.1491
 Red. masses --      2.9210                 3.5916                 2.4215
 Frc consts  --      0.1676                 0.3493                 0.4350
 IR Inten    --     17.5184                 0.3769                32.9257

                     13                     14                     15
                      A                      A                      A
 Frequencies --    605.5064               632.4976               667.4101
 Red. masses --      3.4450                 1.5222                 1.3827
 Frc consts  --      0.7442                 0.3588                 0.3629
 IR Inten    --     35.4511                15.8228                62.2404

                     16                     17                     18
                      A                      A                      A
 Frequencies --    717.5160               748.6063               814.7948
 Red. masses --      7.3712                 1.4232                 1.2677
 Frc consts  --      2.2359                 0.4699                 0.4959
 IR Inten    --     69.6055                49.1285                 7.2893

                     19                     20                     21
                      A                      A                      A
 Frequencies --    896.0133               940.9279              1111.8916
 Red. masses --      3.4070                 2.5585                 4.1366
 Frc consts  --      1.6116                 1.3346                 3.0131
 IR Inten    --     23.7262                 6.5729                 5.5818

                     22                     23                     24
                      A                      A                      A
 Frequencies --   1157.4290              1227.2414              1325.7104
 Red. masses --      2.0769                 1.7480                 1.9951
 Frc consts  --      1.6393                 1.5512                 2.0659
 IR Inten    --     18.0123                 5.6750               337.2475

                     25                     26                     27
                      A                      A                      A
 Frequencies --   1372.6584              1443.4713              1455.7377
 Red. masses --      1.7353                 1.3633                 1.2753
 Frc consts  --      1.9264                 1.6737                 1.5923
 IR Inten    --    282.4237                38.8150                13.5676

                     28                     29                     30
                      A                      A                      A
 Frequencies --   1527.9352              1537.6808              1545.7282
 Red. masses --      1.0419                 1.0671                 1.0757
 Frc consts  --      1.4332                 1.4865                 1.5143
 IR Inten    --     14.3877                 2.3953                20.1596

                     31                     32                     33
                      A                      A                      A
 Frequencies --   1912.4941              2150.0437              3107.4025
 Red. masses --     12.1271                 6.2947                 1.0351
 Frc consts  --     26.1340                17.1444                 5.8890
 IR Inten    --    312.5927                86.9637                13.6532

                     34                     35                     36
                      A                      A                      A
 Frequencies --   3139.2345              3186.8418              3191.6138
 Red. masses --      1.0603                 1.0999                 1.1027
 Frc consts  --      6.1562                 6.5816                 6.6181
 IR Inten    --     15.8730                15.3147                 4.3663

                     37                     38                     39
                      A                      A                      A
 Frequencies --   3212.7579              3514.9312              3834.8935
 Red. masses --      1.1054                 1.1514                 1.0673
 Frc consts  --      6.7223                 8.3816                 9.2480
 IR Inten    --     17.3036                63.9808                21.7951

 - Thermochemistry -
 -------------------
 Temperature   298.150 Kelvin.  Pressure   1.00000 Atm.
 Atom     1 has atomic number  8 and mass  15.99491

 Molecular mass:   115.03952 amu.
 Principal axes and moments of inertia in atomic units:
                           1         2         3
     Eigenvalues --   442.236061546.922731615.93725
           X            0.99998  -0.00360   0.00521
           Y            0.00298   0.99349   0.11392
           Z           -0.00558  -0.11390   0.99348
 This molecule is an asymmetric top.
 Rotational symmetry number  1.
 Warning -- assumption of classical behavior for rotation
           may cause significant error
 Rotational temperatures (Kelvin)      0.19585     0.05599     0.05360
 Rotational constants (GHZ):           4.08095     1.16667     1.11684
    4 imaginary frequencies ignored.
 Zero-point vibrational energy     292919.0 (Joules/Mol)
                                   70.00932 (Kcal/Mol)
 Warning -- explicit consideration of   9 degrees of freedom as
           vibrations may cause significant error
 Vibrational temperatures:     52.06   153.36   221.57   271.75   341.21
          (Kelvin)            448.96   584.51   794.42   871.19   910.02
                              960.25  1032.35  1077.08  1172.31  1289.16
                             1353.79  1599.76  1665.28  1765.73  1907.40
                             1974.95  2076.83  2094.48  2198.36  2212.38
                             2223.96  2751.65  3093.43  4470.86  4516.66
                             4585.15  4592.02  4622.44  5057.20  5517.56

 Zero-point correction=                           0.111567 (Hartree/Particle)
 Thermal correction to Energy=                    0.119507
 Thermal correction to Enthalpy=                  0.120451
 Thermal correction to Gibbs Free Energy=         0.077337
 Sum of electronic and zero-point Energies=           -419.841062
 Sum of electronic and thermal Energies=              -419.833121
 Sum of electronic and thermal Enthalpies=            -419.832177
 Sum of electronic and thermal Free Energies=         -419.875292

                     E (Thermal)             CV                S
                      KCal/Mol        Cal/Mol-Kelvin    Cal/Mol-Kelvin
 Total                   74.992             27.002             90.742
 Electronic               0.000              0.000              1.377
 Translational            0.889              2.981             40.136
 Rotational               0.889              2.981             28.493
 Vibrational             73.214             21.040             20.736
 Vibration     1          0.594              1.982              5.458
 Vibration     2          0.605              1.944              3.330
 Vibration     3          0.620              1.898              2.622
 Vibration     4          0.633              1.855              2.239
 Vibration     5          0.656              1.784              1.824
 Vibration     6          0.700              1.651              1.351
 Vibration     7          0.771              1.457              0.940
 Vibration     8          0.907              1.135              0.540
 Vibration     9          0.964              1.020              0.440

 Normal termination of Gaussian 16 at Fri Jun 20 14:34:29 2025.
