 Gaussian 16, Revision A.03,
 Gaussian 16:  ES64L-G16RevA.03 25-Dec-2016

 -------------------
 # freq 6-31+g m062x
 -------------------

 -------------------
 Title Card Required
 -------------------
 Symbolic Z-matrix:
 Charge =  0 Multiplicity = 2

                         Standard orientation:
 ---------------------------------------------------------------------
 Center     Atomic      Atomic             Coordinates (Angstroms)
 Number     Number       Type             X           Y           Z
 ---------------------------------------------------------------------
      1          8           0        2.231333    1.473970   -0.047126
      2          1           0        2.830854    1.249288    0.683965
      3          6           0        2.456420   -1.226437   -0.519422
      4          1           0        3.366342   -1.668820   -0.851996
      5          6           0        1.429220   -0.716732   -0.162246
      6          6           0        0.146378   -0.217619    0.329745
      7          8           0       -0.179145   -0.281135    1.482666
      8          8           0       -0.592218    0.265307   -0.662304
      9          6           0       -1.918914    0.704985   -0.307274
     10          6           0       -2.862775   -0.476143   -0.183882
     11          1           0       -2.204825    1.367018   -1.122378
     12          1           0       -1.862517    1.273538    0.621399
     13          1           0       -3.874854   -0.117264    0.012875
     14          1           0       -2.874199   -1.052123   -1.110413
     15          1           0       -2.562528   -1.125093    0.639131
 ---------------------------------------------------------------------

 SCF Done:  E(UM062X) =  -419.960439160     A.U. after   24 cycles

 The electronic state is 2-A.
 Alpha  occ. eigenvalues --  -19.70353 -19.70288 -19.66075 -10.72898 -10.61322
 Alpha  occ. eigenvalues --  -10.59375 -10.59040 -10.54517  -1.27828  -1.18464
 Alpha  occ. eigenvalues --   -1.14572  -0.91253  -0.87886  -0.78530  -0.71099
 Alpha  occ. eigenvalues --   -0.64468  -0.61906  -0.58469  -0.56775  -0.54894
 Alpha  occ. eigenvalues --   -0.53839  -0.50639  -0.48554  -0.46711  -0.45226
 Alpha  occ. eigenvalues --   -0.42605  -0.41707  -0.39527  -0.37999  -0.36745
 Alpha  occ. eigenvalues --   -0.36397
 Alpha virt. eigenvalues --   -0.01277   0.02006   0.02525   0.03644   0.03860
 Alpha virt. eigenvalues --    0.04577   0.05354   0.05918   0.07945   0.08228
 Alpha virt. eigenvalues --    0.08359   0.09018   0.09636   0.11640   0.12260

  Beta  occ. eigenvalues --  -19.70357 -19.68637 -19.66086 -10.72887 -10.61322
  Beta  occ. eigenvalues --  -10.59357 -10.58965 -10.54517  -1.27836  -1.18484
  Beta  occ. eigenvalues --   -1.07196  -0.91048  -0.87714  -0.78461  -0.71021
  Beta  occ. eigenvalues --   -0.64447  -0.61697  -0.58359  -0.56666  -0.53825
  Beta  occ. eigenvalues --   -0.51695  -0.49356  -0.46833  -0.45229  -0.41885
  Beta  occ. eigenvalues --   -0.39459  -0.38967  -0.38329  -0.37982  -0.36479
  Beta virt. eigenvalues --   -0.08989  -0.00880   0.02067   0.02563   0.03807
  Beta virt. eigenvalues --    0.03887   0.04664   0.05369   0.06064   0.08087
  Beta virt. eigenvalues --    0.08247   0.08381   0.09161   0.09658   0.11660

 Mulliken charges and spin densities:
               1          2
     1  O   -0.398038   0.950142
     2  H    0.401353  -0.035126
     3  C   -0.415666   0.077655
     4  H    0.343640  -0.004863
     5  C   -0.199452  -0.030205
     6  C    0.434596   0.048842
     7  O   -0.327662  -0.005063
     8  O   -0.172027  -0.000062
     9  C   -0.216729  -0.000637
    10  C   -0.568818  -0.000556
    11  H    0.221840  -0.000032
    12  H    0.235699  -0.000078
    13  H    0.207834  -0.000012
    14  H    0.219901  -0.000003
    15  H    0.233530  -0.000003
 Sum of Mulliken charges =  -0.00000   1.00000

 Dipole moment (field-independent basis, Debye):
    X=              0.4194    Y=             -0.6586    Z=             -0.4063  Tot=              0.8802
 Quadrupole moment (field-independent basis, Debye-Ang):
   XX=            -30.9594   YY=            -46.9733   ZZ=            -53.3200
   XY=             -5.0688   XZ=              3.2423   YZ=              4.2452

  Exact polarizability:  82.308  -9.329  61.877  -3.808   2.401  57.927
 Approx polarizability:  83.740 -15.000  64.226  -8.485   1.996  73.451

 ******    4 imaginary frequencies (negative Signs) ******

                      1                      2                      3
                      A                      A                      A
 Frequencies --   -465.8946              -212.1925               -85.2663
 Red. masses --      1.0820                 1.5584                 6.9985
 Frc consts  --      0.1384                 0.0413                 0.0300
 IR Inten    --    122.0975               117.7807                 5.0613

                      4                      5                      6
                      A                      A                      A
 Frequencies --    -16.4951                67.3300                95.2788
 Red. masses --      3.1413                 3.4646                 3.2333
 Frc consts  --      0.0005                 0.0093                 0.0173
 IR Inten    --      0.6335                 0.4179                 6.7868

                      7                      8                      9
                      A                      A                      A
 Frequencies --    112.3372               187.2994               214.3054
 Red. masses --      4.5535                 1.2650                 3.1667
 Frc consts  --      0.0339                 0.0261                 0.0857
 IR Inten    --      7.9226                 1.8248                 9.0996

                     10                     11                     12
                      A                      A                      A
 Frequencies --    279.7617               319.5908               420.5787
 Red. masses --      3.4914                 3.0658                 3.8466
 Frc consts  --      0.1610                 0.1845                 0.4009
 IR Inten    --     28.2406                15.5796                 2.5674

                     13                     14                     15
                      A                      A                      A
 Frequencies --    572.6805               624.0443               767.5774
 Red. masses --      4.1844                 5.2147                 3.1050
 Frc consts  --      0.8086                 1.1965                 1.0779
 IR Inten    --      2.4607                12.8448                84.2346

                     16                     17                     18
                      A                      A                      A
 Frequencies --    789.3852               815.8428               836.3097
 Red. masses --      1.5224                 1.2742                 1.7340
 Frc consts  --      0.5589                 0.4997                 0.7145
 IR Inten    --     55.9776                 3.6689                15.0312

                     19                     20                     21
                      A                      A                      A
 Frequencies --    898.6048               944.6237              1110.3046
 Red. masses --      3.3938                 2.5353                 4.1539
 Frc consts  --      1.6146                 1.3329                 3.0171
 IR Inten    --     20.6359                 6.0289                 7.2230

                     22                     23                     24
                      A                      A                      A
 Frequencies --   1157.5582              1227.4732              1328.8504
 Red. masses --      2.1066                 1.7608                 1.7758
 Frc consts  --      1.6631                 1.5631                 1.8476
 IR Inten    --     18.7913                 4.0966               282.6989

                     25                     26                     27
                      A                      A                      A
 Frequencies --   1372.8646              1442.1833              1454.7367
 Red. masses --      1.8976                 1.3998                 1.2668
 Frc consts  --      2.1073                 1.7154                 1.5796
 IR Inten    --    323.2976                46.9430                15.8152

                     28                     29                     30
                      A                      A                      A
 Frequencies --   1528.2314              1537.5199              1545.0241
 Red. masses --      1.0421                 1.0706                 1.0731
 Frc consts  --      1.4340                 1.4911                 1.5092
 IR Inten    --     14.3386                 4.5466                21.7050

                     31                     32                     33
                      A                      A                      A
 Frequencies --   1906.7386              2310.7359              3107.2785
 Red. masses --     12.2673                 5.6313                 1.0350
 Frc consts  --     26.2773                17.7157                 5.8880
 IR Inten    --    303.5851                59.2630                13.6879

                     34                     35                     36
                      A                      A                      A
 Frequencies --   3140.0547              3187.2069              3191.0660
 Red. masses --      1.0601                 1.1003                 1.1023
 Frc consts  --      6.1587                 6.5857                 6.6135
 IR Inten    --     18.0252                14.2418                 6.3214

                     37                     38                     39
                      A                      A                      A
 Frequencies --   3212.1131              3531.2354              3802.9947
 Red. masses --      1.1056                 1.1753                 1.0672
 Frc consts  --      6.7208                 8.6351                 9.0934
 IR Inten    --     17.5741                60.0358                 9.8126

 - Thermochemistry -
 -------------------
 Temperature   298.150 Kelvin.  Pressure   1.00000 Atm.
 Atom     1 has atomic number  8 and mass  15.99491

 Molecular mass:   115.03952 amu.
 Principal axes and moments of inertia in atomic units:
                           1         2         3
     Eigenvalues --   478.560811556.911341657.17286
           X            0.99998  -0.00401   0.00565
           Y            0.00360   0.99755   0.06985
           Z           -0.00591  -0.06983   0.99754
 This molecule is an asymmetric top.
 Rotational symmetry number  1.
 Warning -- assumption of classical behavior for rotation
           may cause significant error
 Rotational temperatures (Kelvin)      0.18099     0.05563     0.05227
 Rotational constants (GHZ):           3.77118     1.15918     1.08905
    4 imaginary frequencies ignored.
 Zero-point vibrational energy     293322.7 (Joules/Mol)
                                   70.10580 (Kcal/Mol)
 Warning -- explicit consideration of   9 degrees of freedom as
           vibrations may cause significant error
 Vibrational temperatures:     96.87   137.08   161.63   269.48   308.34
          (Kelvin)            402.51   459.82   605.12   823.96   897.86
                             1104.37  1135.75  1173.82  1203.26  1292.89
                             1359.10  1597.48  1665.47  1766.06  1911.92
                             1975.25  2074.98  2093.04  2198.78  2212.15
                             2222.95  2743.37  3324.63  4470.68  4517.84
                             4585.68  4591.23  4621.51  5080.66  5471.66

 Zero-point correction=                           0.111721 (Hartree/Particle)
 Thermal correction to Energy=                    0.119897
 Thermal correction to Enthalpy=                  0.120841
 Thermal correction to Gibbs Free Energy=         0.077430
 Sum of electronic and zero-point Energies=           -419.848718
 Sum of electronic and thermal Energies=              -419.840542
 Sum of electronic and thermal Enthalpies=            -419.839598
 Sum of electronic and thermal Free Energies=         -419.883009

                     E (Thermal)             CV                S
                      KCal/Mol        Cal/Mol-Kelvin    Cal/Mol-Kelvin
 Total                   75.236             27.221             91.366
 Electronic               0.000              0.000              1.377
 Translational            0.889              2.981             40.136
 Rotational               0.889              2.981             28.603
 Vibrational             73.459             21.259             21.250
 Vibration     1          0.598              1.970              4.230
 Vibration     2          0.603              1.953              3.549
 Vibration     3          0.607              1.939              3.228
 Vibration     4          0.632              1.857              2.254
 Vibration     5          0.644              1.819              2.007
 Vibration     6          0.680              1.711              1.535
 Vibration     7          0.706              1.636              1.312
 Vibration     8          0.783              1.426              0.890
 Vibration     9          0.929              1.090              0.499

 Normal termination of Gaussian 16 at Fri Jun 20 14:42:32 2025.
