 Gaussian 16, Revision A.03,
 Gaussian 16:  ES64L-G16RevA.03 25-Dec-2016

 --------------------------
 # ccsd(t)/6-311++g(d,p) sp
 --------------------------

 -------------------
 Title Card Required
 -------------------
 Symbolic Z-matrix:
 Charge =  0 Multiplicity = 2

                         Standard orientation:
 ---------------------------------------------------------------------
 Center     Atomic      Atomic             Coordinates (Angstroms)
 Number     Number       Type             X           Y           Z
 ---------------------------------------------------------------------
      1          8           0        2.173960    1.368531   -0.013238
      2          1           0        2.820409    1.218509    0.694355
      3          6           0        2.454127   -1.181970   -0.551795
      4          1           0        3.330027   -1.674775   -0.905250
      5          6           0        1.500995   -0.539111   -0.167390
      6          6           0        0.161328   -0.191551    0.326953
      7          8           0       -0.173078   -0.342181    1.467678
      8          8           0       -0.593471    0.284200   -0.653867
      9          6           0       -1.926279    0.694919   -0.285352
     10          6           0       -2.860112   -0.495977   -0.197500
     11          1           0       -2.219154    1.380160   -1.078597
     12          1           0       -1.873556    1.234466    0.660883
     13          1           0       -3.874363   -0.150000    0.011111
     14          1           0       -2.869405   -1.043228   -1.141340
     15          1           0       -2.553602   -1.167391    0.604757
 ---------------------------------------------------------------------

 SCF Done:  E(UHF) =  -417.980438936     A.U. after   36 cycles
 E2 =    -0.1256551770D+01 EUMP2 =    -0.41923699070627D+03
 CCSD(T)= -0.41935308964D+03

 The electronic state is 2-A.
 Alpha  occ. eigenvalues --  -20.62287 -20.61034 -20.55525 -11.41365 -11.29505
 Alpha  occ. eigenvalues --  -11.26977 -11.26225 -11.22435  -1.48051  -1.38105
 Alpha  occ. eigenvalues --   -1.37655  -1.07912  -1.04310  -0.92548  -0.83798
 Alpha  occ. eigenvalues --   -0.76376  -0.73066  -0.69655  -0.67888  -0.66028
 Alpha  occ. eigenvalues --   -0.64816  -0.62868  -0.58149  -0.55206  -0.53895
 Alpha  occ. eigenvalues --   -0.53603  -0.50282  -0.47575  -0.45918  -0.43091
 Alpha  occ. eigenvalues --   -0.42143
 Alpha virt. eigenvalues --    0.03720   0.04545   0.05764   0.06610   0.07030
 Alpha virt. eigenvalues --    0.08256   0.09274   0.10627   0.11317   0.12461
 Alpha virt. eigenvalues --    0.13431   0.13766   0.14433   0.14967   0.16702

  Beta  occ. eigenvalues --  -20.61044 -20.58450 -20.55915 -11.41029 -11.29506
  Beta  occ. eigenvalues --  -11.27999 -11.24914 -11.22436  -1.48210  -1.38307
  Beta  occ. eigenvalues --   -1.24360  -1.07810  -1.03557  -0.91634  -0.83261
  Beta  occ. eigenvalues --   -0.76187  -0.72046  -0.69735  -0.66564  -0.63741
  Beta  occ. eigenvalues --   -0.62963  -0.58557  -0.55188  -0.53967  -0.50846
  Beta  occ. eigenvalues --   -0.49813  -0.48470  -0.46892  -0.44034  -0.42295
  Beta virt. eigenvalues --    0.03808   0.04543   0.04720   0.06512   0.06989
  Beta virt. eigenvalues --    0.07956   0.08818   0.09395   0.10783   0.11887
  Beta virt. eigenvalues --    0.13098   0.13655   0.14070   0.14813   0.15855

 Mulliken charges and spin densities:
               1          2
     1  O   -0.160397   0.904233
     2  H    0.245836  -0.032587
     3  C   -0.740879   0.983821
     4  H    0.213024  -0.075701
     5  C    0.888659  -0.910781
     6  C   -0.405077   0.208687
     7  O   -0.281479  -0.080294
     8  O   -0.031712   0.001456
     9  C   -0.154360   0.002708
    10  C   -0.382087  -0.002109
    11  H    0.171458   0.000201
    12  H    0.181060  -0.000016
    13  H    0.129534   0.000049
    14  H    0.144566   0.000084
    15  H    0.181854   0.000249
 Sum of Mulliken charges =  -0.00000   1.00000

 Dipole moment (field-independent basis, Debye):
    X=              0.5646    Y=             -0.3382    Z=             -0.8186  Tot=              1.0504
 Quadrupole moment (field-independent basis, Debye-Ang):
   XX=            -31.4453   YY=            -46.2153   ZZ=            -52.4492
   XY=             -4.6988   XZ=              2.5324   YZ=              4.2477

 Normal termination of Gaussian 16 at Fri Aug 29 21:48:14 2025.
