 Gaussian 16, Revision A.03,
 Gaussian 16:  ES64L-G16RevA.03 25-Dec-2016

 -------------------
 # freq 6-31+g m062x
 -------------------

 -------------------
 Title Card Required
 -------------------
 Symbolic Z-matrix:
 Charge =  0 Multiplicity = 2

                         Standard orientation:
 ---------------------------------------------------------------------
 Center     Atomic      Atomic             Coordinates (Angstroms)
 Number     Number       Type             X           Y           Z
 ---------------------------------------------------------------------
      1          8           0        2.224021    1.461792   -0.043014
      2          1           0        2.831867    1.245384    0.683561
      3          6           0        2.457336   -1.220146   -0.522985
      4          1           0        3.363480   -1.668601   -0.857845
      5          6           0        1.436685   -0.698433   -0.163244
      6          6           0        0.148774   -0.213034    0.329460
      7          8           0       -0.178612   -0.288246    1.481053
      8          8           0       -0.592226    0.268796   -0.661254
      9          6           0       -1.920241    0.703353   -0.304772
     10          6           0       -2.862339   -0.479506   -0.185539
     11          1           0       -2.207615    1.367948   -1.117296
     12          1           0       -1.865116    1.268564    0.626057
     13          1           0       -3.874756   -0.122290    0.012595
     14          1           0       -2.873409   -1.052258   -1.114076
     15          1           0       -2.561207   -1.130878    0.635206
 ---------------------------------------------------------------------

 SCF Done:  E(UM062X) =  -419.959869765     A.U. after   24 cycles

 The electronic state is 2-A.
 Alpha  occ. eigenvalues --  -19.70356 -19.70172 -19.66070 -10.72895 -10.61325
 Alpha  occ. eigenvalues --  -10.59434 -10.59082 -10.54512  -1.27830  -1.18467
 Alpha  occ. eigenvalues --   -1.14497  -0.91280  -0.87907  -0.78535  -0.71116
 Alpha  occ. eigenvalues --   -0.64475  -0.61934  -0.58471  -0.56790  -0.54827
 Alpha  occ. eigenvalues --   -0.53841  -0.50656  -0.48526  -0.46697  -0.45218
 Alpha  occ. eigenvalues --   -0.42538  -0.41686  -0.39533  -0.37999  -0.36741
 Alpha  occ. eigenvalues --   -0.36261
 Alpha virt. eigenvalues --   -0.01223   0.02011   0.02527   0.03656   0.03856
 Alpha virt. eigenvalues --    0.04584   0.05357   0.05898   0.07946   0.08207
 Alpha virt. eigenvalues --    0.08351   0.09014   0.09643   0.11666   0.12279

  Beta  occ. eigenvalues --  -19.70360 -19.68527 -19.66083 -10.72883 -10.61325
  Beta  occ. eigenvalues --  -10.59419 -10.58997 -10.54512  -1.27838  -1.18490
  Beta  occ. eigenvalues --   -1.07202  -0.91056  -0.87721  -0.78459  -0.71030
  Beta  occ. eigenvalues --   -0.64451  -0.61704  -0.58353  -0.56673  -0.53835
  Beta  occ. eigenvalues --   -0.51664  -0.49349  -0.46830  -0.45221  -0.41892
  Beta  occ. eigenvalues --   -0.39456  -0.38951  -0.38338  -0.37984  -0.36455
  Beta virt. eigenvalues --   -0.08981  -0.00776   0.02070   0.02568   0.03809
  Beta virt. eigenvalues --    0.03885   0.04674   0.05371   0.06041   0.08092
  Beta virt. eigenvalues --    0.08212   0.08382   0.09152   0.09667   0.11682

 Mulliken charges and spin densities:
               1          2
     1  O   -0.400127   0.941751
     2  H    0.402072  -0.034696
     3  C   -0.389907   0.088017
     4  H    0.341984  -0.005320
     5  C   -0.246428  -0.036192
     6  C    0.460767   0.053249
     7  O   -0.328654  -0.005515
     8  O   -0.173602  -0.000073
     9  C   -0.215148  -0.000588
    10  C   -0.569488  -0.000505
    11  H    0.221847  -0.000035
    12  H    0.235474  -0.000078
    13  H    0.207720  -0.000009
    14  H    0.219809  -0.000004
    15  H    0.233681  -0.000002
 Sum of Mulliken charges =  -0.00000   1.00000

 Dipole moment (field-independent basis, Debye):
    X=              0.4211    Y=             -0.6698    Z=             -0.4210  Tot=              0.8961
 Quadrupole moment (field-independent basis, Debye-Ang):
   XX=            -30.9504   YY=            -46.9634   ZZ=            -53.3013
   XY=             -5.1124   XZ=              3.1865   YZ=              4.2766

  Exact polarizability:  82.234  -9.117  62.738  -3.780   2.565  57.944
 Approx polarizability:  83.436 -14.994  65.202  -8.449   2.112  73.447

 ******    4 imaginary frequencies (negative Signs) ******

                      1                      2                      3
                      A                      A                      A
 Frequencies --   -467.9383              -181.7888               -81.6531
 Red. masses --      1.0818                 1.9190                 5.9977
 Frc consts  --      0.1396                 0.0374                 0.0236
 IR Inten    --    121.2036                90.6066                 7.9696

                      4                      5                      6
                      A                      A                      A
 Frequencies --     -8.9972                74.5719                95.0153
 Red. masses --      2.9687                 3.7864                 3.0382
 Frc consts  --      0.0001                 0.0124                 0.0162
 IR Inten    --      0.4873                 0.5599                 6.6804

                      7                      8                      9
                      A                      A                      A
 Frequencies --    126.1125               186.9913               215.9200
 Red. masses --      4.3408                 1.2713                 3.1476
 Frc consts  --      0.0407                 0.0262                 0.0865
 IR Inten    --     14.5285                 1.8398                 6.7209

                     10                     11                     12
                      A                      A                      A
 Frequencies --    285.0598               320.9891               418.6145
 Red. masses --      2.9296                 2.9706                 3.8244
 Frc consts  --      0.1403                 0.1803                 0.3949
 IR Inten    --     40.6230                18.7960                 2.7125

                     13                     14                     15
                      A                      A                      A
 Frequencies --    573.0003               623.6283               764.8210
 Red. masses --      4.1818                 5.2426                 3.2160
 Frc consts  --      0.8090                 1.2013                 1.1084
 IR Inten    --      2.4978                12.7896                84.8064

                     16                     17                     18
                      A                      A                      A
 Frequencies --    783.5411               815.5457               825.0803
 Red. masses --      1.5590                 1.2710                 1.6446
 Frc consts  --      0.5639                 0.4981                 0.6597
 IR Inten    --     51.4351                 4.1326                18.3435

                     19                     20                     21
                      A                      A                      A
 Frequencies --    898.5431               944.6072              1110.8457
 Red. masses --      3.3912                 2.5423                 4.1487
 Frc consts  --      1.6132                 1.3366                 3.0163
 IR Inten    --     20.6066                 6.1118                 7.0658

                     22                     23                     24
                      A                      A                      A
 Frequencies --   1157.6156              1227.4370              1329.0052
 Red. masses --      2.1063                 1.7607                 1.7893
 Frc consts  --      1.6631                 1.5629                 1.8621
 IR Inten    --     18.6894                 4.0942               287.0677

                     25                     26                     27
                      A                      A                      A
 Frequencies --   1373.0952              1442.4572              1454.7338
 Red. masses --      1.8840                 1.3963                 1.2685
 Frc consts  --      2.0928                 1.7118                 1.5816
 IR Inten    --    321.1193                46.6901                15.5948

                     28                     29                     30
                      A                      A                      A
 Frequencies --   1528.1419              1537.4384              1545.0172
 Red. masses --      1.0421                 1.0708                 1.0729
 Frc consts  --      1.4338                 1.4912                 1.5090
 IR Inten    --     14.3224                 4.4817                21.5517

                     31                     32                     33
                      A                      A                      A
 Frequencies --   1907.1619              2308.1718              3107.2420
 Red. masses --     12.2657                 5.6414                 1.0351
 Frc consts  --     26.2855                17.7083                 5.8879
 IR Inten    --    304.1290                59.8144                13.7238

                     34                     35                     36
                      A                      A                      A
 Frequencies --   3139.6755              3187.0666              3190.9955
 Red. masses --      1.0602                 1.1003                 1.1024
 Frc consts  --      6.1573                 6.5849                 6.6135
 IR Inten    --     17.9626                14.3436                 6.1554

                     37                     38                     39
                      A                      A                      A
 Frequencies --   3212.0264              3530.7922              3804.3217
 Red. masses --      1.1055                 1.1749                 1.0672
 Frc consts  --      6.7200                 8.6298                 9.0999
 IR Inten    --     17.6294                60.2187                10.5492

 - Thermochemistry -
 -------------------
 Temperature   298.150 Kelvin.  Pressure   1.00000 Atm.
 Atom     1 has atomic number  8 and mass  15.99491

 Molecular mass:   115.03952 amu.
 Principal axes and moments of inertia in atomic units:
                           1         2         3
     Eigenvalues --   474.798561556.025641653.02390
           X            0.99998  -0.00392   0.00560
           Y            0.00350   0.99733   0.07296
           Z           -0.00587  -0.07294   0.99732
 This molecule is an asymmetric top.
 Rotational symmetry number  1.
 Warning -- assumption of classical behavior for rotation
           may cause significant error
 Rotational temperatures (Kelvin)      0.18242     0.05566     0.05240
 Rotational constants (GHZ):           3.80107     1.15984     1.09178
    4 imaginary frequencies ignored.
 Zero-point vibrational energy     293355.9 (Joules/Mol)
                                   70.11375 (Kcal/Mol)
 Warning -- explicit consideration of   9 degrees of freedom as
           vibrations may cause significant error
 Vibrational temperatures:    107.29   136.71   181.45   269.04   310.66
          (Kelvin)            410.14   461.83   602.29   824.42   897.26
                             1100.41  1127.34  1173.39  1187.11  1292.80
                             1359.08  1598.26  1665.55  1766.01  1912.14
                             1975.58  2075.37  2093.04  2198.66  2212.03
                             2222.94  2743.98  3320.94  4470.63  4517.29
                             4585.48  4591.13  4621.39  5080.02  5473.57

 Zero-point correction=                           0.111733 (Hartree/Particle)
 Thermal correction to Energy=                    0.119867
 Thermal correction to Enthalpy=                  0.120811
 Thermal correction to Gibbs Free Energy=         0.077618
 Sum of electronic and zero-point Energies=           -419.848136
 Sum of electronic and thermal Energies=              -419.840003
 Sum of electronic and thermal Enthalpies=            -419.839059
 Sum of electronic and thermal Free Energies=         -419.882252

                     E (Thermal)             CV                S
                      KCal/Mol        Cal/Mol-Kelvin    Cal/Mol-Kelvin
 Total                   75.218             27.227             90.909
 Electronic               0.000              0.000              1.377
 Translational            0.889              2.981             40.136
 Rotational               0.889              2.981             28.592
 Vibrational             73.440             21.266             20.803
 Vibration     1          0.599              1.966              4.029
 Vibration     2          0.603              1.953              3.554
 Vibration     3          0.611              1.927              3.004
 Vibration     4          0.632              1.858              2.257
 Vibration     5          0.645              1.817              1.993
 Vibration     6          0.683              1.701              1.503
 Vibration     7          0.706              1.633              1.305
 Vibration     8          0.781              1.430              0.897
 Vibration     9          0.929              1.090              0.499

 Normal termination of Gaussian 16 at Fri Jun 20 14:31:16 2025.
