 Gaussian 16, Revision A.03,
 Gaussian 16:  ES64L-G16RevA.03 25-Dec-2016

 -------------------
 # freq 6-31+g m062x
 -------------------

 -------------------
 Title Card Required
 -------------------
 Symbolic Z-matrix:
 Charge =  0 Multiplicity = 2

                         Standard orientation:
 ---------------------------------------------------------------------
 Center     Atomic      Atomic             Coordinates (Angstroms)
 Number     Number       Type             X           Y           Z
 ---------------------------------------------------------------------
      1          8           0        2.168158    1.357654   -0.009738
      2          1           0        2.816644    1.213861    0.696746
      3          6           0        2.453365   -1.179001   -0.555447
      4          1           0        3.327710   -1.673186   -0.911147
      5          6           0        1.509561   -0.517932   -0.167343
      6          6           0        0.161905   -0.191045    0.326492
      7          8           0       -0.172517   -0.348222    1.466108
      8          8           0       -0.593613    0.285621   -0.652943
      9          6           0       -1.926844    0.694240   -0.283029
     10          6           0       -2.859758   -0.497542   -0.199133
     11          1           0       -2.220072    1.381989   -1.073955
     12          1           0       -1.874181    1.230643    0.664996
     13          1           0       -3.874255   -0.153026    0.010675
     14          1           0       -2.868728   -1.041605   -1.144821
     15          1           0       -2.552707   -1.171417    0.600846
 ---------------------------------------------------------------------

 SCF Done:  E(UM062X) =  -419.952811648     A.U. after   24 cycles

 The electronic state is 2-A.
 Alpha  occ. eigenvalues --  -19.70564 -19.68188 -19.66290 -10.73084 -10.61468
 Alpha  occ. eigenvalues --  -10.61366 -10.60268 -10.54574  -1.28119  -1.18748
 Alpha  occ. eigenvalues --   -1.12934  -0.91943  -0.88362  -0.78710  -0.71516
 Alpha  occ. eigenvalues --   -0.64798  -0.62591  -0.58667  -0.57136  -0.54342
 Alpha  occ. eigenvalues --   -0.53513  -0.50356  -0.48272  -0.46588  -0.45273
 Alpha  occ. eigenvalues --   -0.42095  -0.40763  -0.39814  -0.38154  -0.36982
 Alpha  occ. eigenvalues --   -0.33916
 Alpha virt. eigenvalues --   -0.00817   0.01885   0.02560   0.03373   0.03810
 Alpha virt. eigenvalues --    0.04405   0.05300   0.05831   0.07769   0.08009
 Alpha virt. eigenvalues --    0.08387   0.08977   0.09569   0.11478   0.12172

  Beta  occ. eigenvalues --  -19.70567 -19.66765 -19.66312 -10.73049 -10.61467
  Beta  occ. eigenvalues --  -10.61447 -10.59985 -10.54574  -1.28124  -1.18781
  Beta  occ. eigenvalues --   -1.07543  -0.91344  -0.87940  -0.78495  -0.71263
  Beta  occ. eigenvalues --   -0.64679  -0.62016  -0.58497  -0.56963  -0.54067
  Beta  occ. eigenvalues --   -0.51426  -0.49243  -0.46900  -0.45263  -0.42124
  Beta  occ. eigenvalues --   -0.39835  -0.39514  -0.38252  -0.37820  -0.35961
  Beta virt. eigenvalues --   -0.09842   0.00348   0.01928   0.02647   0.03323
  Beta virt. eigenvalues --    0.03889   0.04457   0.05320   0.05880   0.07798
  Beta virt. eigenvalues --    0.08136   0.08356   0.09029   0.09630   0.11442

 Mulliken charges and spin densities:
               1          2
     1  O   -0.442730   0.755949
     2  H    0.404194  -0.026787
     3  C    0.170890   0.434837
     4  H    0.314572  -0.016481
     5  C   -0.551578  -0.194073
     6  C    0.305626   0.057112
     7  O   -0.346509  -0.010080
     8  O   -0.187598  -0.000655
     9  C   -0.209361   0.000315
    10  C   -0.577071   0.000011
    11  H    0.223399  -0.000104
    12  H    0.235176  -0.000105
    13  H    0.207383   0.000099
    14  H    0.219273  -0.000025
    15  H    0.234335  -0.000011
 Sum of Mulliken charges =  -0.00000   1.00000

 Dipole moment (field-independent basis, Debye):
    X=              0.2346    Y=             -1.1556    Z=             -0.5842  Tot=              1.3159
 Quadrupole moment (field-independent basis, Debye-Ang):
   XX=            -31.4942   YY=            -47.2477   ZZ=            -53.0132
   XY=             -6.4617   XZ=              2.5780   YZ=              4.5772

  Exact polarizability:  81.255  -5.982  75.373  -3.096   5.013  58.282
 Approx polarizability:  79.418 -13.594  79.749  -7.453   4.231  73.614

 ******    4 imaginary frequencies (negative Signs) ******

                      1                      2                      3
                      A                      A                      A
 Frequencies --   -534.2209              -469.0390              -103.5865
 Red. masses --     10.7526                 1.0892                 7.3404
 Frc consts  --      1.8080                 0.1412                 0.0464
 IR Inten    --     49.3153               115.6124                 9.2956

                      4                      5                      6
                      A                      A                      A
 Frequencies --    -44.3363                32.0335               100.2414
 Red. masses --      4.3699                 2.5986                 3.2416
 Frc consts  --      0.0051                 0.0016                 0.0192
 IR Inten    --      7.0549                 0.2463                 5.6752

                      7                      8                      9
                      A                      A                      A
 Frequencies --    143.8060               187.4766               226.6331
 Red. masses --      5.7178                 1.2793                 4.6875
 Frc consts  --      0.0697                 0.0265                 0.1419
 IR Inten    --      0.8297                 1.9866                 0.1831

                     10                     11                     12
                      A                      A                      A
 Frequencies --    311.5631               405.2311               539.0263
 Red. masses --      2.9165                 3.5551                 1.7984
 Frc consts  --      0.1668                 0.3440                 0.3079
 IR Inten    --     17.4683                 0.3402                59.6444

                     13                     14                     15
                      A                      A                      A
 Frequencies --    603.3617               633.6205               658.2668
 Red. masses --      3.4137                 1.9785                 1.4494
 Frc consts  --      0.7322                 0.4680                 0.3700
 IR Inten    --     35.9052                31.6838                20.0154

                     16                     17                     18
                      A                      A                      A
 Frequencies --    721.1137               751.9421               814.8879
 Red. masses --      6.2711                 1.3908                 1.2641
 Frc consts  --      1.9213                 0.4633                 0.4946
 IR Inten    --     76.5888                48.9747                 7.1294

                     19                     20                     21
                      A                      A                      A
 Frequencies --    896.6406               941.9728              1112.3289
 Red. masses --      3.4095                 2.5647                 4.1347
 Frc consts  --      1.6150                 1.3408                 3.0141
 IR Inten    --     23.2335                 6.8233                 5.4610

                     22                     23                     24
                      A                      A                      A
 Frequencies --   1157.6088              1227.3172              1326.4921
 Red. masses --      2.0827                 1.7503                 1.9622
 Frc consts  --      1.6444                 1.5534                 2.0342
 IR Inten    --     18.0395                 5.3963               332.1774

                     25                     26                     27
                      A                      A                      A
 Frequencies --   1373.0095              1443.5433              1455.6332
 Red. masses --      1.7547                 1.3664                 1.2761
 Frc consts  --      1.9490                 1.6776                 1.5930
 IR Inten    --    289.7635                40.5902                13.5179

                     28                     29                     30
                      A                      A                      A
 Frequencies --   1527.9042              1537.5872              1545.6169
 Red. masses --      1.0420                 1.0678                 1.0752
 Frc consts  --      1.4331                 1.4873                 1.5134
 IR Inten    --     14.3727                 2.5947                20.2558

                     31                     32                     33
                      A                      A                      A
 Frequencies --   1912.2464              2184.8975              3107.3602
 Red. masses --     12.1705                 6.1453                 1.0351
 Frc consts  --     26.2208                17.2843                 5.8888
 IR Inten    --    312.7949                88.9139                13.7111

                     34                     35                     36
                      A                      A                      A
 Frequencies --   3139.0539              3186.7856              3191.4756
 Red. masses --      1.0602                 1.1000                 1.1027
 Frc consts  --      6.1554                 6.5817                 6.6174
 IR Inten    --     16.0720                15.2133                 4.5591

                     37                     38                     39
                      A                      A                      A
 Frequencies --   3212.5914              3518.4886              3831.2229
 Red. masses --      1.1054                 1.1561                 1.0673
 Frc consts  --      6.7214                 8.4326                 9.2301
 IR Inten    --     17.3970                63.0585                19.5813

 - Thermochemistry -
 -------------------
 Temperature   298.150 Kelvin.  Pressure   1.00000 Atm.
 Atom     1 has atomic number  8 and mass  15.99491

 Molecular mass:   115.03952 amu.
 Principal axes and moments of inertia in atomic units:
                           1         2         3
     Eigenvalues --   445.047251547.749261619.15352
           X            0.99998  -0.00360   0.00525
           Y            0.00301   0.99403   0.10905
           Z           -0.00561  -0.10903   0.99402
 This molecule is an asymmetric top.
 Rotational symmetry number  1.
 Warning -- assumption of classical behavior for rotation
           may cause significant error
 Rotational temperatures (Kelvin)      0.19462     0.05596     0.05349
 Rotational constants (GHZ):           4.05517     1.16604     1.11462
    4 imaginary frequencies ignored.
 Zero-point vibrational energy     292839.7 (Joules/Mol)
                                   69.99038 (Kcal/Mol)
 Warning -- explicit consideration of   9 degrees of freedom as
           vibrations may cause significant error
 Vibrational temperatures:     46.09   144.22   206.90   269.74   326.07
          (Kelvin)            448.27   583.04   775.54   868.10   911.64
                              947.10  1037.52  1081.88  1172.44  1290.07
                             1355.29  1600.39  1665.54  1765.84  1908.53
                             1975.45  2076.94  2094.33  2198.31  2212.25
                             2223.80  2751.30  3143.58  4470.80  4516.40
                             4585.07  4591.82  4622.20  5062.32  5512.28

 Zero-point correction=                           0.111537 (Hartree/Particle)
 Thermal correction to Energy=                    0.119545
 Thermal correction to Enthalpy=                  0.120489
 Thermal correction to Gibbs Free Energy=         0.077073
 Sum of electronic and zero-point Energies=           -419.841275
 Sum of electronic and thermal Energies=              -419.833266
 Sum of electronic and thermal Enthalpies=            -419.832322
 Sum of electronic and thermal Free Energies=         -419.875739

                     E (Thermal)             CV                S
                      KCal/Mol        Cal/Mol-Kelvin    Cal/Mol-Kelvin
 Total                   75.016             27.073             91.378
 Electronic               0.000              0.000              1.377
 Translational            0.889              2.981             40.136
 Rotational               0.889              2.981             28.502
 Vibrational             73.238             21.111             21.363
 Vibration     1          0.594              1.983              5.699
 Vibration     2          0.604              1.949              3.450
 Vibration     3          0.616              1.909              2.753
 Vibration     4          0.632              1.857              2.253
 Vibration     5          0.650              1.800              1.905
 Vibration     6          0.700              1.652              1.354
 Vibration     7          0.770              1.459              0.944
 Vibration     8          0.894              1.164              0.567
 Vibration     9          0.962              1.025              0.444

 Normal termination of Gaussian 16 at Fri Jun 20 14:37:44 2025.
