 Gaussian 16, Revision A.03,
 Gaussian 16:  ES64L-G16RevA.03 25-Dec-2016

 --------------------------
 # ccsd(t)/6-311++g(d,p) sp
 --------------------------

 -------------------
 Title Card Required
 -------------------
 Symbolic Z-matrix:
 Charge =  0 Multiplicity = 2

                         Standard orientation:
 ---------------------------------------------------------------------
 Center     Atomic      Atomic             Coordinates (Angstroms)
 Number     Number       Type             X           Y           Z
 ---------------------------------------------------------------------
      1          8           0        2.231333    1.473970   -0.047126
      2          1           0        2.830854    1.249288    0.683965
      3          6           0        2.456420   -1.226437   -0.519422
      4          1           0        3.366342   -1.668820   -0.851996
      5          6           0        1.429220   -0.716732   -0.162246
      6          6           0        0.146378   -0.217619    0.329745
      7          8           0       -0.179145   -0.281135    1.482666
      8          8           0       -0.592218    0.265307   -0.662304
      9          6           0       -1.918914    0.704985   -0.307274
     10          6           0       -2.862775   -0.476143   -0.183882
     11          1           0       -2.204825    1.367018   -1.122378
     12          1           0       -1.862517    1.273538    0.621399
     13          1           0       -3.874854   -0.117264    0.012875
     14          1           0       -2.874199   -1.052123   -1.110413
     15          1           0       -2.562528   -1.125093    0.639131
 ---------------------------------------------------------------------

 SCF Done:  E(UHF) =  -417.992136380     A.U. after   38 cycles
 E2 =    -0.1261204681D+01 EUMP2 =    -0.41925334106079D+03
 CCSD(T)= -0.41935726565D+03

 The electronic state is 2-A.
 Alpha  occ. eigenvalues --  -20.63024 -20.61096 -20.55730 -11.41530 -11.29523
 Alpha  occ. eigenvalues --  -11.26715 -11.25843 -11.22492  -1.48091  -1.38554
 Alpha  occ. eigenvalues --   -1.37809  -1.07739  -1.04084  -0.92547  -0.83724
 Alpha  occ. eigenvalues --   -0.76319  -0.73015  -0.69558  -0.67848  -0.66819
 Alpha  occ. eigenvalues --   -0.65328  -0.62974  -0.58188  -0.55722  -0.54131
 Alpha  occ. eigenvalues --   -0.53960  -0.50353  -0.47921  -0.46129  -0.42751
 Alpha  occ. eigenvalues --   -0.42198
 Alpha virt. eigenvalues --    0.03742   0.04556   0.05788   0.06596   0.07018
 Alpha virt. eigenvalues --    0.08297   0.09379   0.09676   0.11074   0.12517
 Alpha virt. eigenvalues --    0.13493   0.13842   0.14647   0.15750   0.16439

  Beta  occ. eigenvalues --  -20.61102 -20.58918 -20.55978 -11.41347 -11.29523
  Beta  occ. eigenvalues --  -11.26710 -11.25669 -11.22493  -1.48198  -1.38210
  Beta  occ. eigenvalues --   -1.23098  -1.07766  -1.03701  -0.92120  -0.83554
  Beta  occ. eigenvalues --   -0.76265  -0.72539  -0.69608  -0.66602  -0.63348
  Beta  occ. eigenvalues --   -0.63009  -0.58400  -0.55221  -0.54037  -0.50742
  Beta  occ. eigenvalues --   -0.50023  -0.48437  -0.46730  -0.42918  -0.42312
  Beta virt. eigenvalues --    0.03797   0.04560   0.05087   0.06521   0.06992
  Beta virt. eigenvalues --    0.08207   0.09174   0.09562   0.10236   0.11306
  Beta virt. eigenvalues --    0.13088   0.13504   0.13974   0.14799   0.16441

 Mulliken charges and spin densities:
               1          2
     1  O   -0.168030   0.996363
     2  H    0.233998  -0.039276
     3  C   -0.571917   0.479778
     4  H    0.225024  -0.033897
     5  C    1.254233  -0.407778
     6  C   -0.944339   0.057714
     7  O   -0.271523  -0.051087
     8  O   -0.028832   0.000926
     9  C   -0.155182  -0.001776
    10  C   -0.378579  -0.000667
    11  H    0.167089  -0.000386
    12  H    0.182362   0.000280
    13  H    0.131411  -0.000044
    14  H    0.145883   0.000122
    15  H    0.178401  -0.000273
 Sum of Mulliken charges =  -0.00000   1.00000

 Dipole moment (field-independent basis, Debye):
    X=              0.5912    Y=             -0.2264    Z=             -0.7190  Tot=              0.9579
 Quadrupole moment (field-independent basis, Debye-Ang):
   XX=            -31.0062   YY=            -46.3969   ZZ=            -52.6904
   XY=             -4.4319   XZ=              2.8548   YZ=              3.9970

 \MP4SDQ=-419.3049385\CCSD=-419.3048587\CCSD(T)=-419.3572656\S2=0.81551
 Normal termination of Gaussian 16 at Tue Aug  5 16:20:01 2025.
