 Gaussian 16, Revision A.03,
 Gaussian 16:  ES64L-G16RevA.03 25-Dec-2016

 --------------------------
 # freq 6-311++g(d,p) m062x
 --------------------------

 -------------------
 Title Card Required
 -------------------
 Symbolic Z-matrix:
 Charge =  0 Multiplicity = 2

                         Standard orientation:
 ---------------------------------------------------------------------
 Center     Atomic      Atomic             Coordinates (Angstroms)
 Number     Number       Type             X           Y           Z
 ---------------------------------------------------------------------
      1          6           0        1.342230   -1.339834   -1.215720
      2          1           0        1.736821   -2.219047   -1.670026
      3          6           0        0.889681   -0.358652   -0.687628
      4          6           0        0.390785    0.941240   -0.210360
      5          8           0        1.008346    1.939785   -0.435108
      6          8           0       -0.765811    0.957006    0.444387
      7          6           0       -1.500744   -0.257154    0.689398
      8          6           0       -2.372560   -0.614432   -0.498219
      9          1           0       -0.806172   -1.056727    0.949993
     10          1           0       -2.103056   -0.024309    1.566160
     11          1           0       -3.037526    0.214279   -0.745189
     12          1           0       -1.766551   -0.852099   -1.374151
     13          1           0       -2.980356   -1.489001   -0.256988
     14          8           0        1.510009   -0.909618    1.464139
     15          1           0        2.440135   -0.697490    1.278027
 ---------------------------------------------------------------------

 SCF Done:  E(UM062X) =  -420.202026356     A.U. after   28 cycles

 The electronic state is 2-A.
 Alpha  occ. eigenvalues --  -19.68664 -19.67819 -19.62516 -10.70653 -10.60678
 Alpha  occ. eigenvalues --  -10.58604 -10.58329 -10.54195  -1.24958  -1.16363
 Alpha  occ. eigenvalues --   -1.14367  -0.90121  -0.88174  -0.77224  -0.73714
 Alpha  occ. eigenvalues --   -0.64169  -0.62093  -0.58200  -0.57221  -0.55903
 Alpha  occ. eigenvalues --   -0.52742  -0.51301  -0.49097  -0.46818  -0.45767
 Alpha  occ. eigenvalues --   -0.43627  -0.41964  -0.39687  -0.38056  -0.36722
 Alpha  occ. eigenvalues --   -0.36292
 Alpha virt. eigenvalues --   -0.01750  -0.00858   0.00527   0.00989   0.02023
 Alpha virt. eigenvalues --    0.02387   0.03630   0.04594   0.05562   0.06119
 Alpha virt. eigenvalues --    0.07132   0.07819   0.08678   0.09005   0.10557

  Beta  occ. eigenvalues --  -19.67819 -19.67089 -19.62530 -10.70644 -10.60679
  Beta  occ. eigenvalues --  -10.58561 -10.58266 -10.54194  -1.24958  -1.16388
  Beta  occ. eigenvalues --   -1.06830  -0.89655  -0.88166  -0.77144  -0.73596
  Beta  occ. eigenvalues --   -0.64071  -0.61879  -0.58038  -0.56672  -0.53478
  Beta  occ. eigenvalues --   -0.52638  -0.49423  -0.46936  -0.45743  -0.42020
  Beta  occ. eigenvalues --   -0.40349  -0.39780  -0.39001  -0.37462  -0.36181
  Beta virt. eigenvalues --   -0.09895  -0.01319  -0.00722   0.00590   0.01307
  Beta virt. eigenvalues --    0.02137   0.02519   0.03668   0.04608   0.05683
  Beta virt. eigenvalues --    0.06205   0.07237   0.08024   0.08691   0.09072

 Mulliken charges and spin densities:
               1          2
     1  C   -1.309187   0.138689
     2  H    0.220440  -0.006951
     3  C    1.150647  -0.068361
     4  C    0.061999   0.042160
     5  O   -0.239523  -0.006959
     6  O   -0.018040   0.000216
     7  C   -0.327140   0.000941
     8  C   -0.421591  -0.002480
     9  H    0.175548   0.001713
    10  H    0.210499  -0.000942
    11  H    0.184954  -0.000083
    12  H    0.136527   0.000818
    13  H    0.158151  -0.000142
    14  O   -0.231605   0.921966
    15  H    0.248320  -0.020584
 Sum of Mulliken charges =  -0.00000   1.00000

 Dipole moment (field-independent basis, Debye):
    X=             -0.3734    Y=             -4.1837    Z=             -0.5164  Tot=              4.2320
 Quadrupole moment (field-independent basis, Debye-Ang):
   XX=            -38.9798   YY=            -52.5246   ZZ=            -46.7238
   XY=             -4.3985   XZ=             -0.2219   YZ=              4.2794

  Exact polarizability:  72.006  -0.597  73.638  -4.406   4.866  66.789
 Approx polarizability:  76.689  -1.789  94.087  -8.757   8.261  76.249

                      1                      2                      3
                      A                      A                      A
 Frequencies --     58.5827                84.7096                99.6410
 Red. masses --      7.2631                 3.6133                 5.7499
 Frc consts  --      0.0147                 0.0153                 0.0336
 IR Inten    --      4.0076                 1.9553                 2.4615

                      4                      5                      6
                      A                      A                      A
 Frequencies --    114.8341               172.1720               203.9704
 Red. masses --      4.0272                 2.6001                 3.7979
 Frc consts  --      0.0313                 0.0454                 0.0931
 IR Inten    --      3.7050                 9.1818                 5.5754

                      7                      8                      9
                      A                      A                      A
 Frequencies --    219.3267               230.0052               287.8831
 Red. masses --      1.4753                 1.2577                 3.1240
 Frc consts  --      0.0418                 0.0392                 0.1525
 IR Inten    --     54.0543                 3.4281                16.7198

                     10                     11                     12
                      A                      A                      A
 Frequencies --    356.0012               408.8756               535.8904
 Red. masses --      2.9084                 3.6660                 1.0857
 Frc consts  --      0.2172                 0.3611                 0.1837
 IR Inten    --      1.8430                 6.4164               118.8945

                     13                     14                     15
                      A                      A                      A
 Frequencies --    558.6722               631.6520               725.4596
 Red. masses --      4.7718                 5.2148                 1.3388
 Frc consts  --      0.8775                 1.2259                 0.4151
 IR Inten    --     20.5746                 1.5355                35.1471

                     16                     17                     18
                      A                      A                      A
 Frequencies --    755.9310               759.6569               764.1203
 Red. masses --      3.4286                 2.2065                 3.1000
 Frc consts  --      1.1543                 0.7502                 1.0664
 IR Inten    --      3.3026                 1.0919                70.3905

                     19                     20                     21
                      A                      A                      A
 Frequencies --    809.8464               951.5321              1106.3555
 Red. masses --      1.1554                 2.2623                 3.3016
 Frc consts  --      0.4465                 1.2068                 2.3810
 IR Inten    --      3.5062                11.7547                42.6024

                     22                     23                     24
                      A                      A                      A
 Frequencies --   1132.7031              1183.0547              1270.7458
 Red. masses --      2.6506                 1.8661                 2.7312
 Frc consts  --      2.0037                 1.5389                 2.5985
 IR Inten    --     52.9199                43.2043               347.1257

                     25                     26                     27
                      A                      A                      A
 Frequencies --   1354.6865              1406.5375              1433.2171
 Red. masses --      1.2969                 1.2786                 1.3766
 Frc consts  --      1.4022                 1.4904                 1.6660
 IR Inten    --    116.8357                31.6558                18.4353

                     28                     29                     30
                      A                      A                      A
 Frequencies --   1493.1909              1503.6662              1532.3905
 Red. masses --      1.0410                 1.0469                 1.0989
 Frc consts  --      1.3675                 1.3946                 1.5203
 IR Inten    --      3.8921                 1.5934                12.4192

                     31                     32                     33
                      A                      A                      A
 Frequencies --   1860.6505              2224.9980              3071.5287
 Red. masses --     12.9459                 5.8115                 1.0354
 Frc consts  --     26.4065                16.9511                 5.7552
 IR Inten    --    500.9124                49.9173                 8.6285

                     34                     35                     36
                      A                      A                      A
 Frequencies --   3111.3074              3145.5299              3149.9909
 Red. masses --      1.0606                 1.1038                 1.1016
 Frc consts  --      6.0493                 6.4345                 6.4402
 IR Inten    --     10.0457                 5.3490                12.8451

                     37                     38                     39
                      A                      A                      A
 Frequencies --   3169.8065              3483.1315              3791.3705
 Red. masses --      1.1079                 1.1662                 1.0673
 Frc consts  --      6.5585                 8.3362                 9.0390
 IR Inten    --     17.1484                65.8576                39.8338

 - Thermochemistry -
 -------------------
 Temperature   298.150 Kelvin.  Pressure   1.00000 Atm.
 Atom     1 has atomic number  6 and mass  12.00000

 Molecular mass:   115.03952 amu.
 Principal axes and moments of inertia in atomic units:
                           1         2         3
     Eigenvalues --   784.981061100.293501290.62887
           X            0.99988   0.00992   0.01186
           Y           -0.01061   0.99818   0.05932
           Z           -0.01125  -0.05944   0.99817
 This molecule is an asymmetric top.
 Rotational symmetry number  1.
 Warning -- assumption of classical behavior for rotation
           may cause significant error
 Rotational temperatures (Kelvin)      0.11034     0.07872     0.06711
 Rotational constants (GHZ):           2.29909     1.64024     1.39834
 Zero-point vibrational energy     294004.0 (Joules/Mol)
                                   70.26863 (Kcal/Mol)
 Warning -- explicit consideration of  13 degrees of freedom as
           vibrations may cause significant error
 Vibrational temperatures:     84.29   121.88   143.36   165.22   247.72
          (Kelvin)            293.47   315.56   330.93   414.20   512.21
                              588.28   771.03   803.80   908.81  1043.77
                             1087.62  1092.98  1099.40  1165.19  1369.04
                             1591.80  1629.71  1702.15  1828.32  1949.09
                             2023.69  2062.08  2148.37  2163.44  2204.77
                             2677.06  3201.28  4419.24  4476.48  4525.72
                             4532.13  4560.64  5011.45  5454.94

 Zero-point correction=                           0.111980 (Hartree/Particle)
 Thermal correction to Energy=                    0.122270
 Thermal correction to Enthalpy=                  0.123214
 Thermal correction to Gibbs Free Energy=         0.075724
 Sum of electronic and zero-point Energies=           -419.3503608
 Sum of electronic and thermal Energies=              -420.079756
 Sum of electronic and thermal Enthalpies=            -420.078812
 Sum of electronic and thermal Free Energies=         -420.126303

                     E (Thermal)             CV                S
                      KCal/Mol        Cal/Mol-Kelvin    Cal/Mol-Kelvin
 Total                   76.726             34.545             99.952
 Electronic               0.000              0.000              1.377
 Translational            0.889              2.981             40.136
 Rotational               0.889              2.981             28.501
 Vibrational             74.948             28.583             29.938
 Vibration     1          0.596              1.974              4.504
 Vibration     2          0.601              1.960              3.779
 Vibration     3          0.604              1.949              3.461
 Vibration     4          0.608              1.937              3.186
 Vibration     5          0.626              1.877              2.412
 Vibration     6          0.640              1.834              2.097
 Vibration     7          0.647              1.812              1.965
 Vibration     8          0.652              1.795              1.879
 Vibration     9          0.685              1.696              1.486
 Vibration    10          0.732              1.563              1.140
 Vibration    11          0.773              1.451              0.931
 Vibration    12          0.891              1.171              0.574
 Vibration    13          0.914              1.121              0.526

 Normal termination of Gaussian 16 at Fri Mar 28 17:57:24 2025.
