 Gaussian 16, Revision A.03,
 Gaussian 16:  ES64L-G16RevA.03 25-Dec-2016

 --------------------------
 # freq 6-311++g(d,p) m062x
 --------------------------

 -------------------
 Title Card Required
 -------------------
 Symbolic Z-matrix:
 Charge =  0 Multiplicity = 2

                         Standard orientation:
 ---------------------------------------------------------------------
 Center     Atomic      Atomic             Coordinates (Angstroms)
 Number     Number       Type             X           Y           Z
 ---------------------------------------------------------------------
      1          6           0        1.352211   -1.375670   -1.140773
      2          1           0        1.717446   -2.251231   -1.626714
      3          6           0        0.965167   -0.427839   -0.475320
      4          6           0        0.412897    0.924248   -0.202898
      5          8           0        1.027871    1.903218   -0.499814
      6          8           0       -0.772692    0.978846    0.390509
      7          6           0       -1.520031   -0.220067    0.674712
      8          6           0       -2.364898   -0.618329   -0.519033
      9          1           0       -0.839066   -1.011736    0.988483
     10          1           0       -2.141365    0.054446    1.525667
     11          1           0       -3.017829    0.203963   -0.814471
     12          1           0       -1.737836   -0.891360   -1.370096
     13          1           0       -2.983561   -1.480253   -0.260831
     14          8           0        1.437165   -0.836824    1.386761
     15          1           0        2.391384   -0.679809    1.318187
 ---------------------------------------------------------------------

 SCF Done:  E(UM062X) =  -420.196943959     A.U. after   24 cycles

 The electronic state is 2-A.
 Alpha  occ. eigenvalues --  -19.68024 -19.66135 -19.62761 -10.70840 -10.61121
 Alpha  occ. eigenvalues --  -10.60759 -10.59927 -10.54369  -1.25234  -1.16634
 Alpha  occ. eigenvalues --   -1.12314  -0.91292  -0.88357  -0.77424  -0.74174
 Alpha  occ. eigenvalues --   -0.64804  -0.62560  -0.58344  -0.57746  -0.54459
 Alpha  occ. eigenvalues --   -0.52884  -0.50864  -0.48693  -0.46771  -0.45917
 Alpha  occ. eigenvalues --   -0.42108  -0.41489  -0.40251  -0.37929  -0.36835
 Alpha  occ. eigenvalues --   -0.34252
 Alpha virt. eigenvalues --   -0.01363  -0.00748   0.00510   0.00969   0.01810
 Alpha virt. eigenvalues --    0.02382   0.03364   0.04467   0.05407   0.06017
 Alpha virt. eigenvalues --    0.07002   0.07808   0.08317   0.09014   0.10554

  Beta  occ. eigenvalues --  -19.68018 -19.64854 -19.62787 -10.70810 -10.61200
  Beta  occ. eigenvalues --  -10.60762 -10.59612 -10.54368  -1.25221  -1.16674
  Beta  occ. eigenvalues --   -1.07401  -0.89957  -0.88337  -0.77143  -0.73787
  Beta  occ. eigenvalues --   -0.64412  -0.62130  -0.58280  -0.57195  -0.53031
  Beta  occ. eigenvalues --   -0.52267  -0.49410  -0.47399  -0.45868  -0.42108
  Beta  occ. eigenvalues --   -0.41094  -0.39685  -0.38603  -0.37811  -0.36060
  Beta virt. eigenvalues --   -0.10935  -0.00896  -0.00177   0.00650   0.01293
  Beta virt. eigenvalues --    0.01994   0.02631   0.03428   0.04381   0.05547
  Beta virt. eigenvalues --    0.06086   0.07100   0.07842   0.08248   0.08993

 Mulliken charges and spin densities:
               1          2
     1  C   -0.218278   0.492458
     2  H    0.245049  -0.022960
     3  C    0.064696  -0.169695
     4  C    0.037157   0.042321
     5  O   -0.238937  -0.012010
     6  O   -0.009783   0.001933
     7  C   -0.353746  -0.001054
     8  C   -0.399585  -0.002605
     9  H    0.192207   0.005768
    10  H    0.213292  -0.001132
    11  H    0.186417  -0.000095
    12  H    0.131323   0.003553
    13  H    0.159528  -0.000648
    14  O   -0.253159   0.679542
    15  H    0.243819  -0.015377
 Sum of Mulliken charges =  -0.00000   1.00000

 Dipole moment (field-independent basis, Debye):
    X=             -0.6243    Y=             -4.1611    Z=             -1.0160  Tot=              4.3286
 Quadrupole moment (field-independent basis, Debye-Ang):
   XX=            -39.6162   YY=            -52.0190   ZZ=            -47.0402
   XY=             -4.3050   XZ=             -1.0521   YZ=              5.2076

  Exact polarizability:  72.373  -0.345  72.303  -1.507   4.459  78.647
 Approx polarizability:  76.426  -0.224  90.333  -6.666   7.998  91.211

 ******    1 imaginary frequencies (negative Signs) ******

                      1                      2                      3
                      A                      A                      A
 Frequencies --   -622.9339                84.2967               102.4068
 Red. masses --     12.2774                 3.7324                 4.3832
 Frc consts  --      2.8070                 0.0156                 0.0271
 IR Inten    --     57.0856                 2.7632                 1.6010

                      4                      5                      6
                      A                      A                      A
 Frequencies --    102.9521               162.2452               183.3258
 Red. masses --      4.0015                 5.3145                 2.3206
 Frc consts  --      0.0250                 0.0824                 0.0460
 IR Inten    --      2.6857                25.4859                18.6294

                      7                      8                      9
                      A                      A                      A
 Frequencies --    206.6842               234.0096               259.5521
 Red. masses --      1.3414                 1.3552                 2.7183
 Frc consts  --      0.0338                 0.0437                 0.1079
 IR Inten    --     34.4028                 0.9244                11.8269

                     10                     11                     12
                      A                      A                      A
 Frequencies --    370.0504               412.3766               555.6237
 Red. masses --      2.9482                 3.6058                 4.9287
 Frc consts  --      0.2379                 0.3613                 0.8965
 IR Inten    --      1.7014                 5.5970                20.3284

                     13                     14                     15
                      A                      A                      A
 Frequencies --    624.2589               638.7854               724.2940
 Red. masses --      4.1610                 1.3702                 1.3433
 Frc consts  --      0.9554                 0.3294                 0.4152
 IR Inten    --     13.2308                23.6930                33.1466

                     16                     17                     18
                      A                      A                      A
 Frequencies --    744.5828               753.5058               806.1479
 Red. masses --      6.1898                 5.8908                 1.1197
 Frc consts  --      2.0219                 1.9706                 0.4287
 IR Inten    --     32.4867                 3.0228                10.8104

                     19                     20                     21
                      A                      A                      A
 Frequencies --    820.3711               950.3747              1101.4861
 Red. masses --      1.2059                 2.2625                 3.5583
 Frc consts  --      0.4782                 1.2040                 2.5436
 IR Inten    --     80.3617                14.7110                47.8703

                     22                     23                     24
                      A                      A                      A
 Frequencies --   1129.7071              1181.6763              1267.5034
 Red. masses --      2.4451                 1.9102                 2.7369
 Frc consts  --      1.8385                 1.5716                 2.5906
 IR Inten    --     46.1411                50.7889               338.1788

                     25                     26                     27
                      A                      A                      A
 Frequencies --   1353.9897              1405.0393              1432.5561
 Red. masses --      1.2978                 1.2742                 1.3754
 Frc consts  --      1.4019                 1.4820                 1.6631
 IR Inten    --    110.1405                30.4475                17.6485

                     28                     29                     30
                      A                      A                      A
 Frequencies --   1492.3156              1502.2435              1536.4245
 Red. masses --      1.0403                 1.0469                 1.0958
 Frc consts  --      1.3650                 1.3920                 1.5240
 IR Inten    --      4.6862                 1.8132                 9.8912

                     31                     32                     33
                      A                      A                      A
 Frequencies --   1869.2919              2064.1133              3070.4819
 Red. masses --     12.8890                 6.4291                 1.0354
 Frc consts  --     26.5352                16.1386                 5.7515
 IR Inten    --    519.9825                81.7815                 8.2575

                     34                     35                     36
                      A                      A                      A
 Frequencies --   3114.5396              3143.6583              3151.3873
 Red. masses --      1.0608                 1.1028                 1.1022
 Frc consts  --      6.0629                 6.4210                 6.4491
 IR Inten    --      9.2766                 9.3312                11.3267

                     37                     38                     39
                      A                      A                      A
 Frequencies --   3171.0625              3467.6930              3819.9805
 Red. masses --      1.1082                 1.1446                 1.0677
 Frc consts  --      6.5658                 8.1092                 9.1792
 IR Inten    --     13.9673                70.3564                61.6366

 - Thermochemistry -
 -------------------
 Temperature   298.150 Kelvin.  Pressure   1.00000 Atm.
 Atom     1 has atomic number  6 and mass  12.00000

 Molecular mass:   115.03952 amu.
 Principal axes and moments of inertia in atomic units:
                           1         2         3
     Eigenvalues --   747.040751068.799051281.00892
           X            0.99987   0.00912   0.01292
           Y           -0.00982   0.99842   0.05526
           Z           -0.01240  -0.05538   0.99839
 This molecule is an asymmetric top.
 Rotational symmetry number  1.
 Warning -- assumption of classical behavior for rotation
           may cause significant error
 Rotational temperatures (Kelvin)      0.11594     0.08104     0.06761
 Rotational constants (GHZ):           2.41585     1.68857     1.40884
    1 imaginary frequencies ignored.
 Zero-point vibrational energy     293150.8 (Joules/Mol)
                                   70.06473 (Kcal/Mol)
 Warning -- explicit consideration of  11 degrees of freedom as
           vibrations may cause significant error
 Vibrational temperatures:    121.28   147.34   148.13   233.43   263.76
          (Kelvin)            297.37   336.69   373.44   532.42   593.32
                              799.42   898.17   919.07  1042.10  1071.29
                             1084.13  1159.87  1180.33  1367.38  1584.79
                             1625.40  1700.17  1823.65  1948.09  2021.54
                             2061.13  2147.11  2161.39  2210.57  2689.49
                             2969.80  4417.74  4481.13  4523.02  4534.14
                             4562.45  4989.24  5496.10

 Zero-point correction=                           0.111655 (Hartree/Particle)
 Thermal correction to Energy=                    0.121167
 Thermal correction to Enthalpy=                  0.122111
 Thermal correction to Gibbs Free Energy=         0.076578
 Sum of electronic and zero-point Energies=           -419.3468966
 Sum of electronic and thermal Energies=              -420.075777
 Sum of electronic and thermal Enthalpies=            -420.074833
 Sum of electronic and thermal Free Energies=         -420.120366

                     E (Thermal)             CV                S
                      KCal/Mol        Cal/Mol-Kelvin    Cal/Mol-Kelvin
 Total                   76.033             32.407             95.832
 Electronic               0.000              0.000              1.377
 Translational            0.889              2.981             40.136
 Rotational               0.889              2.981             28.416
 Vibrational             74.256             26.446             25.903
 Vibration     1          0.601              1.960              3.788
 Vibration     2          0.604              1.947              3.408
 Vibration     3          0.605              1.947              3.398
 Vibration     4          0.622              1.889              2.523
 Vibration     5          0.631              1.863              2.294
 Vibration     6          0.641              1.830              2.073
 Vibration     7          0.654              1.789              1.848
 Vibration     8          0.668              1.747              1.665
 Vibration     9          0.742              1.534              1.080
 Vibration    10          0.776              1.443              0.918
 Vibration    11          0.911              1.127              0.533

 Normal termination of Gaussian 16 at Fri Mar 28 15:48:24 2025.
