 Gaussian 16, Revision A.03,
 Gaussian 16:  ES64L-G16RevA.03 25-Dec-2016

 --------------------------
 # freq 6-311++g(d,p) m062x
 --------------------------

 -------------------
 Title Card Required
 -------------------
 Symbolic Z-matrix:
 Charge =  0 Multiplicity = 2

                         Standard orientation:
 ---------------------------------------------------------------------
 Center     Atomic      Atomic             Coordinates (Angstroms)
 Number     Number       Type             X           Y           Z
 ---------------------------------------------------------------------
      1          6           0        1.345399   -1.344762   -1.204818
      2          1           0        1.736859   -2.223155   -1.663341
      3          6           0        0.897971   -0.365778   -0.667422
      4          6           0        0.393596    0.938885   -0.208602
      5          8           0        1.009981    1.935705   -0.443381
      6          8           0       -0.767452    0.959806    0.437828
      7          6           0       -1.503679   -0.252644    0.687680
      8          6           0       -2.371166   -0.615970   -0.501247
      9          1           0       -0.810636   -1.051145    0.955330
     10          1           0       -2.109095   -0.014521    1.560884
     11          1           0       -3.035014    0.211564   -0.755034
     12          1           0       -1.761730   -0.858062   -1.373616
     13          1           0       -2.979960   -1.489250   -0.257892
     14          8           0        1.501342   -0.899945    1.457665
     15          1           0        2.435883   -0.698344    1.283231
 ---------------------------------------------------------------------

 SCF Done:  E(UM062X) =  -420.201443223     A.U. after   27 cycles

 The electronic state is 2-A.
 Alpha  occ. eigenvalues --  -19.68527 -19.67824 -19.62513 -10.70650 -10.60678
 Alpha  occ. eigenvalues --  -10.58668 -10.58388 -10.54197  -1.24963  -1.16369
 Alpha  occ. eigenvalues --   -1.14280  -0.90174  -0.88179  -0.77223  -0.73737
 Alpha  occ. eigenvalues --   -0.64193  -0.62117  -0.58206  -0.57259  -0.55811
 Alpha  occ. eigenvalues --   -0.52739  -0.51301  -0.49059  -0.46821  -0.45769
 Alpha  occ. eigenvalues --   -0.43521  -0.41965  -0.39704  -0.38017  -0.36642
 Alpha  occ. eigenvalues --   -0.36268
 Alpha virt. eigenvalues --   -0.01697  -0.00852   0.00529   0.00987   0.02022
 Alpha virt. eigenvalues --    0.02391   0.03624   0.04594   0.05553   0.06118
 Alpha virt. eigenvalues --    0.07124   0.07813   0.08653   0.09019   0.10580

  Beta  occ. eigenvalues --  -19.67823 -19.66960 -19.62527 -10.70640 -10.60679
  Beta  occ. eigenvalues --  -10.58630 -10.58313 -10.54197  -1.24963  -1.16396
  Beta  occ. eigenvalues --   -1.06850  -0.89666  -0.88171  -0.77135  -0.73609
  Beta  occ. eigenvalues --   -0.64085  -0.61885  -0.58046  -0.56702  -0.53423
  Beta  occ. eigenvalues --   -0.52625  -0.49411  -0.46961  -0.45743  -0.42017
  Beta  occ. eigenvalues --   -0.40340  -0.39746  -0.39023  -0.37476  -0.36167
  Beta virt. eigenvalues --   -0.09905  -0.01226  -0.00711   0.00593   0.01301
  Beta virt. eigenvalues --    0.02138   0.02526   0.03663   0.04601   0.05675
  Beta virt. eigenvalues --    0.06203   0.07231   0.08013   0.08648   0.09080

 Mulliken charges and spin densities:
               1          2
     1  C   -1.276008   0.143050
     2  H    0.222335  -0.007872
     3  C    1.062460  -0.066024
     4  C    0.111299   0.045635
     5  O   -0.238704  -0.007447
     6  O   -0.016958   0.000386
     7  C   -0.329583   0.000785
     8  C   -0.419681  -0.002539
     9  H    0.176561   0.002176
    10  H    0.210941  -0.001015
    11  H    0.184795  -0.000094
    12  H    0.136720   0.001005
    13  H    0.158129  -0.000163
    14  O   -0.230166   0.912589
    15  H    0.247860  -0.020470
 Sum of Mulliken charges =  -0.00000   1.00000

 Dipole moment (field-independent basis, Debye):
    X=             -0.3815    Y=             -4.1921    Z=             -0.5156  Tot=              4.2409
 Quadrupole moment (field-independent basis, Debye-Ang):
   XX=            -39.0100   YY=            -52.4740   ZZ=            -46.7096
   XY=             -4.4175   XZ=             -0.2276   YZ=              4.3387

  Exact polarizability:  72.052  -0.608  73.558  -4.156   4.820  67.697
 Approx polarizability:  76.670  -1.716  93.869  -8.654   8.287  77.223

                      1                      2                      3
                      A                      A                      A
 Frequencies --     58.0413                84.2888               100.5492
 Red. masses --      7.1308                 3.5264                 5.7304
 Frc consts  --      0.0142                 0.0148                 0.0341
 IR Inten    --      4.1561                 1.7228                 2.1587

                      4                      5                      6
                      A                      A                      A
 Frequencies --    114.6630               171.5733               204.9521
 Red. masses --      4.1989                 2.6708                 4.8788
 Frc consts  --      0.0325                 0.0463                 0.1207
 IR Inten    --      4.1708                 8.7175                 1.9332

                      7                      8                      9
                      A                      A                      A
 Frequencies --    215.9873               229.4050               278.5441
 Red. masses --      1.5043                 1.2387                 2.5712
 Frc consts  --      0.0413                 0.0384                 0.1175
 IR Inten    --     55.0423                 0.6816                23.0418

                     10                     11                     12
                      A                      A                      A
 Frequencies --    356.1918               409.1765               549.6356
 Red. masses --      2.8988                 3.6564                 1.1999
 Frc consts  --      0.2167                 0.3607                 0.2136
 IR Inten    --      1.7903                 6.3619                97.9665

                     13                     14                     15
                      A                      A                      A
 Frequencies --    559.6425               631.7725               724.2003
 Red. masses --      3.4484                 5.0395                 1.3413
 Frc consts  --      0.6363                 1.1851                 0.4145
 IR Inten    --     37.1044                 1.6901                34.8752

                     16                     17                     18
                      A                      A                      A
 Frequencies --    754.9273               758.7008               762.7446
 Red. masses --      2.1722                 2.8703                 3.8546
 Frc consts  --      0.7294                 0.9735                 1.3213
 IR Inten    --      7.0739                 0.3936                68.3652

                     19                     20                     21
                      A                      A                      A
 Frequencies --    809.4930               951.6119              1106.1417
 Red. masses --      1.1563                 2.2615                 3.3098
 Frc consts  --      0.4464                 1.2066                 2.3860
 IR Inten    --      3.4803                11.8116                42.5019

                     22                     23                     24
                      A                      A                      A
 Frequencies --   1132.6553              1182.9312              1270.7866
 Red. masses --      2.6457                 1.8669                 2.7236
 Frc consts  --      1.9998                 1.5392                 2.5914
 IR Inten    --     52.9274                43.4680               346.5410

                     25                     26                     27
                      A                      A                      A
 Frequencies --   1354.6368              1406.3374              1433.0524
 Red. masses --      1.2985                 1.2789                 1.3770
 Frc consts  --      1.4039                 1.4902                 1.6661
 IR Inten    --    116.9640                31.8441                18.4290

                     28                     29                     30
                      A                      A                      A
 Frequencies --   1493.1166              1503.5662              1532.5632
 Red. masses --      1.0410                 1.0468                 1.0988
 Frc consts  --      1.3673                 1.3943                 1.5206
 IR Inten    --      3.9420                 1.6117                12.3019

                     31                     32                     33
                      A                      A                      A
 Frequencies --   1861.2857              2221.4938              3071.5196
 Red. masses --     12.9462                 5.8260                 1.0354
 Frc consts  --     26.4253                16.9399                 5.7552
 IR Inten    --    502.2896                51.2252                 8.6298

                     34                     35                     36
                      A                      A                      A
 Frequencies --   3111.6179              3145.4817              3150.1328
 Red. masses --      1.0606                 1.1037                 1.1017
 Frc consts  --      6.0502                 6.4338                 6.4413
 IR Inten    --     10.0759                 5.7059                12.6741

                     37                     38                     39
                      A                      A                      A
 Frequencies --   3169.9333              3483.2150              3794.2974
 Red. masses --      1.1079                 1.1656                 1.0673
 Frc consts  --      6.5593                 8.3325                 9.0531
 IR Inten    --     16.8826                66.0445                41.0481

 - Thermochemistry -
 -------------------
 Temperature   298.150 Kelvin.  Pressure   1.00000 Atm.
 Atom     1 has atomic number  6 and mass  12.00000

 Molecular mass:   115.03952 amu.
 Principal axes and moments of inertia in atomic units:
                           1         2         3
     Eigenvalues --   780.717691096.933901289.62125
           X            0.99988   0.00976   0.01201
           Y           -0.01045   0.99821   0.05881
           Z           -0.01142  -0.05892   0.99820
 This molecule is an asymmetric top.
 Rotational symmetry number  1.
 Warning -- assumption of classical behavior for rotation
           may cause significant error
 Rotational temperatures (Kelvin)      0.11094     0.07896     0.06716
 Rotational constants (GHZ):           2.31164     1.64526     1.39944
 Zero-point vibrational energy     293987.5 (Joules/Mol)
                                   70.26469 (Kcal/Mol)
 Warning -- explicit consideration of  13 degrees of freedom as
           vibrations may cause significant error
 Vibrational temperatures:     83.51   121.27   144.67   164.97   246.86
          (Kelvin)            294.88   310.76   330.06   400.76   512.48
                              588.71   790.80   805.20   908.98  1041.96
                             1086.17  1091.60  1097.42  1164.68  1369.16
                             1591.49  1629.64  1701.97  1828.38  1949.02
                             2023.41  2061.84  2148.26  2163.30  2205.02
                             2677.98  3196.23  4419.23  4476.92  4525.65
                             4532.34  4560.83  5011.57  5459.15

 Zero-point correction=                           0.111974 (Hartree/Particle)
 Thermal correction to Energy=                    0.122273
 Thermal correction to Enthalpy=                  0.123218
 Thermal correction to Gibbs Free Energy=         0.075697
 Sum of electronic and zero-point Energies=           -419.3498681
 Sum of electronic and thermal Energies=              -420.079170
 Sum of electronic and thermal Enthalpies=            -420.078226
 Sum of electronic and thermal Free Energies=         -420.125746

                     E (Thermal)             CV                S
                      KCal/Mol        Cal/Mol-Kelvin    Cal/Mol-Kelvin
 Total                   76.728             34.543            100.015
 Electronic               0.000              0.000              1.377
 Translational            0.889              2.981             40.136
 Rotational               0.889              2.981             28.492
 Vibrational             74.950             28.581             30.009
 Vibration     1          0.596              1.974              4.523
 Vibration     2          0.601              1.960              3.788
 Vibration     3          0.604              1.949              3.444
 Vibration     4          0.608              1.937              3.188
 Vibration     5          0.626              1.877              2.418
 Vibration     6          0.640              1.833              2.088
 Vibration     7          0.645              1.817              1.992
 Vibration     8          0.652              1.796              1.884
 Vibration     9          0.679              1.713              1.543
 Vibration    10          0.732              1.563              1.139
 Vibration    11          0.774              1.450              0.930
 Vibration    12          0.905              1.140              0.545
 Vibration    13          0.915              1.119              0.525

 Normal termination of Gaussian 16 at Fri Mar 28 17:44:21 2025.
