 Gaussian 16, Revision A.03,
 Gaussian 16:  ES64L-G16RevA.03 25-Dec-2016

 --------------------------
 # freq 6-311++g(d,p) m062x
 --------------------------

 -------------------
 Title Card Required
 -------------------
 Symbolic Z-matrix:
 Charge =  0 Multiplicity = 2

                         Standard orientation:
 ---------------------------------------------------------------------
 Center     Atomic      Atomic             Coordinates (Angstroms)
 Number     Number       Type             X           Y           Z
 ---------------------------------------------------------------------
      1          6           0        1.352153   -1.369777   -1.151003
      2          1           0        1.720876   -2.244207   -1.635767
      3          6           0        0.951140   -0.414334   -0.519480
      4          6           0        0.410018    0.926613   -0.201765
      5          8           0        1.024097    1.909400   -0.489307
      6          8           0       -0.772325    0.975310    0.399632
      7          6           0       -1.517394   -0.226274    0.677291
      8          6           0       -2.365852   -0.618221   -0.516049
      9          1           0       -0.834017   -1.019366    0.982208
     10          1           0       -2.136246    0.041351    1.532293
     11          1           0       -3.020966    0.205016   -0.803968
     12          1           0       -1.741456   -0.885244   -1.370786
     13          1           0       -2.982562   -1.482467   -0.260871
     14          8           0        1.449726   -0.849290    1.403292
     15          1           0        2.401999   -0.686481    1.313991
 ---------------------------------------------------------------------

 SCF Done:  E(UM062X) =  -420.196911106     A.U. after   25 cycles

 The electronic state is 2-A.
 Alpha  occ. eigenvalues --  -19.67955 -19.66852 -19.62656 -10.70775 -10.60727
 Alpha  occ. eigenvalues --  -10.60160 -10.59419 -10.54305  -1.25145  -1.16544
 Alpha  occ. eigenvalues --   -1.12940  -0.90944  -0.88298  -0.77340  -0.74035
 Alpha  occ. eigenvalues --   -0.64593  -0.62446  -0.58290  -0.57607  -0.54810
 Alpha  occ. eigenvalues --   -0.52824  -0.51032  -0.48766  -0.46806  -0.45862
 Alpha  occ. eigenvalues --   -0.42182  -0.41985  -0.40066  -0.37901  -0.36690
 Alpha  occ. eigenvalues --   -0.35019
 Alpha virt. eigenvalues --   -0.01420  -0.00776   0.00524   0.00976   0.01897
 Alpha virt. eigenvalues --    0.02387   0.03462   0.04511   0.05447   0.06061
 Alpha virt. eigenvalues --    0.07037   0.07809   0.08386   0.09030   0.10608

  Beta  occ. eigenvalues --  -19.67951 -19.65442 -19.62680 -10.70752 -10.60730
  Beta  occ. eigenvalues --  -10.60205 -10.59181 -10.54304  -1.25137  -1.16584
  Beta  occ. eigenvalues --   -1.07167  -0.89892  -0.88282  -0.77133  -0.73748
  Beta  occ. eigenvalues --   -0.64306  -0.62056  -0.58201  -0.57054  -0.53032
  Beta  occ. eigenvalues --   -0.52381  -0.49394  -0.47267  -0.45820  -0.42065
  Beta  occ. eigenvalues --   -0.40718  -0.39574  -0.38797  -0.37700  -0.36122
  Beta virt. eigenvalues --   -0.10696  -0.00876  -0.00308   0.00630   0.01275
  Beta virt. eigenvalues --    0.02054   0.02598   0.03515   0.04453   0.05583
  Beta virt. eigenvalues --    0.06131   0.07142   0.07891   0.08336   0.09036

 Mulliken charges and spin densities:
               1          2
     1  C   -0.446236   0.351911
     2  H    0.240704  -0.018580
     3  C    0.234629  -0.120276
     4  C    0.088890   0.042763
     5  O   -0.238219  -0.011317
     6  O   -0.010232   0.001612
     7  C   -0.349104  -0.000277
     8  C   -0.403938  -0.002683
     9  H    0.188012   0.005164
    10  H    0.212926  -0.001170
    11  H    0.185876  -0.000119
    12  H    0.133761   0.002938
    13  H    0.158855  -0.000488
    14  O   -0.239498   0.768753
    15  H    0.243574  -0.018231
 Sum of Mulliken charges =  -0.00000   1.00000

 Dipole moment (field-independent basis, Debye):
    X=             -0.5507    Y=             -4.1768    Z=             -0.8244  Tot=              4.2928
 Quadrupole moment (field-independent basis, Debye-Ang):
   XX=            -39.4583   YY=            -52.1247   ZZ=            -46.8369
   XY=             -4.3504   XZ=             -0.7524   YZ=              4.9889

  Exact polarizability:  72.428  -0.450  72.663  -1.595   4.550  78.044
 Approx polarizability:  76.458  -0.659  91.447  -7.245   8.414  88.100

 ******    1 imaginary frequencies (negative Signs) ******

                      1                      2                      3
                      A                      A                      A
 Frequencies --   -475.6685                77.5528                90.7558
 Red. masses --     12.0051                 4.9675                 3.5022
 Frc consts  --      1.6004                 0.0176                 0.0170
 IR Inten    --     62.0961                 5.6624                 0.9589

                      4                      5                      6
                      A                      A                      A
 Frequencies --    103.1412               139.3247               176.1618
 Red. masses --      4.1137                 7.0042                 2.2389
 Frc consts  --      0.0258                 0.0801                 0.0409
 IR Inten    --      0.3873                16.7124                22.7355

                      7                      8                      9
                      A                      A                      A
 Frequencies --    202.5381               231.1613               249.1368
 Red. masses --      1.4183                 1.3241                 2.3718
 Frc consts  --      0.0343                 0.0417                 0.0867
 IR Inten    --     33.1578                 0.3765                17.2257

                     10                     11                     12
                      A                      A                      A
 Frequencies --    364.4502               411.3175               556.4172
 Red. masses --      2.9162                 3.6136                 5.0845
 Frc consts  --      0.2282                 0.3602                 0.9275
 IR Inten    --      1.7374                 5.7968                18.3954

                     13                     14                     15
                      A                      A                      A
 Frequencies --    622.4576               685.7638               722.3991
 Red. masses --      4.2462                 1.3368                 1.2965
 Frc consts  --      0.9693                 0.3704                 0.3986
 IR Inten    --     14.3760                26.4297                35.3377

                     16                     17                     18
                      A                      A                      A
 Frequencies --    741.8571               754.7370               757.9554
 Red. masses --      1.7054                 3.3787                 3.5439
 Frc consts  --      0.5530                 1.1339                 1.1996
 IR Inten    --     23.0329                22.5527                81.5208

                     19                     20                     21
                      A                      A                      A
 Frequencies --    808.2271               951.0543              1102.8228
 Red. masses --      1.1519                 2.2611                 3.4840
 Frc consts  --      0.4433                 1.2050                 2.4965
 IR Inten    --      4.1826                14.0052                45.8149

                     22                     23                     24
                      A                      A                      A
 Frequencies --   1130.6624              1181.8292              1268.6190
 Red. masses --      2.5025                 1.8976                 2.7354
 Frc consts  --      1.8849                 1.5616                 2.5938
 IR Inten    --     48.9113                48.8385               341.8906

                     25                     26                     27
                      A                      A                      A
 Frequencies --   1353.9930              1405.1909              1432.6495
 Red. masses --      1.2973                 1.2757                 1.3768
 Frc consts  --      1.4013                 1.4841                 1.6649
 IR Inten    --    111.2994                31.3622                18.0483

                     28                     29                     30
                      A                      A                      A
 Frequencies --   1492.3685              1502.5528              1534.9285
 Red. masses --      1.0405                 1.0467                 1.0969
 Frc consts  --      1.3653                 1.3923                 1.5226
 IR Inten    --      4.5432                 1.8055                10.4880

                     31                     32                     33
                      A                      A                      A
 Frequencies --   1867.5662              2128.2702              3070.8906
 Red. masses --     12.9258                 6.1784                 1.0354
 Frc consts  --     26.5620                16.4886                 5.7529
 IR Inten    --    518.4703                85.3345                 8.3960

                     34                     35                     36
                      A                      A                      A
 Frequencies --   3114.0356              3144.4120              3151.0909
 Red. masses --      1.0607                 1.1029                 1.1021
 Frc consts  --      6.0602                 6.4250                 6.4478
 IR Inten    --      9.6944                 8.5297                11.4688

                     37                     38                     39
                      A                      A                      A
 Frequencies --   3170.9229              3474.9565              3812.0933
 Red. masses --      1.1082                 1.1526                 1.0675
 Frc consts  --      6.5649                 8.2001                 9.1404
 IR Inten    --     14.4930                68.0445                55.1767

 - Thermochemistry -
 -------------------
 Temperature   298.150 Kelvin.  Pressure   1.00000 Atm.
 Atom     1 has atomic number  6 and mass  12.00000

 Molecular mass:   115.03952 amu.
 Principal axes and moments of inertia in atomic units:
                           1         2         3
     Eigenvalues --   753.643311074.576051282.63509
           X            0.99988   0.00920   0.01281
           Y           -0.00990   0.99838   0.05596
           Z           -0.01227  -0.05608   0.99835
 This molecule is an asymmetric top.
 Rotational symmetry number  1.
 Warning -- assumption of classical behavior for rotation
           may cause significant error
 Rotational temperatures (Kelvin)      0.11493     0.08060     0.06753
 Rotational constants (GHZ):           2.39469     1.67949     1.40706
    1 imaginary frequencies ignored.
 Zero-point vibrational energy     293002.9 (Joules/Mol)
                                   70.02938 (Kcal/Mol)
 Warning -- explicit consideration of  11 degrees of freedom as
           vibrations may cause significant error
 Vibrational temperatures:    111.58   130.58   148.40   200.46   253.46
          (Kelvin)            291.41   332.59   358.45   524.36   591.79
                              800.56   895.58   986.66  1039.37  1067.37
                             1085.90  1090.53  1162.86  1368.36  1586.72
                             1626.77  1700.39  1825.26  1948.09  2021.76
                             2061.26  2147.19  2161.84  2208.42  2687.01
                             3062.11  4418.33  4480.40  4524.11  4533.72
                             4562.25  4999.69  5484.75

 Zero-point correction=                           0.111599 (Hartree/Particle)
 Thermal correction to Energy=                    0.121228
 Thermal correction to Enthalpy=                  0.122172
 Thermal correction to Gibbs Free Energy=         0.076200
 Sum of electronic and zero-point Energies=           -419.3466536
 Sum of electronic and thermal Energies=              -420.075684
 Sum of electronic and thermal Enthalpies=            -420.074739
 Sum of electronic and thermal Free Energies=         -420.120711

                     E (Thermal)             CV                S
                      KCal/Mol        Cal/Mol-Kelvin    Cal/Mol-Kelvin
 Total                   76.071             32.507             96.756
 Electronic               0.000              0.000              1.377
 Translational            0.889              2.981             40.136
 Rotational               0.889              2.981             28.431
 Vibrational             74.294             26.545             26.812
 Vibration     1          0.599              1.964              3.952
 Vibration     2          0.602              1.956              3.644
 Vibration     3          0.605              1.947              3.394
 Vibration     4          0.615              1.914              2.813
 Vibration     5          0.628              1.872              2.369
 Vibration     6          0.639              1.836              2.110
 Vibration     7          0.653              1.793              1.870
 Vibration     8          0.662              1.764              1.737
 Vibration     9          0.738              1.545              1.103
 Vibration    10          0.775              1.446              0.922
 Vibration    11          0.912              1.126              0.531

 Normal termination of Gaussian 16 at Fri Mar 28 16:14:10 2025.
