 Gaussian 16, Revision A.03,
 Gaussian 16:  ES64L-G16RevA.03 25-Dec-2016

 --------------------------
 # ccsd(t)/6-311++g(d,p) sp
 --------------------------

 -------------------
 Title Card Required
 -------------------
 Symbolic Z-matrix:
 Charge =  0 Multiplicity = 2

                         Standard orientation:
 ---------------------------------------------------------------------
 Center     Atomic      Atomic             Coordinates (Angstroms)
 Number     Number       Type             X           Y           Z
 ---------------------------------------------------------------------
      1          6           0        1.351382   -1.360348   -1.170049
      2          1           0        1.728750   -2.235304   -1.646596
      3          6           0        0.929213   -0.393573   -0.584235
      4          6           0        0.404087    0.930957   -0.202790
      5          8           0        1.017858    1.919974   -0.471698
      6          8           0       -0.771317    0.969362    0.414652
      7          6           0       -1.512613   -0.236664    0.681415
      8          6           0       -2.367531   -0.618217   -0.510772
      9          1           0       -0.825337   -1.031904    0.971917
     10          1           0       -2.126933    0.019383    1.543255
     11          1           0       -3.026366    0.206424   -0.785983
     12          1           0       -1.748098   -0.875334   -1.371916
     13          1           0       -2.980855   -1.486290   -0.260362
     14          8           0        1.470234   -0.868760    1.427697
     15          1           0        2.417413   -0.694509    1.303056
 ---------------------------------------------------------------------

 SCF Done:  E(UHF) =  -417.975143814     A.U. after   40 cycles
 E2 =    -0.1261061481D+01 EUMP2 =    -0.41923620529479D+03
 CCSD(T)= -0.41934772111D+03

 The electronic state is 2-A.
 Alpha  occ. eigenvalues --  -20.63855 -20.60728 -20.55014 -11.41406 -11.29891
 Alpha  occ. eigenvalues --  -11.27744 -11.26744 -11.23102  -1.47372  -1.39621
 Alpha  occ. eigenvalues --   -1.37615  -1.08023  -1.04729  -0.91521  -0.87488
 Alpha  occ. eigenvalues --   -0.75751  -0.73261  -0.69955  -0.68607  -0.67490
 Alpha  occ. eigenvalues --   -0.65353  -0.62747  -0.58069  -0.56719  -0.54525
 Alpha  occ. eigenvalues --   -0.54382  -0.50583  -0.47202  -0.45532  -0.43557
 Alpha  occ. eigenvalues --   -0.42681
 Alpha virt. eigenvalues --    0.03218   0.04564   0.05251   0.06545   0.07005
 Alpha virt. eigenvalues --    0.08464   0.09141   0.10255   0.11088   0.11760
 Alpha virt. eigenvalues --    0.13189   0.13924   0.14755   0.14863   0.16200

  Beta  occ. eigenvalues --  -20.60675 -20.59864 -20.55501 -11.41073 -11.29904
  Beta  occ. eigenvalues --  -11.28181 -11.26049 -11.23101  -1.47494  -1.38333
  Beta  occ. eigenvalues --   -1.25030  -1.07492  -1.04726  -0.90909  -0.86888
  Beta  occ. eigenvalues --   -0.75347  -0.72638  -0.69543  -0.66964  -0.64572
  Beta  occ. eigenvalues --   -0.62851  -0.58400  -0.55924  -0.54561  -0.51447
  Beta  occ. eigenvalues --   -0.50698  -0.48407  -0.46530  -0.44105  -0.42843
  Beta virt. eigenvalues --    0.03290   0.04154   0.04563   0.06564   0.06801
  Beta virt. eigenvalues --    0.07929   0.08478   0.09886   0.10888   0.11303
  Beta virt. eigenvalues --    0.11686   0.13772   0.14334   0.14897   0.15276

 Mulliken charges and spin densities:
               1          2
     1  C   -1.302835   0.794104
     2  H    0.251027  -0.058858
     3  C    1.034784  -0.732500
     4  C    0.244106   0.195759
     5  O   -0.325437  -0.101837
     6  O   -0.108445  -0.000446
     7  C   -0.248792  -0.003653
     8  C   -0.405289  -0.003190
     9  H    0.176834   0.003325
    10  H    0.182027  -0.001768
    11  H    0.168255   0.000412
    12  H    0.126573   0.001800
    13  H    0.128951  -0.000520
    14  O   -0.170965   0.944533
    15  H    0.249208  -0.037163
 Sum of Mulliken charges =  -0.00000   1.00000

 Dipole moment (field-independent basis, Debye):
    X=             -0.2587    Y=             -4.6786    Z=             -0.0833  Tot=              4.6865
 Quadrupole moment (field-independent basis, Debye-Ang):
   XX=            -38.9752   YY=            -53.1472   ZZ=            -46.3041
   XY=             -4.9931   XZ=              0.5892   YZ=              4.2420

 Normal termination of Gaussian 16 at Mon May 12 20:18:47 2025.
