 Gaussian 16, Revision A.03,
 Gaussian 16:  ES64L-G16RevA.03 25-Dec-2016

 --------------------------
 # freq 6-311++g(d,p) m062x
 --------------------------

 -------------------
 Title Card Required
 -------------------
 Symbolic Z-matrix:
 Charge =  0 Multiplicity = 2

                         Standard orientation:
 ---------------------------------------------------------------------
 Center     Atomic      Atomic             Coordinates (Angstroms)
 Number     Number       Type             X           Y           Z
 ---------------------------------------------------------------------
      1          6           0        1.345052   -1.383082   -1.121382
      2          1           0        1.721171   -2.286561   -1.550715
      3          6           0        1.024410   -0.481047   -0.279067
      4          6           0        0.424053    0.911845   -0.210085
      5          8           0        1.040653    1.882374   -0.531193
      6          8           0       -0.773655    0.990045    0.361305
      7          6           0       -1.529429   -0.199155    0.664319
      8          6           0       -2.361837   -0.616981   -0.530915
      9          1           0       -0.861403   -0.989444    1.006876
     10          1           0       -2.159325    0.096068    1.502001
     11          1           0       -3.006678    0.202925   -0.849730
     12          1           0       -1.724871   -0.907996   -1.369288
     13          1           0       -2.987653   -1.471303   -0.264869
     14          8           0        1.390460   -0.794613    1.302527
     15          1           0        2.345592   -0.655624    1.327394
 ---------------------------------------------------------------------

 SCF Done:  E(UM062X) =  -420.219646343     A.U. after   19 cycles

 The electronic state is 2-A.
 Alpha  occ. eigenvalues --  -19.67921 -19.65601 -19.62783 -10.70277 -10.64274
 Alpha  occ. eigenvalues --  -10.60776 -10.60329 -10.54398  -1.25092  -1.16493
 Alpha  occ. eigenvalues --   -1.13308  -0.90948  -0.88337  -0.77144  -0.74146
 Alpha  occ. eigenvalues --   -0.64736  -0.61901  -0.59542  -0.58211  -0.55124
 Alpha  occ. eigenvalues --   -0.52797  -0.50868  -0.48559  -0.46863  -0.45824
 Alpha  occ. eigenvalues --   -0.42103  -0.41505  -0.39696  -0.37880  -0.36458
 Alpha  occ. eigenvalues --   -0.31932
 Alpha virt. eigenvalues --   -0.00882  -0.00253   0.00600   0.00737   0.02067
 Alpha virt. eigenvalues --    0.02875   0.03111   0.04588   0.05286   0.06033
 Alpha virt. eigenvalues --    0.07004   0.07814   0.08590   0.09056   0.10309

  Beta  occ. eigenvalues --  -19.67911 -19.65133 -19.62788 -10.70224 -10.64423
  Beta  occ. eigenvalues --  -10.60778 -10.59650 -10.54396  -1.25042  -1.16484
  Beta  occ. eigenvalues --   -1.11674  -0.88782  -0.88230  -0.76634  -0.73104
  Beta  occ. eigenvalues --   -0.64148  -0.61073  -0.58807  -0.58088  -0.54616
  Beta  occ. eigenvalues --   -0.52724  -0.49438  -0.48117  -0.45790  -0.45145
  Beta  occ. eigenvalues --   -0.42012  -0.40432  -0.38728  -0.37878  -0.35190
  Beta virt. eigenvalues --   -0.09101  -0.00933  -0.00077   0.00778   0.01572
  Beta virt. eigenvalues --    0.02118   0.03190   0.03305   0.04503   0.05439
  Beta virt. eigenvalues --    0.06041   0.07013   0.07719   0.08406   0.08925

 Mulliken charges and spin densities:
               1          2
     1  C    0.032358   1.005069
     2  H    0.228405  -0.028434
     3  C   -0.136696  -0.252623
     4  C    0.001662   0.049634
     5  O   -0.245364   0.001254
     6  O   -0.014255   0.003561
     7  C   -0.354603   0.001394
     8  C   -0.396753   0.000449
     9  H    0.194526   0.004905
    10  H    0.213920  -0.000274
    11  H    0.186800  -0.000295
    12  H    0.128309   0.004290
    13  H    0.160546  -0.000948
    14  O   -0.271564   0.210909
    15  H    0.272709   0.001107
 Sum of Mulliken charges =  -0.00000   1.00000

 Dipole moment (field-independent basis, Debye):
    X=             -0.5961    Y=             -4.1326    Z=             -0.7551  Tot=              4.2431
 Quadrupole moment (field-independent basis, Debye-Ang):
   XX=            -39.7362   YY=            -52.2315   ZZ=            -47.7645
   XY=             -4.2032   XZ=             -0.4729   YZ=              4.8172

  Exact polarizability:  71.833   0.297  70.482  -3.649   4.184  68.681
 Approx polarizability:  76.120   1.731  84.742  -6.357   5.491  85.216

 ******    1 imaginary frequencies (negative Signs) ******

                      1                      2                      3
                      A                      A                      A
 Frequencies --   -366.9360                72.9940                93.5233
 Red. masses --      2.7037                 1.7920                 2.3631
 Frc consts  --      0.2145                 0.0056                 0.0122
 IR Inten    --    127.6940                41.6732                 5.3889

                      4                      5                      6
                      A                      A                      A
 Frequencies --    104.8798               143.2860               206.3919
 Red. masses --      2.6236                 3.7174                 1.7238
 Frc consts  --      0.0170                 0.0450                 0.0433
 IR Inten    --     17.3878                17.8606                16.5701

                      7                      8                      9
                      A                      A                      A
 Frequencies --    225.4466               258.0137               272.1826
 Red. masses --      1.3005                 2.1349                 5.7392
 Frc consts  --      0.0389                 0.0837                 0.2505
 IR Inten    --      3.9139                 2.2250                 0.3794

                     10                     11                     12
                      A                      A                      A
 Frequencies --    366.9350               400.8214               438.6771
 Red. masses --      6.7840                 3.3274                 3.7844
 Frc consts  --      0.5382                 0.3150                 0.4291
 IR Inten    --      1.2914                 4.6647                 6.1428

                     13                     14                     15
                      A                      A                      A
 Frequencies --    582.1935               651.5670               703.4011
 Red. masses --      5.4419                 3.8369                 1.3960
 Frc consts  --      1.0868                 0.9597                 0.4070
 IR Inten    --     23.8246                 7.3276                38.4747

                     16                     17                     18
                      A                      A                      A
 Frequencies --    753.1119               779.7099               807.1936
 Red. masses --      6.4084                 7.0933                 1.1590
 Frc consts  --      2.1415                 2.5407                 0.4449
 IR Inten    --      3.6723                 6.2321                 2.6447

                     19                     20                     21
                      A                      A                      A
 Frequencies --    949.5777              1090.6545              1108.1475
 Red. masses --      2.2713                 1.7292                 1.8691
 Frc consts  --      1.2067                 1.2119                 1.3523
 IR Inten    --     12.1971                60.3753                36.4737

                     22                     23                     24
                      A                      A                      A
 Frequencies --   1128.3181              1181.0166              1263.9087
 Red. masses --      2.3553                 1.9156                 2.6879
 Frc consts  --      1.7667                 1.5742                 2.5299
 IR Inten    --     43.4206                54.7625               321.4998

                     25                     26                     27
                      A                      A                      A
 Frequencies --   1355.8076              1404.3984              1431.9103
 Red. masses --      1.3160                 1.2679                 1.3670
 Frc consts  --      1.4252                 1.4733                 1.6514
 IR Inten    --    118.7543                23.9693                15.8011

                     28                     29                     30
                      A                      A                      A
 Frequencies --   1492.1789              1501.4598              1541.8754
 Red. masses --      1.0399                 1.0472                 1.0933
 Frc consts  --      1.3642                 1.3909                 1.5315
 IR Inten    --      4.8283                 1.4464                 9.9359

                     31                     32                     33
                      A                      A                      A
 Frequencies --   1784.4890              1872.6790              3068.0518
 Red. masses --      7.1626                12.8602                 1.0357
 Frc consts  --     13.4384                26.5719                 5.7438
 IR Inten    --     21.4438               484.5066                 8.0929

                     34                     35                     36
                      A                      A                      A
 Frequencies --   3116.4488              3140.6939              3151.5442
 Red. masses --      1.0614                 1.1016                 1.1024
 Frc consts  --      6.0735                 6.4022                 6.4510
 IR Inten    --      8.2380                11.9032                11.5283

                     37                     38                     39
                      A                      A                      A
 Frequencies --   3170.7289              3418.1065              3859.8819
 Red. masses --      1.1082                 1.1212                 1.0675
 Frc consts  --      6.5640                 7.7179                 9.3708
 IR Inten    --     14.4844                67.5353                77.1677

 - Thermochemistry -
 -------------------
 Temperature   298.150 Kelvin.  Pressure   1.00000 Atm.
 Atom     1 has atomic number  6 and mass  12.00000

 Molecular mass:   115.03952 amu.
 Principal axes and moments of inertia in atomic units:
                           1         2         3
     Eigenvalues --   720.529111046.265821274.28995
           X            0.99988   0.00829   0.01344
           Y           -0.00897   0.99864   0.05129
           Z           -0.01299  -0.05140   0.99859
 This molecule is an asymmetric top.
 Rotational symmetry number  1.
 Warning -- assumption of classical behavior for rotation
           may cause significant error
 Rotational temperatures (Kelvin)      0.12021     0.08278     0.06797
 Rotational constants (GHZ):           2.50474     1.72494     1.41627
    1 imaginary frequencies ignored.
 Zero-point vibrational energy     292440.3 (Joules/Mol)
                                   69.89492 (Kcal/Mol)
 Warning -- explicit consideration of  12 degrees of freedom as
           vibrations may cause significant error
 Vibrational temperatures:    105.02   134.56   150.90   206.16   296.95
          (Kelvin)            324.37   371.22   391.61   527.94   576.69
                              631.16   837.65   937.46  1012.04  1083.56
                             1121.83  1161.37  1366.23  1569.21  1594.38
                             1623.40  1699.22  1818.48  1950.70  2020.62
                             2060.20  2146.91  2160.27  2218.41  2567.48
                             2694.37  4414.24  4483.87  4518.76  4534.37
                             4561.97  4917.89  5553.51

 Zero-point correction=                           0.111385 (Hartree/Particle)
 Thermal correction to Energy=                    0.120918
 Thermal correction to Enthalpy=                  0.121862
 Thermal correction to Gibbs Free Energy=         0.076217
 Sum of electronic and zero-point Energies=           -419.3676738
 Sum of electronic and thermal Energies=              -420.098728
 Sum of electronic and thermal Enthalpies=            -420.097784
 Sum of electronic and thermal Free Energies=         -420.143429

                     E (Thermal)             CV                S
                      KCal/Mol        Cal/Mol-Kelvin    Cal/Mol-Kelvin
 Total                   75.877             32.334             96.068
 Electronic               0.000              0.000              1.377
 Translational            0.889              2.981             40.136
 Rotational               0.889              2.981             28.354
 Vibrational             74.100             26.372             26.201
 Vibration     1          0.599              1.967              4.071
 Vibration     2          0.603              1.954              3.585
 Vibration     3          0.605              1.945              3.362
 Vibration     4          0.616              1.910              2.760
 Vibration     5          0.641              1.831              2.075
 Vibration     6          0.650              1.802              1.915
 Vibration     7          0.667              1.749              1.675
 Vibration     8          0.675              1.725              1.582
 Vibration     9          0.740              1.540              1.093
 Vibration    10          0.767              1.468              0.960
 Vibration    11          0.799              1.386              0.831
 Vibration    12          0.939              1.070              0.481

 Normal termination of Gaussian 16 at Fri Mar 28 13:54:12 2025.
