 Gaussian 16, Revision A.03,
 Gaussian 16:  ES64L-G16RevA.03 25-Dec-2016

 --------------------------
 # ccsd(t)/6-311++g(d,p) sp
 --------------------------

 -------------------
 Title Card Required
 -------------------
 Symbolic Z-matrix:
 Charge =  0 Multiplicity = 2

                         Standard orientation:
 ---------------------------------------------------------------------
 Center     Atomic      Atomic             Coordinates (Angstroms)
 Number     Number       Type             X           Y           Z
 ---------------------------------------------------------------------
      1          6           0        1.351885   -1.380667   -1.132956
      2          1           0        1.715094   -2.258671   -1.616457
      3          6           0        0.978821   -0.440767   -0.430665
      4          6           0        0.415275    0.922013   -0.204857
      5          8           0        1.031337    1.897652   -0.509233
      6          8           0       -0.772943    0.982030    0.382206
      7          6           0       -1.522377   -0.214420    0.672247
      8          6           0       -2.364036   -0.618419   -0.521759
      9          1           0       -0.843827   -1.004883    0.994133
     10          1           0       -2.145895    0.066205    1.519559
     11          1           0       -3.014970    0.203010   -0.823901
     12          1           0       -1.734597   -0.896792   -1.369520
     13          1           0       -2.984475   -1.478234   -0.260880
     14          8           0        1.425433   -0.825235    1.370019
     15          1           0        2.380645   -0.672658    1.321077
 ---------------------------------------------------------------------

 SCF Done:  E(UHF) =  -417.967183321     A.U. after   31 cycles
 E2 =    -0.1259369536D+01 EUMP2 =    -0.41922655285722D+03
 CCSD(T)= -0.41934848923D+03

 The electronic state is 2-A.
 Alpha  occ. eigenvalues --  -20.62572 -20.60735 -20.55036 -11.41306 -11.29928
 Alpha  occ. eigenvalues --  -11.28621 -11.28280 -11.23233  -1.47440  -1.38413
 Alpha  occ. eigenvalues --   -1.37650  -1.08639  -1.04821  -0.91523  -0.87669
 Alpha  occ. eigenvalues --   -0.76087  -0.73169  -0.69987  -0.68631  -0.66212
 Alpha  occ. eigenvalues --   -0.64425  -0.62660  -0.57833  -0.56157  -0.54496
 Alpha  occ. eigenvalues --   -0.53924  -0.50607  -0.47306  -0.45257  -0.44169
 Alpha  occ. eigenvalues --   -0.42822
 Alpha virt. eigenvalues --    0.03196   0.04573   0.05289   0.06525   0.06958
 Alpha virt. eigenvalues --    0.08562   0.09162   0.11004   0.11094   0.11766
 Alpha virt. eigenvalues --    0.13155   0.13959   0.14489   0.14731   0.16253

  Beta  occ. eigenvalues --  -20.60674 -20.59139 -20.55554 -11.40895 -11.30516
  Beta  occ. eigenvalues --  -11.29945 -11.25956 -11.23230  -1.47557  -1.38418
  Beta  occ. eigenvalues --   -1.26795  -1.07252  -1.04804  -0.90588  -0.86438
  Beta  occ. eigenvalues --   -0.75317  -0.72298  -0.69761  -0.67457  -0.64576
  Beta  occ. eigenvalues --   -0.62798  -0.58262  -0.56360  -0.54569  -0.51035
  Beta  occ. eigenvalues --   -0.50739  -0.48847  -0.46693  -0.45622  -0.42974
  Beta virt. eigenvalues --    0.03291   0.03717   0.04573   0.06493   0.06647
  Beta virt. eigenvalues --    0.07493   0.08458   0.09974   0.11122   0.11647
  Beta virt. eigenvalues --    0.12006   0.13533   0.14312   0.14935   0.15397

 Mulliken charges and spin densities:
               1          2
     1  C   -0.308653   1.309289
     2  H    0.257918  -0.093413
     3  C    0.231394  -1.048908
     4  C    0.041124   0.188783
     5  O   -0.327992  -0.106841
     6  O   -0.105509  -0.000601
     7  C   -0.262714  -0.005876
     8  C   -0.388424  -0.003861
     9  H    0.186335   0.005102
    10  H    0.182093  -0.001729
    11  H    0.169607   0.000600
    12  H    0.120193   0.003075
    13  H    0.130128  -0.000818
    14  O   -0.182530   0.785828
    15  H    0.257029  -0.030630
 Sum of Mulliken charges =  -0.00000   1.00000

 Dipole moment (field-independent basis, Debye):
    X=             -0.4093    Y=             -4.6583    Z=             -0.3636  Tot=              4.6903
 Quadrupole moment (field-independent basis, Debye-Ang):
   XX=            -39.3825   YY=            -53.0293   ZZ=            -46.5872
   XY=             -4.8307   XZ=              0.2020   YZ=              4.6644

 1116\PMP3-0=-419.2751246\MP4SDQ=-419.2848843\CCSD=-419.293048\CCSD(T)=
 Normal termination of Gaussian 16 at Mon May 12 11:15:56 2025.
