 Gaussian 16, Revision A.03,
 Gaussian 16:  ES64L-G16RevA.03 25-Dec-2016

 --------------------------
 # freq 6-311++g(d,p) m062x
 --------------------------

 -------------------
 Title Card Required
 -------------------
 Symbolic Z-matrix:
 Charge =  0 Multiplicity = 2

                         Standard orientation:
 ---------------------------------------------------------------------
 Center     Atomic      Atomic             Coordinates (Angstroms)
 Number     Number       Type             X           Y           Z
 ---------------------------------------------------------------------
      1          6           0        1.350625   -1.356936   -1.177585
      2          1           0        1.731456   -2.232621   -1.649958
      3          6           0        0.921646   -0.386671   -0.605366
      4          6           0        0.401680    0.932706   -0.203881
      5          8           0        1.015779    1.923760   -0.465252
      6          8           0       -0.770686    0.967187    0.420044
      7          6           0       -1.510720   -0.240389    0.682892
      8          6           0       -2.368233   -0.618049   -0.508703
      9          1           0       -0.822059   -1.036348    0.968249
     10          1           0       -2.123211    0.011532    1.547251
     11          1           0       -3.028350    0.207130   -0.779220
     12          1           0       -1.750855   -0.871704   -1.372291
     13          1           0       -2.980390   -1.487417   -0.259911
     14          8           0        1.477556   -0.875736    1.435621
     15          1           0        2.422228   -0.696222    1.298429
 ---------------------------------------------------------------------

 SCF Done:  E(UM062X) =  -420.199368241     A.U. after   24 cycles

 The electronic state is 2-A.
 Alpha  occ. eigenvalues --  -19.68003 -19.67853 -19.62528 -10.70666 -10.60686
 Alpha  occ. eigenvalues --  -10.59011 -10.58665 -10.54219  -1.25006  -1.16409
 Alpha  occ. eigenvalues --   -1.13904  -0.90400  -0.88208  -0.77238  -0.73828
 Alpha  occ. eigenvalues --   -0.64299  -0.62218  -0.58229  -0.57388  -0.55476
 Alpha  occ. eigenvalues --   -0.52748  -0.51262  -0.48937  -0.46828  -0.45786
 Alpha  occ. eigenvalues --   -0.43104  -0.41976  -0.39794  -0.37926  -0.36511
 Alpha  occ. eigenvalues --   -0.36006
 Alpha virt. eigenvalues --   -0.01546  -0.00826   0.00534   0.00979   0.02001
 Alpha virt. eigenvalues --    0.02397   0.03589   0.04578   0.05516   0.06110
 Alpha virt. eigenvalues --    0.07094   0.07807   0.08550   0.09042   0.10631

  Beta  occ. eigenvalues --  -19.67852 -19.66471 -19.62547 -10.70651 -10.60687
  Beta  occ. eigenvalues --  -10.59001 -10.58537 -10.54219  -1.25003  -1.16442
  Beta  occ. eigenvalues --   -1.06938  -0.89728  -0.88198  -0.77116  -0.73654
  Beta  occ. eigenvalues --   -0.64145  -0.61923  -0.58087  -0.56821  -0.53235
  Beta  occ. eigenvalues --   -0.52577  -0.49385  -0.47061  -0.45755  -0.42020
  Beta  occ. eigenvalues --   -0.40397  -0.39569  -0.39081  -0.37539  -0.36141
  Beta virt. eigenvalues --   -0.10076  -0.00973  -0.00621   0.00605   0.01282
  Beta virt. eigenvalues --    0.02127   0.02552   0.03631   0.04563   0.05643
  Beta virt. eigenvalues --    0.06188   0.07205   0.07973   0.08514   0.09083

 Mulliken charges and spin densities:
               1          2
     1  C   -0.992181   0.182564
     2  H    0.230164  -0.011474
     3  C    0.703246  -0.067157
     4  C    0.170716   0.049756
     5  O   -0.237476  -0.009032
     6  O   -0.013334   0.000930
     7  C   -0.337945   0.000328
     8  C   -0.413354  -0.002603
     9  H    0.180364   0.003534
    10  H    0.211942  -0.001170
    11  H    0.184910  -0.000121
    12  H    0.136638   0.001710
    13  H    0.158148  -0.000256
    14  O   -0.227882   0.873089
    15  H    0.246044  -0.020099
 Sum of Mulliken charges =  -0.00000   1.00000

 Dipole moment (field-independent basis, Debye):
    X=             -0.4281    Y=             -4.1982    Z=             -0.5655  Tot=              4.2577
 Quadrupole moment (field-independent basis, Debye-Ang):
   XX=            -39.1583   YY=            -52.3363   ZZ=            -46.6833
   XY=             -4.4198   XZ=             -0.3251   YZ=              4.5653

  Exact polarizability:  72.207  -0.580  73.238  -3.161   4.704  71.496
 Approx polarizability:  76.575  -1.364  93.040  -8.213   8.430  81.018

                      1                      2                      3
                      A                      A                      A
 Frequencies --     40.6113                76.0354                85.8321
 Red. masses --      6.5657                 5.3921                 4.3295
 Frc consts  --      0.0064                 0.0184                 0.0188
 IR Inten    --      2.0769                13.5452                 3.1872

                      4                      5                      6
                      A                      A                      A
 Frequencies --    103.4888               118.1692               174.2516
 Red. masses --      5.2210                 5.4125                 2.3828
 Frc consts  --      0.0329                 0.0445                 0.0426
 IR Inten    --      0.8645                 8.9349                19.1133

                      7                      8                      9
                      A                      A                      A
 Frequencies --    204.1605               228.6978               250.5759
 Red. masses --      1.6515                 1.2836                 1.8939
 Frc consts  --      0.0406                 0.0396                 0.0701
 IR Inten    --     31.6207                 1.7505                29.4751

                     10                     11                     12
                      A                      A                      A
 Frequencies --    358.1352               410.0577               557.9948
 Red. masses --      2.8884                 3.6308                 4.9430
 Frc consts  --      0.2183                 0.3597                 0.9068
 IR Inten    --      1.7294                 6.0958                15.5015

                     13                     14                     15
                      A                      A                      A
 Frequencies --    603.2391               638.4814               717.8857
 Red. masses --      1.3630                 2.6110                 1.3479
 Frc consts  --      0.2922                 0.6271                 0.4093
 IR Inten    --     88.8658                17.6121                32.4183

                     16                     17                     18
                      A                      A                      A
 Frequencies --    747.1158               757.6723               759.1319
 Red. masses --      1.4264                 6.8326                 4.4889
 Frc consts  --      0.4691                 2.3110                 1.5241
 IR Inten    --     16.5656                34.5280                31.0287

                     19                     20                     21
                      A                      A                      A
 Frequencies --    808.8274               951.8413              1105.2904
 Red. masses --      1.1582                 2.2603                 3.3515
 Frc consts  --      0.4464                 1.2065                 2.4123
 IR Inten    --      3.4759                12.2584                42.5963

                     22                     23                     24
                      A                      A                      A
 Frequencies --   1132.2633              1182.4840              1270.6515
 Red. masses --      2.6156                 1.8724                 2.7133
 Frc consts  --      1.9757                 1.5426                 2.5811
 IR Inten    --     52.5337                44.7150               344.9121

                     25                     26                     27
                      A                      A                      A
 Frequencies --   1354.6409              1405.8021              1432.8661
 Red. masses --      1.3013                 1.2785                 1.3776
 Frc consts  --      1.4069                 1.4887                 1.6664
 IR Inten    --    116.1462                32.0863                18.4015

                     28                     29                     30
                      A                      A                      A
 Frequencies --   1492.7695              1503.1676              1533.2225
 Red. masses --      1.0408                 1.0467                 1.0985
 Frc consts  --      1.3664                 1.3934                 1.5214
 IR Inten    --      4.1401                 1.6791                11.7759

                     31                     32                     33
                      A                      A                      A
 Frequencies --   1863.6711              2201.6164              3071.3628
 Red. masses --     12.9441                 5.9033                 1.0354
 Frc consts  --     26.4887                16.8590                 5.7545
 IR Inten    --    508.2281                59.8883                 8.6006

                     34                     35                     36
                      A                      A                      A
 Frequencies --   3112.8052              3145.2672              3150.5222
 Red. masses --      1.0606                 1.1033                 1.1020
 Frc consts  --      6.0546                 6.4308                 6.4443
 IR Inten    --     10.0739                 6.9340                12.1146

                     37                     38                     39
                      A                      A                      A
 Frequencies --   3170.4388              3482.4622              3800.8515
 Red. masses --      1.1081                 1.1626                 1.0674
 Frc consts  --      6.5623                 8.3073                 9.0851
 IR Inten    --     15.8843                66.5409                45.7332

 - Thermochemistry -
 -------------------
 Temperature   298.150 Kelvin.  Pressure   1.00000 Atm.
 Atom     1 has atomic number  6 and mass  12.00000

 Molecular mass:   115.03952 amu.
 Principal axes and moments of inertia in atomic units:
                           1         2         3
     Eigenvalues --   768.426411087.034151286.51544
           X            0.99988   0.00943   0.01242
           Y           -0.01013   0.99830   0.05747
           Z           -0.01186  -0.05759   0.99827
 This molecule is an asymmetric top.
 Rotational symmetry number  1.
 Warning -- assumption of classical behavior for rotation
           may cause significant error
 Rotational temperatures (Kelvin)      0.11272     0.07968     0.06732
 Rotational constants (GHZ):           2.34862     1.66024     1.40281
 Zero-point vibrational energy     293111.2 (Joules/Mol)
                                   70.05525 (Kcal/Mol)
 Warning -- explicit consideration of  13 degrees of freedom as
           vibrations may cause significant error
 Vibrational temperatures:     58.43   109.40   123.49   148.90   170.02
          (Kelvin)            250.71   293.74   329.05   360.52   515.28
                              589.98   802.83   867.93   918.63  1032.88
                             1074.93  1090.12  1092.22  1163.72  1369.49
                             1590.27  1629.07  1701.33  1828.18  1949.03
                             2022.64  2061.57  2147.76  2162.72  2205.97
                             2681.41  3167.64  4419.01  4478.63  4525.34
                             4532.90  4561.55  5010.49  5468.58

 Zero-point correction=                           0.111640 (Hartree/Particle)
 Thermal correction to Energy=                    0.122212
 Thermal correction to Enthalpy=                  0.123156
 Thermal correction to Gibbs Free Energy=         0.074403
 Sum of electronic and zero-point Energies=           -419.3482478
 Sum of electronic and thermal Energies=              -420.077156
 Sum of electronic and thermal Enthalpies=            -420.076212
 Sum of electronic and thermal Free Energies=         -420.124965

                     E (Thermal)             CV                S
                      KCal/Mol        Cal/Mol-Kelvin    Cal/Mol-Kelvin
 Total                   76.689             34.644            102.610
 Electronic               0.000              0.000              1.377
 Translational            0.889              2.981             40.136
 Rotational               0.889              2.981             28.465
 Vibrational             74.912             28.682             32.632
 Vibration     1          0.594              1.981              5.229
 Vibration     2          0.599              1.965              3.991
 Vibration     3          0.601              1.959              3.753
 Vibration     4          0.605              1.946              3.388
 Vibration     5          0.608              1.934              3.130
 Vibration     6          0.627              1.874              2.389
 Vibration     7          0.640              1.834              2.095
 Vibration     8          0.651              1.797              1.889
 Vibration     9          0.663              1.762              1.727
 Vibration    10          0.733              1.559              1.130
 Vibration    11          0.774              1.448              0.926
 Vibration    12          0.914              1.122              0.528
 Vibration    13          0.962              1.025              0.444

 Normal termination of Gaussian 16 at Fri Mar 28 17:05:27 2025.
