 Gaussian 16, Revision A.03,
 Gaussian 16:  ES64L-G16RevA.03 25-Dec-2016

 --------------------------
 # freq 6-311++g(d,p) m062x
 --------------------------

 -------------------
 Title Card Required
 -------------------
 Symbolic Z-matrix:
 Charge =  0 Multiplicity = 2

                         Standard orientation:
 ---------------------------------------------------------------------
 Center     Atomic      Atomic             Coordinates (Angstroms)
 Number     Number       Type             X           Y           Z
 ---------------------------------------------------------------------
      1          6           0        1.351107   -1.384314   -1.127285
      2          1           0        1.714764   -2.266829   -1.602789
      3          6           0        0.992080   -0.452940   -0.386080
      4          6           0        0.417486    0.919575   -0.207131
      5          8           0        1.034406    1.892699   -0.517457
      6          8           0       -0.773200    0.984865    0.374823
      7          6           0       -1.524550   -0.209304    0.669868
      8          6           0       -2.363238   -0.618503   -0.524353
      9          1           0       -0.848692   -0.998980    0.999079
     10          1           0       -2.150113    0.076668    1.513862
     11          1           0       -3.012320    0.202144   -0.832518
     12          1           0       -1.731525   -0.901630   -1.369031
     13          1           0       -2.985311   -1.476416   -0.261150
     14          8           0        1.414517   -0.814588    1.352506
     15          1           0        2.370105   -0.665846    1.323462
 ---------------------------------------------------------------------

 SCF Done:  E(UM062X) =  -420.202582658     A.U. after   21 cycles

 The electronic state is 2-A.
 Alpha  occ. eigenvalues --  -19.68076 -19.65240 -19.62890 -10.70768 -10.63088
 Alpha  occ. eigenvalues --  -10.60804 -10.60553 -10.54454  -1.25302  -1.16709
 Alpha  occ. eigenvalues --   -1.11747  -0.91605  -0.88424  -0.77469  -0.74329
 Alpha  occ. eigenvalues --   -0.65031  -0.62531  -0.58497  -0.58058  -0.54362
 Alpha  occ. eigenvalues --   -0.52944  -0.50602  -0.48608  -0.46733  -0.45947
 Alpha  occ. eigenvalues --   -0.42153  -0.40866  -0.40351  -0.37971  -0.36890
 Alpha  occ. eigenvalues --   -0.32712
 Alpha virt. eigenvalues --   -0.01104  -0.00594   0.00511   0.00848   0.01767
 Alpha virt. eigenvalues --    0.02425   0.03194   0.04441   0.05335   0.05961
 Alpha virt. eigenvalues --    0.06962   0.07814   0.08307   0.09004   0.10431

  Beta  occ. eigenvalues --  -19.68067 -19.64338 -19.62911 -10.70724 -10.63228
  Beta  occ. eigenvalues --  -10.60807 -10.60065 -10.54453  -1.25274  -1.16734
  Beta  occ. eigenvalues --   -1.08538  -0.89711  -0.88388  -0.77022  -0.73652
  Beta  occ. eigenvalues --   -0.64465  -0.61999  -0.58393  -0.57506  -0.53158
  Beta  occ. eigenvalues --   -0.52671  -0.49392  -0.47671  -0.45905  -0.42653
  Beta  occ. eigenvalues --   -0.42055  -0.39602  -0.38853  -0.37972  -0.35804
  Beta virt. eigenvalues --   -0.10448  -0.00945  -0.00073   0.00699   0.01423
  Beta virt. eigenvalues --    0.01951   0.02756   0.03300   0.04323   0.05483
  Beta virt. eigenvalues --    0.06019   0.07035   0.07765   0.08172   0.08926

 Mulliken charges and spin densities:
               1          2
     1  C    0.026728   0.777103
     2  H    0.246464  -0.030002
     3  C   -0.116126  -0.243508
     4  C   -0.011189   0.049837
     5  O   -0.241511  -0.008574
     6  O   -0.011343   0.002726
     7  C   -0.358741  -0.002691
     8  C   -0.394982  -0.001048
     9  H    0.196684   0.006201
    10  H    0.213533  -0.000954
    11  H    0.187097  -0.000093
    12  H    0.127688   0.004111
    13  H    0.160623  -0.000881
    14  O   -0.277396   0.454137
    15  H    0.252472  -0.006362
 Sum of Mulliken charges =  -0.00000   1.00000

 Dipole moment (field-independent basis, Debye):
    X=             -0.6979    Y=             -4.1343    Z=             -1.1799  Tot=              4.3556
 Quadrupole moment (field-independent basis, Debye-Ang):
   XX=            -39.8031   YY=            -51.9834   ZZ=            -47.4866
   XY=             -4.2218   XZ=             -1.2522   YZ=              5.3401

  Exact polarizability:  72.081  -0.065  71.415  -2.465   4.185  74.134
 Approx polarizability:  76.323   0.732  87.566  -5.993   6.471  91.642

 ******    1 imaginary frequencies (negative Signs) ******

                      1                      2                      3
                      A                      A                      A
 Frequencies --   -655.8635                86.8922               100.6708
 Red. masses --     11.9996                 3.5706                 3.9690
 Frc consts  --      3.0412                 0.0159                 0.0237
 IR Inten    --      1.6872                 1.7184                 0.8528

                      4                      5                      6
                      A                      A                      A
 Frequencies --    122.5993               177.9616               206.3739
 Red. masses --      3.9270                 1.2786                 1.9062
 Frc consts  --      0.0348                 0.0239                 0.0478
 IR Inten    --      3.9727                80.9149                 4.2041

                      7                      8                      9
                      A                      A                      A
 Frequencies --    219.7384               243.1587               287.1691
 Red. masses --      3.7603                 1.7101                 2.3403
 Frc consts  --      0.1070                 0.0596                 0.1137
 IR Inten    --      4.8441                 2.2072                10.7162

                     10                     11                     12
                      A                      A                      A
 Frequencies --    383.9771               413.7899               443.7143
 Red. masses --      2.9259                 2.9873                 1.7785
 Frc consts  --      0.2542                 0.3014                 0.2063
 IR Inten    --      2.3053                 3.0312                34.3061

                     13                     14                     15
                      A                      A                      A
 Frequencies --    562.9944               632.8850               713.3016
 Red. masses --      5.3746                 4.3794                 1.3545
 Frc consts  --      1.0037                 1.0335                 0.4061
 IR Inten    --     18.8864                 6.7568                37.1507

                     16                     17                     18
                      A                      A                      A
 Frequencies --    748.8213               753.6129               807.2205
 Red. masses --      5.3674                10.1994                 1.1281
 Frc consts  --      1.7732                 3.4129                 0.4331
 IR Inten    --      2.4490                21.9677                 2.8796

                     19                     20                     21
                      A                      A                      A
 Frequencies --    949.3125               963.4624              1100.0347
 Red. masses --      2.2512                 1.1632                 3.6694
 Frc consts  --      1.1953                 0.6362                 2.6161
 IR Inten    --     14.0604                64.1675                49.6845

                     22                     23                     24
                      A                      A                      A
 Frequencies --   1128.3069              1181.4337              1266.0325
 Red. masses --      2.3706                 1.9225                 2.7057
 Frc consts  --      1.7781                 1.5810                 2.5552
 IR Inten    --     40.7117                53.0805               328.1734

                     25                     26                     27
                      A                      A                      A
 Frequencies --   1354.6824              1404.9064              1432.3349
 Red. masses --      1.3075                 1.2723                 1.3722
 Frc consts  --      1.4137                 1.4796                 1.6586
 IR Inten    --    113.0018                28.0679                16.6778

                     28                     29                     30
                      A                      A                      A
 Frequencies --   1492.3241              1501.7676              1539.3306
 Red. masses --      1.0401                 1.0473                 1.0941
 Frc consts  --      1.3647                 1.3916                 1.5275
 IR Inten    --      4.7651                 1.6508                 9.5934

                     31                     32                     33
                      A                      A                      A
 Frequencies --   1869.5173              1922.3978              3069.4069
 Red. masses --     12.1376                 7.1261                 1.0355
 Frc consts  --     24.9944                15.5162                 5.7482
 IR Inten    --    490.9390                48.4321                 8.1357

                     34                     35                     36
                      A                      A                      A
 Frequencies --   3115.3550              3141.9982              3151.7516
 Red. masses --      1.0611                 1.1024                 1.1022
 Frc consts  --      6.0674                 6.4122                 6.4507
 IR Inten    --      8.4251                10.6938                11.3915

                     37                     38                     39
                      A                      A                      A
 Frequencies --   3171.0199              3453.1890              3841.8012
 Red. masses --      1.1082                 1.1305                 1.0678
 Frc consts  --      6.5658                 7.9424                 9.2852
 IR Inten    --     13.7488                77.1658                68.9868

 - Thermochemistry -
 -------------------
 Temperature   298.150 Kelvin.  Pressure   1.00000 Atm.
 Atom     1 has atomic number  6 and mass  12.00000

 Molecular mass:   115.03952 amu.
 Principal axes and moments of inertia in atomic units:
                           1         2         3
     Eigenvalues --   735.106371058.326091278.14116
           X            0.99987   0.00894   0.01311
           Y           -0.00963   0.99850   0.05385
           Z           -0.01261  -0.05397   0.99846
 This molecule is an asymmetric top.
 Rotational symmetry number  1.
 Warning -- assumption of classical behavior for rotation
           may cause significant error
 Rotational temperatures (Kelvin)      0.11783     0.08184     0.06777
 Rotational constants (GHZ):           2.45507     1.70528     1.41200
    1 imaginary frequencies ignored.
 Zero-point vibrational energy     292817.4 (Joules/Mol)
                                   69.98504 (Kcal/Mol)
 Warning -- explicit consideration of  12 degrees of freedom as
           vibrations may cause significant error
 Vibrational temperatures:    125.02   144.84   176.39   256.05   296.93
          (Kelvin)            316.15   349.85   413.17   552.46   595.35
                              638.41   810.02   910.58  1026.28  1077.39
                             1084.28  1161.41  1365.85  1386.21  1582.70
                             1623.38  1699.82  1821.54  1949.09  2021.35
                             2060.81  2147.12  2160.71  2214.75  2689.82
                             2765.90  4416.19  4482.30  4520.63  4534.67
                             4562.39  4968.37  5527.50

 Zero-point correction=                           0.111528 (Hartree/Particle)
 Thermal correction to Energy=                    0.120946
 Thermal correction to Enthalpy=                  0.121891
 Thermal correction to Gibbs Free Energy=         0.076774
 Sum of electronic and zero-point Energies=           -419.3518821
 Sum of electronic and thermal Energies=              -420.081636
 Sum of electronic and thermal Enthalpies=            -420.080692
 Sum of electronic and thermal Free Energies=         -420.125809

                     E (Thermal)             CV                S
                      KCal/Mol        Cal/Mol-Kelvin    Cal/Mol-Kelvin
 Total                   75.895             32.437             94.957
 Electronic               0.000              0.000              1.377
 Translational            0.889              2.981             40.136
 Rotational               0.889              2.981             28.388
 Vibrational             74.118             26.475             25.056
 Vibration     1          0.601              1.958              3.729
 Vibration     2          0.604              1.949              3.441
 Vibration     3          0.610              1.930              3.059
 Vibration     4          0.628              1.869              2.350
 Vibration     5          0.641              1.831              2.076
 Vibration     6          0.647              1.811              1.961
 Vibration     7          0.659              1.774              1.780
 Vibration     8          0.684              1.698              1.491
 Vibration     9          0.753              1.504              1.023
 Vibration    10          0.777              1.440              0.913
 Vibration    11          0.803              1.375              0.815
 Vibration    12          0.919              1.111              0.518

 Normal termination of Gaussian 16 at Fri Mar 28 14:57:08 2025.
