 Gaussian 16, Revision A.03,
 Gaussian 16:  ES64L-G16RevA.03 25-Dec-2016

 --------------------------
 # ccsd(t)/6-311++g(d,p) sp
 --------------------------

 -------------------
 Title Card Required
 -------------------
 Symbolic Z-matrix:
 Charge =  0 Multiplicity = 2

                         Standard orientation:
 ---------------------------------------------------------------------
 Center     Atomic      Atomic             Coordinates (Angstroms)
 Number     Number       Type             X           Y           Z
 ---------------------------------------------------------------------
      1          6           0        1.345052   -1.383082   -1.121382
      2          1           0        1.721171   -2.286561   -1.550715
      3          6           0        1.024410   -0.481047   -0.279067
      4          6           0        0.424053    0.911845   -0.210085
      5          8           0        1.040653    1.882374   -0.531193
      6          8           0       -0.773655    0.990045    0.361305
      7          6           0       -1.529429   -0.199155    0.664319
      8          6           0       -2.361837   -0.616981   -0.530915
      9          1           0       -0.861403   -0.989444    1.006876
     10          1           0       -2.159325    0.096068    1.502001
     11          1           0       -3.006678    0.202925   -0.849730
     12          1           0       -1.724871   -0.907996   -1.369288
     13          1           0       -2.987653   -1.471303   -0.264869
     14          8           0        1.390460   -0.794613    1.302527
     15          1           0        2.345592   -0.655624    1.327394
 ---------------------------------------------------------------------

 SCF Done:  E(UHF) =  -417.981830167     A.U. after   29 cycles
 E2 =    -0.1272257559D+01 EUMP2 =    -0.41925408772593D+03
 CCSD(T)= -0.41936767375D+03

 The electronic state is 2-A.
 Alpha  occ. eigenvalues --  -20.60807 -20.60368 -20.55400 -11.41067 -11.32384
 Alpha  occ. eigenvalues --  -11.29998 -11.29685 -11.23399  -1.47494  -1.37867
 Alpha  occ. eigenvalues --   -1.36347  -1.09463  -1.04930  -0.91622  -0.87992
 Alpha  occ. eigenvalues --   -0.76467  -0.72923  -0.70348  -0.68765  -0.65698
 Alpha  occ. eigenvalues --   -0.62914  -0.61629  -0.57752  -0.55965  -0.54444
 Alpha  occ. eigenvalues --   -0.52540  -0.50719  -0.47678  -0.45514  -0.44858
 Alpha  occ. eigenvalues --   -0.42092
 Alpha virt. eigenvalues --    0.03195   0.04584   0.05333   0.06499   0.06877
 Alpha virt. eigenvalues --    0.08577   0.09110   0.10904   0.11661   0.12214
 Alpha virt. eigenvalues --    0.13108   0.13879   0.14280   0.14600   0.16181

  Beta  occ. eigenvalues --  -20.60771 -20.58732 -20.55673 -11.40741 -11.34388
  Beta  occ. eigenvalues --  -11.30014 -11.26417 -11.23396  -1.47542  -1.38274
  Beta  occ. eigenvalues --   -1.31716  -1.06250  -1.04876  -0.90381  -0.85978
  Beta  occ. eigenvalues --   -0.75318  -0.71705  -0.70191  -0.68232  -0.65250
  Beta  occ. eigenvalues --   -0.62827  -0.58060  -0.57286  -0.54598  -0.52579
  Beta  occ. eigenvalues --   -0.50889  -0.50809  -0.47394  -0.46095  -0.42821
  Beta virt. eigenvalues --    0.03319   0.03440   0.04601   0.06222   0.06567
  Beta virt. eigenvalues --    0.07152   0.08383   0.09914   0.11080   0.11581
  Beta virt. eigenvalues --    0.12948   0.13258   0.14003   0.14920   0.15661

 Mulliken charges and spin densities:
               1          2
     1  C   -0.034186   1.668484
     2  H    0.248355  -0.099150
     3  C    0.047327  -0.994099
     4  C    0.032022   0.145485
     5  O   -0.330362  -0.052125
     6  O   -0.104161  -0.001395
     7  C   -0.275728  -0.006124
     8  C   -0.381373  -0.000498
     9  H    0.195659   0.005059
    10  H    0.181779  -0.001006
    11  H    0.170208   0.000466
    12  H    0.112968   0.002678
    13  H    0.132620  -0.000813
    14  O   -0.270715   0.346250
    15  H    0.275586  -0.013212
 Sum of Mulliken charges =  -0.00000   1.00000

 Dipole moment (field-independent basis, Debye):
    X=             -0.5295    Y=             -4.6097    Z=             -0.7456  Tot=              4.6995
 Quadrupole moment (field-independent basis, Debye-Ang):
   XX=            -39.6575   YY=            -53.0503   ZZ=            -47.6396
   XY=             -4.6357   XZ=             -0.3400   YZ=              4.9527

 916\PMP3-0=-419.2935373\MP4SDQ=-419.3082455\CCSD=-419.3127051\CCSD(T)=
 Normal termination of Gaussian 16 at Mon May 12 12:58:30 2025.
