 Gaussian 16, Revision A.03,
 Gaussian 16:  ES64L-G16RevA.03 25-Dec-2016

 --------------------------
 # ccsd(t)/6-311++g(d,p) sp
 --------------------------

 -------------------
 Title Card Required
 -------------------
 Symbolic Z-matrix:
 Charge =  0 Multiplicity = 2

                         Standard orientation:
 ---------------------------------------------------------------------
 Center     Atomic      Atomic             Coordinates (Angstroms)
 Number     Number       Type             X           Y           Z
 ---------------------------------------------------------------------
      1          6           0        1.338163   -1.334333   -1.227641
      2          1           0        1.735349   -2.214141   -1.678534
      3          6           0        0.881187   -0.351337   -0.707573
      4          6           0        0.388044    0.943710   -0.211922
      5          8           0        1.006942    1.943822   -0.426304
      6          8           0       -0.763873    0.954013    0.451299
      7          6           0       -1.497489   -0.261909    0.691163
      8          6           0       -2.374225   -0.612320   -0.494888
      9          1           0       -0.801369   -1.062708    0.943927
     10          1           0       -2.096234   -0.034797    1.571857
     11          1           0       -3.040208    0.217817   -0.734262
     12          1           0       -1.772095   -0.845162   -1.374752
     13          1           0       -2.981114   -1.488169   -0.256023
     14          8           0        1.519112   -0.920359    1.470043
     15          1           0        2.444138   -0.695526    1.272662
 ---------------------------------------------------------------------

 SCF Done:  E(UHF) =  -417.982589529     A.U. after   41 cycles
 E2 =    -0.1264075905D+01 EUMP2 =    -0.41924666543357D+03
 CCSD(T)= -0.41935081115D+03

 The electronic state is 2-A.
 Alpha  occ. eigenvalues --  -20.64251 -20.60793 -20.55179 -11.41524 -11.29919
 Alpha  occ. eigenvalues --  -11.27671 -11.26712 -11.23103  -1.47422  -1.39807
 Alpha  occ. eigenvalues --   -1.37748  -1.07828  -1.04735  -0.91573  -0.87406
 Alpha  occ. eigenvalues --   -0.75682  -0.73300  -0.69803  -0.68609  -0.67849
 Alpha  occ. eigenvalues --   -0.65530  -0.62893  -0.58312  -0.56827  -0.54734
 Alpha  occ. eigenvalues --   -0.54507  -0.50634  -0.47458  -0.45830  -0.43384
 Alpha  occ. eigenvalues --   -0.42662
 Alpha virt. eigenvalues --    0.03203   0.04548   0.05273   0.06555   0.07026
 Alpha virt. eigenvalues --    0.08305   0.09070   0.09759   0.11075   0.11736
 Alpha virt. eigenvalues --    0.13323   0.13856   0.14832   0.15007   0.15968

  Beta  occ. eigenvalues --  -20.60756 -20.60147 -20.55522 -11.41305 -11.29927
  Beta  occ. eigenvalues --  -11.27602 -11.26596 -11.23103  -1.47512  -1.38253
  Beta  occ. eigenvalues --   -1.24370  -1.07508  -1.04737  -0.91202  -0.87082
  Beta  occ. eigenvalues --   -0.75449  -0.72913  -0.69458  -0.66650  -0.64598
  Beta  occ. eigenvalues --   -0.62948  -0.58496  -0.55616  -0.54621  -0.51606
  Beta  occ. eigenvalues --   -0.50710  -0.48202  -0.46479  -0.43565  -0.42866
  Beta virt. eigenvalues --    0.03257   0.04409   0.04547   0.06573   0.06871
  Beta virt. eigenvalues --    0.08163   0.08453   0.09596   0.10168   0.11338
  Beta virt. eigenvalues --    0.11669   0.13738   0.14225   0.14929   0.15364

 Mulliken charges and spin densities:
               1          2
     1  C   -1.764233   0.418683
     2  H    0.241302  -0.034684
     3  C    1.785243  -0.431119
     4  C    0.013981   0.169308
     5  O   -0.332518  -0.072138
     6  O   -0.118305  -0.000175
     7  C   -0.238813  -0.003605
     8  C   -0.419641  -0.001314
     9  H    0.173030   0.002054
    10  H    0.180612  -0.001452
    11  H    0.167991   0.000267
    12  H    0.125653   0.000440
    13  H    0.129466  -0.000250
    14  O   -0.191164   0.993069
    15  H    0.247394  -0.039084
 Sum of Mulliken charges =  -0.00000   1.00000

 Dipole moment (field-independent basis, Debye):
    X=             -0.2299    Y=             -4.6431    Z=             -0.1858  Tot=              4.6525
 Quadrupole moment (field-independent basis, Debye-Ang):
   XX=            -38.7906   YY=            -53.3268   ZZ=            -46.5406
   XY=             -4.9624   XZ=              0.4146   YZ=              4.0654

 Normal termination of Gaussian 16 at Mon May 12 04:03:59 2025.
