 Gaussian 16, Revision A.03,
 Gaussian 16:  ES64L-G16RevA.03 25-Dec-2016

 --------------------------
 # freq 6-311++g(d,p) m062x
 --------------------------

 -------------------
 Title Card Required
 -------------------
 Symbolic Z-matrix:
 Charge =  0 Multiplicity = 2

                         Standard orientation:
 ---------------------------------------------------------------------
 Center     Atomic      Atomic             Coordinates (Angstroms)
 Number     Number       Type             X           Y           Z
 ---------------------------------------------------------------------
      1          6           0        1.338163   -1.334333   -1.227641
      2          1           0        1.735349   -2.214141   -1.678534
      3          6           0        0.881187   -0.351337   -0.707573
      4          6           0        0.388044    0.943710   -0.211922
      5          8           0        1.006942    1.943822   -0.426304
      6          8           0       -0.763873    0.954013    0.451299
      7          6           0       -1.497489   -0.261909    0.691163
      8          6           0       -2.374225   -0.612320   -0.494888
      9          1           0       -0.801369   -1.062708    0.943927
     10          1           0       -2.096234   -0.034797    1.571857
     11          1           0       -3.040208    0.217817   -0.734262
     12          1           0       -1.772095   -0.845162   -1.374752
     13          1           0       -2.981114   -1.488169   -0.256023
     14          8           0        1.519112   -0.920359    1.470043
     15          1           0        2.444138   -0.695526    1.272662
 ---------------------------------------------------------------------

 SCF Done:  E(UM062X) =  -420.202539188     A.U. after   28 cycles

 The electronic state is 2-A.
 Alpha  occ. eigenvalues --  -19.68787 -19.67818 -19.62523 -10.70658 -10.60679
 Alpha  occ. eigenvalues --  -10.58554 -10.58279 -10.54193  -1.24957  -1.16360
 Alpha  occ. eigenvalues --   -1.14442  -0.90077  -0.88172  -0.77226  -0.73693
 Alpha  occ. eigenvalues --   -0.64150  -0.62074  -0.58195  -0.57186  -0.55988
 Alpha  occ. eigenvalues --   -0.52748  -0.51298  -0.49135  -0.46815  -0.45767
 Alpha  occ. eigenvalues --   -0.43722  -0.41964  -0.39674  -0.38097  -0.36799
 Alpha  occ. eigenvalues --   -0.36308
 Alpha virt. eigenvalues --   -0.01801  -0.00863   0.00525   0.00991   0.02023
 Alpha virt. eigenvalues --    0.02382   0.03635   0.04592   0.05571   0.06118
 Alpha virt. eigenvalues --    0.07138   0.07828   0.08697   0.08990   0.10535

  Beta  occ. eigenvalues --  -19.67818 -19.67206 -19.62536 -10.70650 -10.60680
  Beta  occ. eigenvalues --  -10.58508 -10.58227 -10.54193  -1.24957  -1.16384
  Beta  occ. eigenvalues --   -1.06813  -0.89648  -0.88164  -0.77154  -0.73586
  Beta  occ. eigenvalues --   -0.64060  -0.61876  -0.58033  -0.56646  -0.53530
  Beta  occ. eigenvalues --   -0.52651  -0.49435  -0.46914  -0.45744  -0.42025
  Beta  occ. eigenvalues --   -0.40369  -0.39802  -0.38982  -0.37452  -0.36197
  Beta virt. eigenvalues --   -0.09900  -0.01409  -0.00730   0.00588   0.01311
  Beta virt. eigenvalues --    0.02134   0.02511   0.03672   0.04612   0.05689
  Beta virt. eigenvalues --    0.06207   0.07240   0.08034   0.08730   0.09062

 Mulliken charges and spin densities:
               1          2
     1  C   -1.308360   0.136235
     2  H    0.219098  -0.006155
     3  C    1.214502  -0.070673
     4  C    0.002486   0.038113
     5  O   -0.240435  -0.006492
     6  O   -0.018892   0.000060
     7  C   -0.325001   0.001100
     8  C   -0.423403  -0.002401
     9  H    0.174621   0.001244
    10  H    0.209990  -0.000866
    11  H    0.185207  -0.000071
    12  H    0.136304   0.000652
    13  H    0.158171  -0.000123
    14  O   -0.232964   0.930087
    15  H    0.248676  -0.020711
 Sum of Mulliken charges =  -0.00000   1.00000

 Dipole moment (field-independent basis, Debye):
    X=             -0.3690    Y=             -4.1712    Z=             -0.5237  Tot=              4.2201
 Quadrupole moment (field-independent basis, Debye-Ang):
   XX=            -38.9617   YY=            -52.5802   ZZ=            -46.7356
   XY=             -4.3667   XZ=             -0.2265   YZ=              4.2291

  Exact polarizability:  71.957  -0.572  73.704  -4.628   4.921  66.013
 Approx polarizability:  76.697  -1.836  94.279  -8.843   8.250  75.389

                      1                      2                      3
                      A                      A                      A
 Frequencies --     58.8105                84.8062                98.4385
 Red. masses --      7.3124                 3.7494                 5.6502
 Frc consts  --      0.0149                 0.0159                 0.0323
 IR Inten    --      3.9769                 2.5102                 2.8601

                      4                      5                      6
                      A                      A                      A
 Frequencies --    114.6705               171.8888               199.8452
 Red. masses --      3.8302                 2.5851                 4.2238
 Frc consts  --      0.0297                 0.0450                 0.0994
 IR Inten    --      3.5970                 9.6213                 3.5186

                      7                      8                      9
                      A                      A                      A
 Frequencies --    213.9913               229.2368               289.5102
 Red. masses --      1.4262                 1.2404                 3.2796
 Frc consts  --      0.0385                 0.0384                 0.1620
 IR Inten    --     58.9596                 1.2446                14.7692

                     10                     11                     12
                      A                      A                      A
 Frequencies --    355.7770               408.5663               521.3685
 Red. masses --      2.9114                 3.6750                 1.0704
 Frc consts  --      0.2171                 0.3614                 0.1714
 IR Inten    --      1.8682                 6.4656               125.8238

                     13                     14                     15
                      A                      A                      A
 Frequencies --    558.3857               631.5736               726.3799
 Red. masses --      4.9833                 5.3223                 1.3361
 Frc consts  --      0.9154                 1.2508                 0.4154
 IR Inten    --     17.6865                 1.4874                35.2997

                     16                     17                     18
                      A                      A                      A
 Frequencies --    756.1691               760.7694               765.3577
 Red. masses --      4.4267                 2.3348                 2.4218
 Frc consts  --      1.4913                 0.7962                 0.8358
 IR Inten    --      1.7300                 0.5160                71.7329

                     19                     20                     21
                      A                      A                      A
 Frequencies --    810.2758               951.4986              1106.5765
 Red. masses --      1.1547                 2.2630                 3.2936
 Frc consts  --      0.4467                 1.2071                 2.3762
 IR Inten    --      3.5328                11.7017                42.6654

                     22                     23                     24
                      A                      A                      A
 Frequencies --   1132.7453              1183.1638              1270.7454
 Red. masses --      2.6559                 1.8652                 2.7386
 Frc consts  --      2.0079                 1.5384                 2.6055
 IR Inten    --     52.9475                42.9154               347.6104

                     25                     26                     27
                      A                      A                      A
 Frequencies --   1354.8044              1406.7426              1433.4485
 Red. masses --      1.2954                 1.2783                 1.3763
 Frc consts  --      1.4009                 1.4904                 1.6662
 IR Inten    --    116.7344                31.4614                18.4476

                     28                     29                     30
                      A                      A                      A
 Frequencies --   1493.2362              1503.7301              1532.2432
 Red. masses --      1.0411                 1.0470                 1.0989
 Frc consts  --      1.3677                 1.3949                 1.5201
 IR Inten    --      3.8468                 1.5741                12.5146

                     31                     32                     33
                      A                      A                      A
 Frequencies --   1860.1134              2227.8349              3071.5182
 Red. masses --     12.9451                 5.8002                 1.0354
 Frc consts  --     26.3897                16.9612                 5.7552
 IR Inten    --    499.7685                48.9930                 8.6237

                     34                     35                     36
                      A                      A                      A
 Frequencies --   3111.0788              3145.5741              3149.8503
 Red. masses --      1.0607                 1.1039                 1.1015
 Frc consts  --      6.0486                 6.4352                 6.4391
 IR Inten    --     10.0034                 5.0156                13.0212

                     37                     38                     39
                      A                      A                      A
 Frequencies --   3169.7124              3483.1989              3787.7628
 Red. masses --      1.1078                 1.1667                 1.0673
 Frc consts  --      6.5578                 8.3397                 9.0216
 IR Inten    --     17.3713                65.6763                38.7241

 - Thermochemistry -
 -------------------
 Temperature   298.150 Kelvin.  Pressure   1.00000 Atm.
 Atom     1 has atomic number  6 and mass  12.00000

 Molecular mass:   115.03952 amu.
 Principal axes and moments of inertia in atomic units:
                           1         2         3
     Eigenvalues --   789.293461103.684121291.60839
           X            0.99988   0.01013   0.01168
           Y           -0.01081   0.99815   0.05990
           Z           -0.01106  -0.06002   0.99814
 This molecule is an asymmetric top.
 Rotational symmetry number  1.
 Warning -- assumption of classical behavior for rotation
           may cause significant error
 Rotational temperatures (Kelvin)      0.10974     0.07848     0.06706
 Rotational constants (GHZ):           2.28653     1.63520     1.39728
 Zero-point vibrational energy     293871.0 (Joules/Mol)
                                   70.23686 (Kcal/Mol)
 Warning -- explicit consideration of  13 degrees of freedom as
           vibrations may cause significant error
 Vibrational temperatures:     84.62   122.02   141.63   164.99   247.31
          (Kelvin)            287.53   307.89   329.82   416.54   511.88
                              587.84   750.13   803.39   908.69  1045.10
                             1087.96  1094.58  1101.18  1165.81  1368.99
                             1592.12  1629.77  1702.31  1828.32  1949.26
                             2023.99  2062.41  2148.43  2163.53  2204.56
                             2676.29  3205.36  4419.23  4476.15  4525.78
                             4531.93  4560.51  5011.55  5449.75

 Zero-point correction=                           0.111930 (Hartree/Particle)
 Thermal correction to Energy=                    0.122245
 Thermal correction to Enthalpy=                  0.123189
 Thermal correction to Gibbs Free Energy=         0.075632
 Sum of electronic and zero-point Energies=           -419.3508112
 Sum of electronic and thermal Energies=              -420.080295
 Sum of electronic and thermal Enthalpies=            -420.079350
 Sum of electronic and thermal Free Energies=         -420.126907

                     E (Thermal)             CV                S
                      KCal/Mol        Cal/Mol-Kelvin    Cal/Mol-Kelvin
 Total                   76.710             34.585            100.092
 Electronic               0.000              0.000              1.377
 Translational            0.889              2.981             40.136
 Rotational               0.889              2.981             28.511
 Vibrational             74.932             28.623             30.068
 Vibration     1          0.596              1.974              4.497
 Vibration     2          0.601              1.960              3.776
 Vibration     3          0.604              1.950              3.485
 Vibration     4          0.608              1.937              3.188
 Vibration     5          0.626              1.877              2.415
 Vibration     6          0.638              1.840              2.135
 Vibration     7          0.644              1.820              2.009
 Vibration     8          0.652              1.796              1.885
 Vibration     9          0.686              1.693              1.477
 Vibration    10          0.731              1.563              1.140
 Vibration    11          0.773              1.452              0.932
 Vibration    12          0.876              1.203              0.607
 Vibration    13          0.914              1.121              0.527

 Normal termination of Gaussian 16 at Fri Mar 28 18:10:50 2025.
