 Gaussian 16, Revision A.03,
 Gaussian 16:  ES64L-G16RevA.03 25-Dec-2016

 --------------------------
 # ccsd(t)/6-311++g(d,p) sp
 --------------------------

 -------------------
 Title Card Required
 -------------------
 Symbolic Z-matrix:
 Charge =  0 Multiplicity = 2

                         Standard orientation:
 ---------------------------------------------------------------------
 Center     Atomic      Atomic             Coordinates (Angstroms)
 Number     Number       Type             X           Y           Z
 ---------------------------------------------------------------------
      1          6           0        1.352193   -1.372810   -1.145785
      2          1           0        1.719169   -2.247832   -1.631076
      3          6           0        0.958192   -0.421183   -0.497385
      4          6           0        0.411472    0.925413   -0.202381
      5          8           0        1.026009    1.906280   -0.494659
      6          8           0       -0.772510    0.977116    0.395002
      7          6           0       -1.518729   -0.223115    0.675992
      8          6           0       -2.365373   -0.618279   -0.517550
      9          1           0       -0.836568   -1.015493    0.985397
     10          1           0       -2.138838    0.048013    1.528950
     11          1           0       -3.019384    0.204481   -0.809290
     12          1           0       -1.739628   -0.888364   -1.370428
     13          1           0       -2.983072   -1.481346   -0.260819
     14          8           0        1.443392   -0.842962    1.395124
     15          1           0        2.396658   -0.683093    1.316186
 ---------------------------------------------------------------------

 SCF Done:  E(UHF) =  -417.969602852     A.U. after   36 cycles
 E2 =    -0.1258896571D+01 EUMP2 =    -0.41922849942328D+03
 CCSD(T)= -0.41934664925D+03

 The electronic state is 2-A.
 Alpha  occ. eigenvalues --  -20.63279 -20.60712 -20.54978 -11.41344 -11.29900
 Alpha  occ. eigenvalues --  -11.28080 -11.27315 -11.23157  -1.47394  -1.39131
 Alpha  occ. eigenvalues --   -1.37599  -1.08307  -1.04766  -0.91497  -0.87562
 Alpha  occ. eigenvalues --   -0.75896  -0.73210  -0.70006  -0.68628  -0.66800
 Alpha  occ. eigenvalues --   -0.65053  -0.62685  -0.57907  -0.56460  -0.54484
 Alpha  occ. eigenvalues --   -0.54205  -0.50580  -0.47170  -0.45333  -0.43831
 Alpha  occ. eigenvalues --   -0.42795
 Alpha virt. eigenvalues --    0.03214   0.04572   0.05259   0.06531   0.06984
 Alpha virt. eigenvalues --    0.08534   0.09161   0.10716   0.11057   0.11772
 Alpha virt. eigenvalues --    0.13162   0.13964   0.14614   0.14795   0.16254

  Beta  occ. eigenvalues --  -20.60652 -20.59514 -20.55511 -11.40951 -11.29916
  Beta  occ. eigenvalues --  -11.29199 -11.25871 -11.23155  -1.47521  -1.38387
  Beta  occ. eigenvalues --   -1.25832  -1.07413  -1.04757  -0.90704  -0.86645
  Beta  occ. eigenvalues --   -0.75306  -0.72430  -0.69648  -0.67237  -0.64563
  Beta  occ. eigenvalues --   -0.62806  -0.58325  -0.56158  -0.54551  -0.51242
  Beta  occ. eigenvalues --   -0.50708  -0.48605  -0.46585  -0.44853  -0.42902
  Beta virt. eigenvalues --    0.03298   0.03922   0.04571   0.06537   0.06723
  Beta virt. eigenvalues --    0.07684   0.08481   0.09968   0.11168   0.11524
  Beta virt. eigenvalues --    0.11720   0.13667   0.14388   0.14905   0.15314

 Mulliken charges and spin densities:
               1          2
     1  C   -0.652443   1.092362
     2  H    0.256958  -0.079133
     3  C    0.484418  -0.933600
     4  C    0.125216   0.193641
     5  O   -0.326192  -0.110860
     6  O   -0.105817  -0.000600
     7  C   -0.256352  -0.004730
     8  C   -0.394901  -0.004068
     9  H    0.181269   0.004390
    10  H    0.182266  -0.001770
    11  H    0.169146   0.000532
    12  H    0.123652   0.002711
    13  H    0.129262  -0.000707
    14  O   -0.168986   0.876265
    15  H    0.252505  -0.034434
 Sum of Mulliken charges =  -0.00000   1.00000

 Dipole moment (field-independent basis, Debye):
    X=             -0.3319    Y=             -4.6716    Z=             -0.1782  Tot=              4.6868
 Quadrupole moment (field-independent basis, Debye-Ang):
   XX=            -39.1987   YY=            -53.0758   ZZ=            -46.3434
   XY=             -4.9134   XZ=              0.4695   YZ=              4.4458

 -0=-419.2727899\MP4SDQ=-419.2855228\CCSD=-419.2918825\CCSD(T)=-419.346
 Normal termination of Gaussian 16 at Mon May 12 00:47:52 2025.
