 Gaussian 16, Revision A.03,
 Gaussian 16:  ES64L-G16RevA.03 25-Dec-2016

 --------------------------
 # freq 6-311++g(d,p) m062x
 --------------------------

 -------------------
 Title Card Required
 -------------------
 Symbolic Z-matrix:
 Charge =  0 Multiplicity = 2

                         Standard orientation:
 ---------------------------------------------------------------------
 Center     Atomic      Atomic             Coordinates (Angstroms)
 Number     Number       Type             X           Y           Z
 ---------------------------------------------------------------------
      1          6           0        1.347771   -1.349215   -1.194869
      2          1           0        1.735778   -2.226687   -1.658020
      3          6           0        0.906053   -0.372792   -0.646974
      4          6           0        0.396395    0.936667   -0.206848
      5          8           0        1.011801    1.931645   -0.451144
      6          8           0       -0.768794    0.962427    0.431599
      7          6           0       -1.506298   -0.248358    0.686020
      8          6           0       -2.370009   -0.617018   -0.503984
      9          1           0       -0.814754   -1.045921    0.960063
     10          1           0       -2.114402   -0.005343    1.556007
     11          1           0       -3.032657    0.209563   -0.763896
     12          1           0       -1.757571   -0.863209   -1.373136
     13          1           0       -2.979880   -1.488997   -0.258690
     14          8           0        1.493064   -0.891177    1.450697
     15          1           0        2.431450   -0.698276    1.288391
 ---------------------------------------------------------------------

 SCF Done:  E(UM062X) =  -420.200796435     A.U. after   26 cycles

 The electronic state is 2-A.
 Alpha  occ. eigenvalues --  -19.68375 -19.67830 -19.62513 -10.70651 -10.60679
 Alpha  occ. eigenvalues --  -10.58752 -10.58461 -10.54202  -1.24973  -1.16378
 Alpha  occ. eigenvalues --   -1.14177  -0.90237  -0.88186  -0.77224  -0.73764
 Alpha  occ. eigenvalues --   -0.64221  -0.62145  -0.58213  -0.57299  -0.55711
 Alpha  occ. eigenvalues --   -0.52739  -0.51297  -0.49019  -0.46825  -0.45772
 Alpha  occ. eigenvalues --   -0.43401  -0.41967  -0.39726  -0.37982  -0.36569
 Alpha  occ. eigenvalues --   -0.36224
 Alpha virt. eigenvalues --   -0.01644  -0.00845   0.00531   0.00985   0.02018
 Alpha virt. eigenvalues --    0.02394   0.03616   0.04592   0.05542   0.06117
 Alpha virt. eigenvalues --    0.07115   0.07809   0.08623   0.09030   0.10601

  Beta  occ. eigenvalues --  -19.67830 -19.66817 -19.62529 -10.70639 -10.60681
  Beta  occ. eigenvalues --  -10.58722 -10.58371 -10.54202  -1.24972  -1.16407
  Beta  occ. eigenvalues --   -1.06875  -0.89682  -0.88177  -0.77127  -0.73622
  Beta  occ. eigenvalues --   -0.64101  -0.61894  -0.58057  -0.56737  -0.53364
  Beta  occ. eigenvalues --   -0.52612  -0.49401  -0.46990  -0.45745  -0.42016
  Beta  occ. eigenvalues --   -0.40345  -0.39697  -0.39046  -0.37493  -0.36155
  Beta virt. eigenvalues --   -0.09936  -0.01133  -0.00693   0.00596   0.01295
  Beta virt. eigenvalues --    0.02137   0.02534   0.03656   0.04592   0.05666
  Beta virt. eigenvalues --    0.06200   0.07224   0.08001   0.08604   0.09084

 Mulliken charges and spin densities:
               1          2
     1  C   -1.209004   0.150831
     2  H    0.224692  -0.008925
     3  C    0.954151  -0.064480
     4  C    0.146750   0.048200
     5  O   -0.238060  -0.007957
     6  O   -0.015742   0.000565
     7  C   -0.332246   0.000622
     8  C   -0.417673  -0.002576
     9  H    0.177683   0.002635
    10  H    0.211321  -0.001080
    11  H    0.184740  -0.000104
    12  H    0.136837   0.001216
    13  H    0.158113  -0.000189
    14  O   -0.228876   0.901608
    15  H    0.247313  -0.020365
 Sum of Mulliken charges =  -0.00000   1.00000

 Dipole moment (field-independent basis, Debye):
    X=             -0.3932    Y=             -4.1969    Z=             -0.5222  Tot=              4.2475
 Quadrupole moment (field-independent basis, Debye-Ang):
   XX=            -39.0507   YY=            -52.4270   ZZ=            -46.6958
   XY=             -4.4259   XZ=             -0.2448   YZ=              4.4062

  Exact polarizability:  72.099  -0.608  73.464  -3.868   4.779  68.766
 Approx polarizability:  76.643  -1.620  93.622  -8.530   8.326  78.332

                      1                      2                      3
                      A                      A                      A
 Frequencies --     57.7145                83.9029               101.4518
 Red. masses --      6.9009                 3.4609                 5.6300
 Frc consts  --      0.0135                 0.0144                 0.0341
 IR Inten    --      4.3493                 1.6206                 1.9184

                      4                      5                      6
                      A                      A                      A
 Frequencies --    114.1341               169.4874               197.0125
 Red. masses --      4.3413                 2.9315                 5.2883
 Frc consts  --      0.0333                 0.0496                 0.1209
 IR Inten    --      5.3355                 7.7239                12.7046

                      7                      8                      9
                      A                      A                      A
 Frequencies --    208.3299               228.8757               267.2059
 Red. masses --      1.5953                 1.2336                 2.1406
 Frc consts  --      0.0408                 0.0381                 0.0900
 IR Inten    --     39.4044                 0.7299                29.1877

                     10                     11                     12
                      A                      A                      A
 Frequencies --    356.5889               409.4756               556.9907
 Red. masses --      2.8921                 3.6469                 3.4451
 Frc consts  --      0.2167                 0.3603                 0.6297
 IR Inten    --      1.7553                 6.2925                20.7472

                     13                     14                     15
                      A                      A                      A
 Frequencies --    568.0985               632.2696               722.6577
 Red. masses --      1.2219                 4.7082                 1.3438
 Frc consts  --      0.2323                 1.1089                 0.4135
 IR Inten    --    109.1523                 2.2950                34.4172

                     16                     17                     18
                      A                      A                      A
 Frequencies --    752.8472               758.4614               761.3634
 Red. masses --      1.6722                 3.9633                 4.5715
 Frc consts  --      0.5584                 1.3433                 1.5613
 IR Inten    --     10.9590                 0.1304                66.1623

                     19                     20                     21
                      A                      A                      A
 Frequencies --    809.2244               951.7152              1105.9152
 Red. masses --      1.1573                 2.2609                 3.3198
 Frc consts  --      0.4465                 1.2066                 2.3923
 IR Inten    --      3.4614                11.8957                42.4167

                     22                     23                     24
                      A                      A                      A
 Frequencies --   1132.5817              1182.7965              1270.8281
 Red. masses --      2.6396                 1.8678                 2.7172
 Frc consts  --      1.9949                 1.5396                 2.5855
 IR Inten    --     52.9169                43.7555               345.9433

                     25                     26                     27
                      A                      A                      A
 Frequencies --   1354.6579              1406.1527              1432.9583
 Red. masses --      1.3000                 1.2789                 1.3773
 Frc consts  --      1.4056                 1.4899                 1.6662
 IR Inten    --    117.0005                31.9825                18.4231

                     28                     29                     30
                      A                      A                      A
 Frequencies --   1493.0174              1503.4442              1532.7616
 Red. masses --      1.0409                 1.0467                 1.0987
 Frc consts  --      1.3671                 1.3940                 1.5209
 IR Inten    --      3.9983                 1.6310                12.1573

                     31                     32                     33
                      A                      A                      A
 Frequencies --   1861.9984              2216.8594              3071.4876
 Red. masses --     12.9460                 5.8447                 1.0354
 Frc consts  --     26.4451                16.9235                 5.7550
 IR Inten    --    503.9494                53.1370                 8.6273

                     34                     35                     36
                      A                      A                      A
 Frequencies --   3111.9933              3145.4306              3150.2631
 Red. masses --      1.0606                 1.1036                 1.1018
 Frc consts  --      6.0515                 6.4329                 6.4423
 IR Inten    --     10.0922                 6.0898                12.4989

                     37                     38                     39
                      A                      A                      A
 Frequencies --   3170.0892              3483.1898              3796.6521
 Red. masses --      1.1080                 1.1649                 1.0673
 Frc consts  --      6.5603                 8.3271                 9.0646
 IR Inten    --     16.5786                66.2221                42.4143

 - Thermochemistry -
 -------------------
 Temperature   298.150 Kelvin.  Pressure   1.00000 Atm.
 Atom     1 has atomic number  6 and mass  12.00000

 Molecular mass:   115.03952 amu.
 Principal axes and moments of inertia in atomic units:
                           1         2         3
     Eigenvalues --   776.525831093.599261288.59158
           X            0.99988   0.00962   0.01216
           Y           -0.01032   0.99824   0.05833
           Z           -0.01158  -0.05845   0.99822
 This molecule is an asymmetric top.
 Rotational symmetry number  1.
 Warning -- assumption of classical behavior for rotation
           may cause significant error
 Rotational temperatures (Kelvin)      0.11154     0.07920     0.06722
 Rotational constants (GHZ):           2.32412     1.65028     1.40055
 Zero-point vibrational energy     293867.9 (Joules/Mol)
                                   70.23612 (Kcal/Mol)
 Warning -- explicit consideration of  13 degrees of freedom as
           vibrations may cause significant error
 Vibrational temperatures:     83.04   120.72   145.97   164.21   243.85
          (Kelvin)            283.46   299.74   329.30   384.45   513.05
                              589.14   801.39   817.37   909.69  1039.74
                             1083.18  1091.26  1095.43  1164.29  1369.31
                             1591.17  1629.53  1701.78  1828.44  1949.05
                             2023.14  2061.71  2148.12  2163.12  2205.30
                             2679.00  3189.57  4419.19  4477.46  4525.57
                             4532.53  4561.05  5011.53  5462.54

 Zero-point correction=                           0.111928 (Hartree/Particle)
 Thermal correction to Energy=                    0.122263
 Thermal correction to Enthalpy=                  0.123207
 Thermal correction to Gibbs Free Energy=         0.075587
 Sum of electronic and zero-point Energies=           -419.3493419
 Sum of electronic and thermal Energies=              -420.078533
 Sum of electronic and thermal Enthalpies=            -420.077589
 Sum of electronic and thermal Free Energies=         -420.125209

                     E (Thermal)             CV                S
                      KCal/Mol        Cal/Mol-Kelvin    Cal/Mol-Kelvin
 Total                   76.721             34.562            100.224
 Electronic               0.000              0.000              1.377
 Translational            0.889              2.981             40.136
 Rotational               0.889              2.981             28.483
 Vibrational             74.944             28.600             30.228
 Vibration     1          0.596              1.974              4.534
 Vibration     2          0.601              1.960              3.797
 Vibration     3          0.604              1.948              3.426
 Vibration     4          0.607              1.938              3.197
 Vibration     5          0.625              1.880              2.441
 Vibration     6          0.636              1.844              2.161
 Vibration     7          0.642              1.828              2.058
 Vibration     8          0.652              1.797              1.888
 Vibration     9          0.672              1.733              1.614
 Vibration    10          0.732              1.562              1.137
 Vibration    11          0.774              1.450              0.928
 Vibration    12          0.912              1.124              0.530
 Vibration    13          0.924              1.100              0.508

 Normal termination of Gaussian 16 at Fri Mar 28 17:31:20 2025.
