 Gaussian 16, Revision A.03,
 Gaussian 16:  ES64L-G16RevA.03 25-Dec-2016

 --------------------------
 # freq 6-311++g(d,p) m062x
 --------------------------

 -------------------
 Title Card Required
 -------------------
 Symbolic Z-matrix:
 Charge =  0 Multiplicity = 2

                         Standard orientation:
 ---------------------------------------------------------------------
 Center     Atomic      Atomic             Coordinates (Angstroms)
 Number     Number       Type             X           Y           Z
 ---------------------------------------------------------------------
      1          6           0        1.351577   -1.382718   -1.129870
      2          1           0        1.714707   -2.262719   -1.610043
      3          6           0        0.985488   -0.446937   -0.408314
      4          6           0        0.416377    0.920828   -0.206017
      5          8           0        1.032918    1.895107   -0.513514
      6          8           0       -0.773071    0.983497    0.378390
      7          6           0       -1.523484   -0.211790    0.671047
      8          6           0       -2.363625   -0.618484   -0.523063
      9          1           0       -0.846245   -1.001796    0.996719
     10          1           0       -2.148044    0.071618    1.516650
     11          1           0       -3.013619    0.202531   -0.828326
     12          1           0       -1.733038   -0.899333   -1.369249
     13          1           0       -2.984895   -1.477317   -0.260956
     14          8           0        1.419879   -0.819761    1.361398
     15          1           0        2.375331   -0.669128    1.322316
 ---------------------------------------------------------------------

 SCF Done:  E(UM062X) =  -420.200393914     A.U. after   22 cycles

 The electronic state is 2-A.
 Alpha  occ. eigenvalues --  -19.68079 -19.65359 -19.62876 -10.70818 -10.62654
 Alpha  occ. eigenvalues --  -10.60798 -10.60473 -10.54443  -1.25306  -1.16711
 Alpha  occ. eigenvalues --   -1.11750  -0.91603  -0.88419  -0.77484  -0.74317
 Alpha  occ. eigenvalues --   -0.65018  -0.62580  -0.58448  -0.57980  -0.54295
 Alpha  occ. eigenvalues --   -0.52943  -0.50646  -0.48622  -0.46731  -0.45954
 Alpha  occ. eigenvalues --   -0.42151  -0.40908  -0.40380  -0.37968  -0.36918
 Alpha  occ. eigenvalues --   -0.33042
 Alpha virt. eigenvalues --   -0.01175  -0.00656   0.00503   0.00889   0.01748
 Alpha virt. eigenvalues --    0.02403   0.03228   0.04436   0.05350   0.05966
 Alpha virt. eigenvalues --    0.06966   0.07812   0.08288   0.09001   0.10460

  Beta  occ. eigenvalues --  -19.68070 -19.64356 -19.62899 -10.70777 -10.62783
  Beta  occ. eigenvalues --  -10.60801 -10.60029 -10.54442  -1.25282  -1.16742
  Beta  occ. eigenvalues --   -1.08143  -0.89829  -0.88388  -0.77073  -0.73718
  Beta  occ. eigenvalues --   -0.64483  -0.62083  -0.58374  -0.57420  -0.53092
  Beta  occ. eigenvalues --   -0.52502  -0.49405  -0.47603  -0.45908  -0.42297
  Beta  occ. eigenvalues --   -0.41959  -0.39670  -0.38702  -0.37951  -0.35879
  Beta virt. eigenvalues --   -0.10671  -0.00937  -0.00081   0.00687   0.01379
  Beta virt. eigenvalues --    0.01945   0.02712   0.03322   0.04320   0.05497
  Beta virt. eigenvalues --    0.06029   0.07047   0.07780   0.08171   0.08937

 Mulliken charges and spin densities:
               1          2
     1  C   -0.007267   0.712638
     2  H    0.247485  -0.028745
     3  C   -0.090071  -0.231699
     4  C   -0.006472   0.048229
     5  O   -0.240739  -0.010148
     6  O   -0.010732   0.002508
     7  C   -0.358148  -0.002563
     8  C   -0.395520  -0.001543
     9  H    0.196174   0.006214
    10  H    0.213518  -0.001027
    11  H    0.187002  -0.000079
    12  H    0.128249   0.004056
    13  H    0.160437  -0.000841
    14  O   -0.273271   0.511655
    15  H    0.249355  -0.008653
 Sum of Mulliken charges =  -0.00000   1.00000

 Dipole moment (field-independent basis, Debye):
    X=             -0.6933    Y=             -4.1392    Z=             -1.1837  Tot=              4.3606
 Quadrupole moment (field-independent basis, Debye-Ang):
   XX=            -39.7786   YY=            -51.9672   ZZ=            -47.3872
   XY=             -4.2383   XZ=             -1.2778   YZ=              5.3585

  Exact polarizability:  72.148  -0.139  71.641  -2.200   4.248  75.459
 Approx polarizability:  76.355   0.497  88.261  -6.066   6.851  92.275

 ******    1 imaginary frequencies (negative Signs) ******

                      1                      2                      3
                      A                      A                      A
 Frequencies --   -675.8624                86.6371               101.2555
 Red. masses --     12.5100                 3.5516                 4.0308
 Frc consts  --      3.3668                 0.0157                 0.0243
 IR Inten    --      2.0944                 1.7206                 0.7182

                      4                      5                      6
                      A                      A                      A
 Frequencies --    119.4545               181.2742               203.2662
 Red. masses --      4.1204                 1.5013                 2.3424
 Frc consts  --      0.0346                 0.0291                 0.0570
 IR Inten    --      4.1321                70.9042                 6.7484

                      7                      8                      9
                      A                      A                      A
 Frequencies --    212.1865               240.2705               282.3328
 Red. masses --      2.3779                 1.5552                 2.7703
 Frc consts  --      0.0631                 0.0529                 0.1301
 IR Inten    --     10.6102                 1.9793                 8.0662

                     10                     11                     12
                      A                      A                      A
 Frequencies --    380.8320               414.8806               496.7132
 Red. masses --      2.9842                 3.4947                 1.4364
 Frc consts  --      0.2550                 0.3544                 0.2088
 IR Inten    --      1.8920                 4.3698                36.8418

                     13                     14                     15
                      A                      A                      A
 Frequencies --    561.5207               630.1309               716.0984
 Red. masses --      5.2393                 4.4616                 1.3489
 Frc consts  --      0.9733                 1.0438                 0.4075
 IR Inten    --     17.4239                 6.9211                36.6759

                     16                     17                     18
                      A                      A                      A
 Frequencies --    748.1886               751.5750               807.2636
 Red. masses --      5.6772                 8.9250                 1.1284
 Frc consts  --      1.8724                 2.9703                 0.4333
 IR Inten    --     13.3984                14.5612                 2.9463

                     19                     20                     21
                      A                      A                      A
 Frequencies --    930.0426               949.6198              1100.2416
 Red. masses --      1.1591                 2.2627                 3.6474
 Frc consts  --      0.5907                 1.2022                 2.6014
 IR Inten    --     68.1676                15.1573                49.5144

                     22                     23                     24
                      A                      A                      A
 Frequencies --   1128.5804              1181.5295              1266.4276
 Red. masses --      2.3855                 1.9201                 2.7133
 Frc consts  --      1.7901                 1.5793                 2.5639
 IR Inten    --     41.9880                52.4964               330.5038

                     25                     26                     27
                      A                      A                      A
 Frequencies --   1354.4735              1404.9475              1432.4049
 Red. masses --      1.3050                 1.2729                 1.3731
 Frc consts  --      1.4106                 1.4803                 1.6600
 IR Inten    --    111.9606                28.7772                16.9234

                     28                     29                     30
                      A                      A                      A
 Frequencies --   1492.3232              1501.8613              1538.6881
 Red. masses --      1.0401                 1.0472                 1.0945
 Frc consts  --      1.3648                 1.3917                 1.5267
 IR Inten    --      4.7548                 1.7014                 9.5861

                     31                     32                     33
                      A                      A                      A
 Frequencies --   1870.5579              1955.1708              3069.6994
 Red. masses --     12.6061                 6.8802                 1.0355
 Frc consts  --     25.9879                15.4960                 5.7491
 IR Inten    --    509.7211                45.2333                 8.1484

                     34                     35                     36
                      A                      A                      A
 Frequencies --   3115.1354              3142.3922              3151.7046
 Red. masses --      1.0610                 1.1025                 1.1022
 Frc consts  --      6.0663                 6.4144                 6.4504
 IR Inten    --      8.6040                10.3789                11.3633

                     37                     38                     39
                      A                      A                      A
 Frequencies --   3171.0516              3456.9333              3836.1840
 Red. masses --      1.1082                 1.1333                 1.0678
 Frc consts  --      6.5659                 7.9795                 9.2582
 IR Inten    --     13.7120                75.6753                68.1173

 - Thermochemistry -
 -------------------
 Temperature   298.150 Kelvin.  Pressure   1.00000 Atm.
 Atom     1 has atomic number  6 and mass  12.00000

 Molecular mass:   115.03952 amu.
 Principal axes and moments of inertia in atomic units:
                           1         2         3
     Eigenvalues --   737.998351060.841541278.83437
           X            0.99987   0.00900   0.01306
           Y           -0.00970   0.99848   0.05423
           Z           -0.01255  -0.05435   0.99844
 This molecule is an asymmetric top.
 Rotational symmetry number  1.
 Warning -- assumption of classical behavior for rotation
           may cause significant error
 Rotational temperatures (Kelvin)      0.11736     0.08165     0.06773
 Rotational constants (GHZ):           2.44545     1.70124     1.41124
    1 imaginary frequencies ignored.
 Zero-point vibrational energy     292988.5 (Joules/Mol)
                                   70.02593 (Kcal/Mol)
 Warning -- explicit consideration of  12 degrees of freedom as
           vibrations may cause significant error
 Vibrational temperatures:    124.65   145.68   171.87   260.81   292.45
          (Kelvin)            305.29   345.70   406.21   547.93   596.92
                              714.66   807.90   906.62  1030.31  1076.48
                             1081.35  1161.47  1338.12  1366.29  1583.00
                             1623.78  1699.96  1822.11  1948.79  2021.41
                             2060.91  2147.12  2160.84  2213.83  2691.32
                             2813.05  4416.61  4481.99  4521.20  4534.60
                             4562.44  4973.76  5519.41

 Zero-point correction=                           0.111593 (Hartree/Particle)
 Thermal correction to Energy=                    0.121005
 Thermal correction to Enthalpy=                  0.121949
 Thermal correction to Gibbs Free Energy=         0.076813
 Sum of electronic and zero-point Energies=           -419.3499456
 Sum of electronic and thermal Energies=              -420.079389
 Sum of electronic and thermal Enthalpies=            -420.078444
 Sum of electronic and thermal Free Energies=         -420.123581

                     E (Thermal)             CV                S
                      KCal/Mol        Cal/Mol-Kelvin    Cal/Mol-Kelvin
 Total                   75.932             32.398             94.997
 Electronic               0.000              0.000              1.377
 Translational            0.889              2.981             40.136
 Rotational               0.889              2.981             28.395
 Vibrational             74.154             26.436             25.089
 Vibration     1          0.601              1.959              3.735
 Vibration     2          0.604              1.948              3.430
 Vibration     3          0.609              1.933              3.109
 Vibration     4          0.630              1.865              2.315
 Vibration     5          0.639              1.835              2.103
 Vibration     6          0.643              1.822              2.025
 Vibration     7          0.657              1.779              1.801
 Vibration     8          0.681              1.706              1.519
 Vibration     9          0.751              1.511              1.036
 Vibration    10          0.778              1.438              0.910
 Vibration    11          0.852              1.257              0.666
 Vibration    12          0.917              1.115              0.521

 Normal termination of Gaussian 16 at Fri Mar 28 15:09:54 2025.
