 Gaussian 16, Revision A.03,
 Gaussian 16:  ES64L-G16RevA.03 25-Dec-2016

 --------------------------
 # ccsd(t)/6-311++g(d,p) sp
 --------------------------

 -------------------
 Title Card Required
 -------------------
 Symbolic Z-matrix:
 Charge =  0 Multiplicity = 2

                         Standard orientation:
 ---------------------------------------------------------------------
 Center     Atomic      Atomic             Coordinates (Angstroms)
 Number     Number       Type             X           Y           Z
 ---------------------------------------------------------------------
      1          6           0        1.350625   -1.356936   -1.177585
      2          1           0        1.731456   -2.232621   -1.649958
      3          6           0        0.921646   -0.386671   -0.605366
      4          6           0        0.401680    0.932706   -0.203881
      5          8           0        1.015779    1.923760   -0.465252
      6          8           0       -0.770686    0.967187    0.420044
      7          6           0       -1.510720   -0.240389    0.682892
      8          6           0       -2.368233   -0.618049   -0.508703
      9          1           0       -0.822059   -1.036348    0.968249
     10          1           0       -2.123211    0.011532    1.547251
     11          1           0       -3.028350    0.207130   -0.779220
     12          1           0       -1.750855   -0.871704   -1.372291
     13          1           0       -2.980390   -1.487417   -0.259911
     14          8           0        1.477556   -0.875736    1.435621
     15          1           0        2.422228   -0.696222    1.298429
 ---------------------------------------------------------------------

 SCF Done:  E(UHF) =  -417.976560368     A.U. after   41 cycles
 E2 =    -0.1261674083D+01 EUMP2 =    -0.41923823445163D+03
 CCSD(T)= -0.41934824784D+03

 The electronic state is 2-A.
 Alpha  occ. eigenvalues --  -20.63949 -20.60738 -20.55036 -11.41425 -11.29893
 Alpha  occ. eigenvalues --  -11.27708 -11.26695 -11.23097  -1.47375  -1.39684
 Alpha  occ. eigenvalues --   -1.37630  -1.07973  -1.04726  -0.91530  -0.87474
 Alpha  occ. eigenvalues --   -0.75730  -0.73269  -0.69932  -0.68600  -0.67607
 Alpha  occ. eigenvalues --   -0.65392  -0.62769  -0.58113  -0.56754  -0.54550
 Alpha  occ. eigenvalues --   -0.54410  -0.50589  -0.47236  -0.45584  -0.43512
 Alpha  occ. eigenvalues --   -0.42661
 Alpha virt. eigenvalues --    0.03216   0.04562   0.05254   0.06549   0.07008
 Alpha virt. eigenvalues --    0.08441   0.09133   0.10153   0.11089   0.11756
 Alpha virt. eigenvalues --    0.13204   0.13910   0.14782   0.14881   0.16175

  Beta  occ. eigenvalues --  -20.60687 -20.59927 -20.55503 -11.41109 -11.29905
  Beta  occ. eigenvalues --  -11.28029 -11.26130 -11.23096  -1.47493  -1.38319
  Beta  occ. eigenvalues --   -1.24886  -1.07496  -1.04724  -0.90962  -0.86933
  Beta  occ. eigenvalues --   -0.75363  -0.72688  -0.69525  -0.66903  -0.64576
  Beta  occ. eigenvalues --   -0.62866  -0.58418  -0.55869  -0.54569  -0.51483
  Beta  occ. eigenvalues --   -0.50699  -0.48368  -0.46520  -0.43975  -0.42837
  Beta virt. eigenvalues --    0.03285   0.04203   0.04560   0.06568   0.06816
  Beta virt. eigenvalues --    0.07983   0.08474   0.09853   0.10752   0.11308
  Beta virt. eigenvalues --    0.11682   0.13781   0.14308   0.14904   0.15278

 Mulliken charges and spin densities:
               1          2
     1  C   -1.463353   0.722550
     2  H    0.248827  -0.054239
     3  C    1.196825  -0.680562
     4  C    0.251097   0.195670
     5  O   -0.325906  -0.097823
     6  O   -0.109786  -0.000380
     7  C   -0.246842  -0.003509
     8  C   -0.407954  -0.002878
     9  H    0.176062   0.003102
    10  H    0.181919  -0.001751
    11  H    0.168024   0.000384
    12  H    0.126868   0.001548
    13  H    0.129005  -0.000473
    14  O   -0.173561   0.955937
    15  H    0.248775  -0.037576
 Sum of Mulliken charges =  -0.00000   1.00000

 Dipole moment (field-independent basis, Debye):
    X=             -0.2473    Y=             -4.6778    Z=             -0.0838  Tot=              4.6850
 Quadrupole moment (field-independent basis, Debye-Ang):
   XX=            -38.9280   YY=            -53.1674   ZZ=            -46.3338
   XY=             -5.0051   XZ=              0.5828   YZ=              4.2028

 Normal termination of Gaussian 16 at Mon May 12 12:11:30 2025.
