 Gaussian 16, Revision A.03,
 Gaussian 16:  ES64L-G16RevA.03 25-Dec-2016

 --------------------------
 # ccsd(t)/6-311++g(d,p) sp
 --------------------------

 -------------------
 Title Card Required
 -------------------
 Symbolic Z-matrix:
 Charge =  0 Multiplicity = 2

                         Standard orientation:
 ---------------------------------------------------------------------
 Center     Atomic      Atomic             Coordinates (Angstroms)
 Number     Number       Type             X           Y           Z
 ---------------------------------------------------------------------
      1          6           0        1.351107   -1.384314   -1.127285
      2          1           0        1.714764   -2.266829   -1.602789
      3          6           0        0.992080   -0.452940   -0.386080
      4          6           0        0.417486    0.919575   -0.207131
      5          8           0        1.034406    1.892699   -0.517457
      6          8           0       -0.773200    0.984865    0.374823
      7          6           0       -1.524550   -0.209304    0.669868
      8          6           0       -2.363238   -0.618503   -0.524353
      9          1           0       -0.848692   -0.998980    0.999079
     10          1           0       -2.150113    0.076668    1.513862
     11          1           0       -3.012320    0.202144   -0.832518
     12          1           0       -1.731525   -0.901630   -1.369031
     13          1           0       -2.985311   -1.476416   -0.261150
     14          8           0        1.414517   -0.814588    1.352506
     15          1           0        2.370105   -0.665846    1.323462
 ---------------------------------------------------------------------

 SCF Done:  E(UHF) =  -417.967717012     A.U. after   30 cycles
 E2 =    -0.1261878190D+01 EUMP2 =    -0.41922959520217D+03
 CCSD(T)= -0.41935188210D+03

 The electronic state is 2-A.
 Alpha  occ. eigenvalues --  -20.61940 -20.60768 -20.55131 -11.41281 -11.29952
 Alpha  occ. eigenvalues --  -11.29476 -11.28890 -11.23296  -1.47479  -1.37775
 Alpha  occ. eigenvalues --   -1.37679  -1.08932  -1.04865  -0.91575  -0.87775
 Alpha  occ. eigenvalues --   -0.76247  -0.73143  -0.69974  -0.68633  -0.65933
 Alpha  occ. eigenvalues --   -0.63707  -0.62617  -0.57812  -0.55976  -0.54510
 Alpha  occ. eigenvalues --   -0.53579  -0.50641  -0.47468  -0.45281  -0.44451
 Alpha  occ. eigenvalues --   -0.42748
 Alpha virt. eigenvalues --    0.03180   0.04571   0.05320   0.06522   0.06936
 Alpha virt. eigenvalues --    0.08566   0.09153   0.10959   0.11354   0.11749
 Alpha virt. eigenvalues --    0.13144   0.13931   0.14395   0.14685   0.16237

  Beta  occ. eigenvalues --  -20.60710 -20.58860 -20.55607 -11.40877 -11.31677
  Beta  occ. eigenvalues --  -11.29970 -11.26122 -11.23293  -1.47582  -1.38424
  Beta  occ. eigenvalues --   -1.27723  -1.07082  -1.04842  -0.90536  -0.86318
  Beta  occ. eigenvalues --   -0.75347  -0.72218  -0.69856  -0.67614  -0.64626
  Beta  occ. eigenvalues --   -0.62809  -0.58213  -0.56523  -0.54590  -0.50947
  Beta  occ. eigenvalues --   -0.50771  -0.49140  -0.46938  -0.46042  -0.43025
  Beta virt. eigenvalues --    0.03285   0.03573   0.04573   0.06431   0.06605
  Beta virt. eigenvalues --    0.07373   0.08429   0.09951   0.11080   0.11636
  Beta virt. eigenvalues --    0.12271   0.13431   0.14218   0.14940   0.15469

 Mulliken charges and spin densities:
               1          2
     1  C   -0.164785   1.439661
     2  H    0.257205  -0.100262
     3  C    0.132968  -1.086599
     4  C    0.013056   0.181272
     5  O   -0.329023  -0.097477
     6  O   -0.105371  -0.000639
     7  C   -0.267741  -0.006587
     8  C   -0.384965  -0.003168
     9  H    0.190215   0.005348
    10  H    0.181857  -0.001643
    11  H    0.169867   0.000615
    12  H    0.117543   0.003111
    13  H    0.130950  -0.000862
    14  O   -0.202921   0.693980
    15  H    0.261145  -0.026749
 Sum of Mulliken charges =  -0.00000   1.00000

 Dipole moment (field-independent basis, Debye):
    X=             -0.4648    Y=             -4.6450    Z=             -0.5310  Tot=              4.6983
 Quadrupole moment (field-independent basis, Debye-Ang):
   XX=            -39.5002   YY=            -53.0019   ZZ=            -46.8655
   XY=             -4.7675   XZ=             -0.0454   YZ=              4.8293

 Normal termination of Gaussian 16 at Mon May 12 18:28:01 2025.
