 Gaussian 16, Revision A.03,
 Gaussian 16:  ES64L-G16RevA.03 25-Dec-2016

 --------------------------
 # freq 6-311++g(d,p) m062x
 --------------------------

 -------------------
 Title Card Required
 -------------------
 Symbolic Z-matrix:
 Charge =  0 Multiplicity = 2

                         Standard orientation:
 ---------------------------------------------------------------------
 Center     Atomic      Atomic             Coordinates (Angstroms)
 Number     Number       Type             X           Y           Z
 ---------------------------------------------------------------------
      1          6           0        1.352193   -1.372810   -1.145785
      2          1           0        1.719169   -2.247832   -1.631076
      3          6           0        0.958192   -0.421183   -0.497385
      4          6           0        0.411472    0.925413   -0.202381
      5          8           0        1.026009    1.906280   -0.494659
      6          8           0       -0.772510    0.977116    0.395002
      7          6           0       -1.518729   -0.223115    0.675992
      8          6           0       -2.365373   -0.618279   -0.517550
      9          1           0       -0.836568   -1.015493    0.985397
     10          1           0       -2.138838    0.048013    1.528950
     11          1           0       -3.019384    0.204481   -0.809290
     12          1           0       -1.739628   -0.888364   -1.370428
     13          1           0       -2.983072   -1.481346   -0.260819
     14          8           0        1.443392   -0.842962    1.395124
     15          1           0        2.396658   -0.683093    1.316186
 ---------------------------------------------------------------------

 SCF Done:  E(UM062X) =  -420.196747656     A.U. after   24 cycles

 The electronic state is 2-A.
 Alpha  occ. eigenvalues --  -19.67990 -19.66488 -19.62709 -10.70812 -10.60743
 Alpha  occ. eigenvalues --  -10.60621 -10.59679 -10.54336  -1.25190  -1.16589
 Alpha  occ. eigenvalues --   -1.12622  -0.91120  -0.88328  -0.77383  -0.74105
 Alpha  occ. eigenvalues --   -0.64698  -0.62508  -0.58315  -0.57673  -0.54622
 Alpha  occ. eigenvalues --   -0.52854  -0.50948  -0.48726  -0.46790  -0.45890
 Alpha  occ. eigenvalues --   -0.42097  -0.41778  -0.40160  -0.37913  -0.36766
 Alpha  occ. eigenvalues --   -0.34655
 Alpha virt. eigenvalues --   -0.01400  -0.00763   0.00517   0.00975   0.01852
 Alpha virt. eigenvalues --    0.02383   0.03413   0.04487   0.05427   0.06040
 Alpha virt. eigenvalues --    0.07020   0.07809   0.08348   0.09022   0.10583

  Beta  occ. eigenvalues --  -19.67985 -19.65136 -19.62734 -10.70786 -10.60745
  Beta  occ. eigenvalues --  -10.60683 -10.59404 -10.54336  -1.25180  -1.16630
  Beta  occ. eigenvalues --   -1.07268  -0.89932  -0.88310  -0.77142  -0.73772
  Beta  occ. eigenvalues --   -0.64361  -0.62097  -0.58241  -0.57124  -0.53025
  Beta  occ. eigenvalues --   -0.52310  -0.49403  -0.47331  -0.45844  -0.42085
  Beta  occ. eigenvalues --   -0.40881  -0.39634  -0.38682  -0.37755  -0.36099
  Beta virt. eigenvalues --   -0.10849  -0.00884  -0.00238   0.00639   0.01281
  Beta virt. eigenvalues --    0.02023   0.02612   0.03471   0.04416   0.05564
  Beta virt. eigenvalues --    0.06109   0.07121   0.07867   0.08290   0.09015

 Mulliken charges and spin densities:
               1          2
     1  C   -0.324377   0.419375
     2  H    0.243035  -0.020745
     3  C    0.142898  -0.144430
     4  C    0.061406   0.041885
     5  O   -0.238546  -0.011792
     6  O   -0.009898   0.001769
     7  C   -0.351612  -0.000596
     8  C   -0.401639  -0.002691
     9  H    0.190194   0.005491
    10  H    0.213128  -0.001152
    11  H    0.186157  -0.000108
    12  H    0.132568   0.003263
    13  H    0.159178  -0.000567
    14  O   -0.245895   0.727322
    15  H    0.243402  -0.017024
 Sum of Mulliken charges =  -0.00000   1.00000

 Dipole moment (field-independent basis, Debye):
    X=             -0.5885    Y=             -4.1691    Z=             -0.9220  Tot=              4.3102
 Quadrupole moment (field-independent basis, Debye-Ang):
   XX=            -39.5403   YY=            -52.0670   ZZ=            -46.9329
   XY=             -4.3282   XZ=             -0.9074   YZ=              5.1038

  Exact polarizability:  72.422  -0.402  72.495  -1.459   4.509  78.753
 Approx polarizability:  76.443  -0.447  90.928  -6.953   8.260  89.842

 ******    1 imaginary frequencies (negative Signs) ******

                      1                      2                      3
                      A                      A                      A
 Frequencies --   -561.2926                81.9734                95.8892
 Red. masses --     12.1450                 4.1470                 3.9518
 Frc consts  --      2.2544                 0.0164                 0.0214
 IR Inten    --     66.6260                 4.1432                 2.4981

                      4                      5                      6
                      A                      A                      A
 Frequencies --    102.8815               149.9586               178.8441
 Red. masses --      4.0670                 6.3172                 2.1927
 Frc consts  --      0.0254                 0.0837                 0.0413
 IR Inten    --      0.5205                21.1304                23.1753

                      7                      8                      9
                      A                      A                      A
 Frequencies --    203.3025               232.4995               253.4242
 Red. masses --      1.3919                 1.3297                 2.6100
 Frc consts  --      0.0339                 0.0423                 0.0988
 IR Inten    --     31.9678                 0.4465                13.6173

                     10                     11                     12
                      A                      A                      A
 Frequencies --    367.1296               411.8010               555.9410
 Red. masses --      2.9319                 3.6111                 5.0481
 Frc consts  --      0.2328                 0.3608                 0.9193
 IR Inten    --      1.7340                 5.7116                19.2085

                     13                     14                     15
                      A                      A                      A
 Frequencies --    623.3006               666.0280               725.7539
 Red. masses --      4.3568                 1.3361                 1.3458
 Frc consts  --      0.9973                 0.3492                 0.4177
 IR Inten    --     12.3674                25.5036                31.2946

                     16                     17                     18
                      A                      A                      A
 Frequencies --    744.5697               754.5612               781.7746
 Red. masses --      4.4960                 5.3843                 1.2713
 Frc consts  --      1.4685                 1.8062                 0.4578
 IR Inten    --     29.8612                 1.4415                95.6559

                     19                     20                     21
                      A                      A                      A
 Frequencies --    808.4847               950.7026              1102.1148
 Red. masses --      1.1566                 2.2618                 3.5229
 Frc consts  --      0.4454                 1.2045                 2.5212
 IR Inten    --      6.5146                14.4262                46.9325

                     22                     23                     24
                      A                      A                      A
 Frequencies --   1130.1632              1181.7280              1267.9566
 Red. masses --      2.4714                 1.9050                 2.7400
 Frc consts  --      1.8598                 1.5674                 2.5954
 IR Inten    --     47.5221                49.9969               340.3598

                     25                     26                     27
                      A                      A                      A
 Frequencies --   1353.9391              1405.0961              1432.6012
 Red. masses --      1.2968                 1.2747                 1.3761
 Frc consts  --      1.4006                 1.4828                 1.6639
 IR Inten    --    110.3524                30.8825                17.8497

                     28                     29                     30
                      A                      A                      A
 Frequencies --   1492.3323              1502.3971              1535.6645
 Red. masses --      1.0404                 1.0468                 1.0963
 Frc consts  --      1.3652                 1.3921                 1.5232
 IR Inten    --      4.6288                 1.8197                10.1410

                     31                     32                     33
                      A                      A                      A
 Frequencies --   1868.3882              2097.4647              3070.6948
 Red. masses --     12.9114                 6.2985                 1.0354
 Frc consts  --     26.5558                16.3259                 5.7522
 IR Inten    --    519.7457                86.8603                 8.3218

                     34                     35                     36
                      A                      A                      A
 Frequencies --   3114.3056              3144.0443              3151.2441
 Red. masses --      1.0608                 1.1028                 1.1022
 Frc consts  --      6.0617                 6.4231                 6.4485
 IR Inten    --      9.4970                 8.9367                11.3783

                     37                     38                     39
                      A                      A                      A
 Frequencies --   3171.0012              3471.5321              3816.6334
 Red. masses --      1.1082                 1.1486                 1.0676
 Frc consts  --      6.5654                 8.1559                 9.1626
 IR Inten    --     14.1972                69.0750                58.3669

 - Thermochemistry -
 -------------------
 Temperature   298.150 Kelvin.  Pressure   1.00000 Atm.
 Atom     1 has atomic number  6 and mass  12.00000

 Molecular mass:   115.03952 amu.
 Principal axes and moments of inertia in atomic units:
                           1         2         3
     Eigenvalues --   750.315641071.661691281.81361
           X            0.99988   0.00916   0.01287
           Y           -0.00986   0.99840   0.05561
           Z           -0.01234  -0.05573   0.99837
 This molecule is an asymmetric top.
 Rotational symmetry number  1.
 Warning -- assumption of classical behavior for rotation
           may cause significant error
 Rotational temperatures (Kelvin)      0.11544     0.08082     0.06757
 Rotational constants (GHZ):           2.40531     1.68406     1.40796
    1 imaginary frequencies ignored.
 Zero-point vibrational energy     293073.8 (Joules/Mol)
                                   70.04633 (Kcal/Mol)
 Warning -- explicit consideration of  11 degrees of freedom as
           vibrations may cause significant error
 Vibrational temperatures:    117.94   137.96   148.02   215.76   257.32
          (Kelvin)            292.51   334.51   364.62   528.22   592.49
                              799.88   896.79   958.27  1044.20  1071.27
                             1085.65  1124.80  1163.23  1367.85  1585.70
                             1626.05  1700.24  1824.31  1948.02  2021.62
                             2061.19  2147.13  2161.61  2209.48  2688.19
                             3017.78  4418.04  4480.79  4523.58  4533.94
                             4562.36  4994.76  5491.28

 Zero-point correction=                           0.111626 (Hartree/Particle)
 Thermal correction to Energy=                    0.121200
 Thermal correction to Enthalpy=                  0.122144
 Thermal correction to Gibbs Free Energy=         0.076386
 Sum of electronic and zero-point Energies=           -419.3466492
 Sum of electronic and thermal Energies=              -420.075548
 Sum of electronic and thermal Enthalpies=            -420.074604
 Sum of electronic and thermal Free Energies=         -420.120362

                     E (Thermal)             CV                S
                      KCal/Mol        Cal/Mol-Kelvin    Cal/Mol-Kelvin
 Total                   76.054             32.457             96.306
 Electronic               0.000              0.000              1.377
 Translational            0.889              2.981             40.136
 Rotational               0.889              2.981             28.424
 Vibrational             74.276             26.496             26.369
 Vibration     1          0.600              1.961              3.843
 Vibration     2          0.603              1.952              3.536
 Vibration     3          0.605              1.947              3.399
 Vibration     4          0.618              1.903              2.673
 Vibration     5          0.629              1.868              2.340
 Vibration     6          0.639              1.835              2.103
 Vibration     7          0.653              1.791              1.860
 Vibration     8          0.665              1.757              1.707
 Vibration     9          0.740              1.540              1.092
 Vibration    10          0.776              1.445              0.920
 Vibration    11          0.911              1.127              0.532

 Normal termination of Gaussian 16 at Fri Mar 28 16:01:16 2025.
