 Gaussian 16, Revision A.03,
 Gaussian 16:  ES64L-G16RevA.03 25-Dec-2016

 --------------------------
 # freq 6-311++g(d,p) m062x
 --------------------------

 -------------------
 Title Card Required
 -------------------
 Symbolic Z-matrix:
 Charge =  0 Multiplicity = 2

                         Standard orientation:
 ---------------------------------------------------------------------
 Center     Atomic      Atomic             Coordinates (Angstroms)
 Number     Number       Type             X           Y           Z
 ---------------------------------------------------------------------
      1          6           0        1.348290   -1.385649   -1.122394
      2          1           0        1.717448   -2.279069   -1.575073
      3          6           0        1.011614   -0.470129   -0.320780
      4          6           0        0.421138    0.915274   -0.209616
      5          8           0        1.038375    1.886197   -0.526989
      6          8           0       -0.773533    0.988330    0.365791
      7          6           0       -1.527557   -0.202746    0.666465
      8          6           0       -2.362272   -0.618006   -0.528236
      9          1           0       -0.856213   -0.992295    1.004608
     10          1           0       -2.155860    0.089526    1.506300
     11          1           0       -3.008759    0.201937   -0.843617
     12          1           0       -1.727325   -0.906617   -1.368855
     13          1           0       -2.986635   -1.473547   -0.262732
     14          8           0        1.399531   -0.801301    1.323765
     15          1           0        2.355082   -0.658207    1.326193
 ---------------------------------------------------------------------

 SCF Done:  E(UM062X) =  -420.211868113     A.U. after   19 cycles

 The electronic state is 2-A.
 Alpha  occ. eigenvalues --  -19.68008 -19.65305 -19.62857 -10.70510 -10.63994
 Alpha  occ. eigenvalues --  -10.60798 -10.60511 -10.54440  -1.25209  -1.16616
 Alpha  occ. eigenvalues --   -1.12379  -0.91317  -0.88392  -0.77314  -0.74257
 Alpha  occ. eigenvalues --   -0.64905  -0.62216  -0.58905  -0.58210  -0.54799
 Alpha  occ. eigenvalues --   -0.52882  -0.50648  -0.48582  -0.46792  -0.45882
 Alpha  occ. eigenvalues --   -0.42122  -0.41131  -0.40046  -0.37937  -0.36682
 Alpha  occ. eigenvalues --   -0.32069
 Alpha virt. eigenvalues --   -0.00948  -0.00362   0.00560   0.00755   0.01944
 Alpha virt. eigenvalues --    0.02601   0.03128   0.04506   0.05300   0.05987
 Alpha virt. eigenvalues --    0.06977   0.07817   0.08449   0.09029   0.10355

  Beta  occ. eigenvalues --  -19.67998 -19.64684 -19.62868 -10.70460 -10.64147
  Beta  occ. eigenvalues --  -10.60801 -10.59902 -10.54439  -1.25166  -1.16619
  Beta  occ. eigenvalues --   -1.10207  -0.89191  -0.88331  -0.76806  -0.73349
  Beta  occ. eigenvalues --   -0.64306  -0.61531  -0.58467  -0.57864  -0.53952
  Beta  occ. eigenvalues --   -0.52807  -0.49359  -0.47909  -0.45848  -0.44173
  Beta  occ. eigenvalues --   -0.42051  -0.39766  -0.39078  -0.37947  -0.35494
  Beta virt. eigenvalues --   -0.09647  -0.00945  -0.00072   0.00741   0.01535
  Beta virt. eigenvalues --    0.02037   0.02985   0.03271   0.04401   0.05452
  Beta virt. eigenvalues --    0.06019   0.07016   0.07732   0.08270   0.08917

 Mulliken charges and spin densities:
               1          2
     1  C    0.052836   0.932756
     2  H    0.237823  -0.030721
     3  C   -0.143764  -0.256290
     4  C   -0.007531   0.051379
     5  O   -0.243910  -0.002515
     6  O   -0.013255   0.003308
     7  C   -0.357539  -0.001040
     8  C   -0.395379   0.000101
     9  H    0.196192   0.005625
    10  H    0.213644  -0.000583
    11  H    0.187053  -0.000196
    12  H    0.127526   0.004194
    13  H    0.160763  -0.000943
    14  O   -0.278439   0.295836
    15  H    0.263981  -0.000911
 Sum of Mulliken charges =  -0.00000   1.00000

 Dipole moment (field-independent basis, Debye):
    X=             -0.6579    Y=             -4.1287    Z=             -0.9907  Tot=              4.2966
 Quadrupole moment (field-independent basis, Debye-Ang):
   XX=            -39.7937   YY=            -52.1078   ZZ=            -47.6951
   XY=             -4.1976   XZ=             -0.8890   YZ=              5.0967

  Exact polarizability:  71.918   0.157  70.809  -3.200   4.129  70.612
 Approx polarizability:  76.206   1.369  85.721  -6.109   5.688  88.077

 ******    1 imaginary frequencies (negative Signs) ******

                      1                      2                      3
                      A                      A                      A
 Frequencies --   -525.9193                86.6777                97.8016
 Red. masses --      6.9093                 3.6622                 3.1780
 Frc consts  --      1.1260                 0.0162                 0.0179
 IR Inten    --     68.6286                 4.5139                 3.3786

                      4                      5                      6
                      A                      A                      A
 Frequencies --    120.4420               146.1591               209.8464
 Red. masses --      1.8241                 1.9363                 1.5973
 Frc consts  --      0.0156                 0.0244                 0.0414
 IR Inten    --     23.0001                49.9609                19.8081

                      7                      8                      9
                      A                      A                      A
 Frequencies --    225.6226               246.2650               255.1185
 Red. masses --      1.1817                 2.7956                 2.8309
 Frc consts  --      0.0354                 0.0999                 0.1086
 IR Inten    --     20.1460                 2.1800                 1.9282

                     10                     11                     12
                      A                      A                      A
 Frequencies --    352.5508               396.2000               428.8297
 Red. masses --      7.2567                 3.2274                 3.6945
 Frc consts  --      0.5314                 0.2985                 0.4003
 IR Inten    --      1.1448                 3.3472                 8.2109

                     13                     14                     15
                      A                      A                      A
 Frequencies --    572.6955               643.4011               706.3826
 Red. masses --      5.3966                 4.0751                 1.3755
 Frc consts  --      1.0428                 0.9939                 0.4044
 IR Inten    --     21.5076                 6.9091                38.1477

                     16                     17                     18
                      A                      A                      A
 Frequencies --    749.9638               767.1360               807.0777
 Red. masses --      6.0306                 8.5755                 1.1341
 Frc consts  --      1.9984                 2.9734                 0.4352
 IR Inten    --      1.4299                12.9377                 2.7272

                     19                     20                     21
                      A                      A                      A
 Frequencies --    949.2144              1049.0029              1100.6491
 Red. masses --      2.2675                 1.1841                 3.5902
 Frc consts  --      1.2037                 0.7677                 2.5625
 IR Inten    --     13.1861                55.8736                47.7718

                     22                     23                     24
                      A                      A                      A
 Frequencies --   1127.9285              1181.1082              1264.8252
 Red. masses --      2.3482                 1.9250                 2.6897
 Frc consts  --      1.7602                 1.5822                 2.5352
 IR Inten    --     38.6233                54.6357               323.1522

                     25                     26                     27
                      A                      A                      A
 Frequencies --   1355.4068              1404.6754              1432.1003
 Red. masses --      1.3140                 1.2701                 1.3691
 Frc consts  --      1.4223                 1.4765                 1.6543
 IR Inten    --    116.6967                25.7136                16.0763

                     28                     29                     30
                      A                      A                      A
 Frequencies --   1492.2695              1501.5654              1540.9983
 Red. masses --      1.0399                 1.0473                 1.0935
 Frc consts  --      1.3644                 1.3913                 1.5300
 IR Inten    --      4.8000                 1.5122                 9.7842

                     31                     32                     33
                      A                      A                      A
 Frequencies --   1829.4921              1876.0673              3068.5553
 Red. masses --      7.2489                12.3312                 1.0356
 Frc consts  --     14.2950                25.5714                 5.7455
 IR Inten    --     56.2817               456.4798                 8.1157

                     34                     35                     36
                      A                      A                      A
 Frequencies --   3116.0506              3141.0824              3151.7024
 Red. masses --      1.0612                 1.1020                 1.1023
 Frc consts  --      6.0711                 6.4059                 6.4510
 IR Inten    --      8.1610                11.4727                11.4860

                     37                     38                     39
                      A                      A                      A
 Frequencies --   3170.8743              3436.4891              3854.8125
 Red. masses --      1.1082                 1.1243                 1.0677
 Frc consts  --      6.5650                 7.8231                 9.3473
 IR Inten    --     14.1019                75.4068                72.2537

 - Thermochemistry -
 -------------------
 Temperature   298.150 Kelvin.  Pressure   1.00000 Atm.
 Atom     1 has atomic number  6 and mass  12.00000

 Molecular mass:   115.03952 amu.
 Principal axes and moments of inertia in atomic units:
                           1         2         3
     Eigenvalues --   726.456621051.020771275.95021
           X            0.99987   0.00862   0.01328
           Y           -0.00931   0.99858   0.05246
           Z           -0.01281  -0.05258   0.99853
 This molecule is an asymmetric top.
 Rotational symmetry number  1.
 Warning -- assumption of classical behavior for rotation
           may cause significant error
 Rotational temperatures (Kelvin)      0.11923     0.08241     0.06788
 Rotational constants (GHZ):           2.48431     1.71713     1.41443
    1 imaginary frequencies ignored.
 Zero-point vibrational energy     292230.0 (Joules/Mol)
                                   69.84465 (Kcal/Mol)
 Warning -- explicit consideration of  12 degrees of freedom as
           vibrations may cause significant error
 Vibrational temperatures:    124.71   140.71   173.29   210.29   301.92
          (Kelvin)            324.62   354.32   367.06   507.24   570.04
                              616.99   823.98   925.71  1016.33  1079.03
                             1103.74  1161.20  1365.71  1509.28  1583.59
                             1622.84  1699.35  1819.80  1950.13  2021.01
                             2060.47  2147.04  2160.42  2217.15  2632.23
                             2699.24  4414.97  4483.30  4519.32  4534.60
                             4562.18  4944.34  5546.22

 Zero-point correction=                           0.111305 (Hartree/Particle)
 Thermal correction to Energy=                    0.120849
 Thermal correction to Enthalpy=                  0.121794
 Thermal correction to Gibbs Free Energy=         0.076334
 Sum of electronic and zero-point Energies=           -419.3604165
 Sum of electronic and thermal Energies=              -420.091019
 Sum of electronic and thermal Enthalpies=            -420.090074
 Sum of electronic and thermal Free Energies=         -420.135535

                     E (Thermal)             CV                S
                      KCal/Mol        Cal/Mol-Kelvin    Cal/Mol-Kelvin
 Total                   75.834             32.511             95.679
 Electronic               0.000              0.000              1.377
 Translational            0.889              2.981             40.136
 Rotational               0.889              2.981             28.368
 Vibrational             74.057             26.549             25.798
 Vibration     1          0.601              1.958              3.734
 Vibration     2          0.603              1.951              3.498
 Vibration     3          0.609              1.932              3.093
 Vibration     4          0.617              1.907              2.722
 Vibration     5          0.642              1.826              2.045
 Vibration     6          0.650              1.802              1.914
 Vibration     7          0.661              1.769              1.757
 Vibration     8          0.665              1.754              1.695
 Vibration     9          0.729              1.570              1.155
 Vibration    10          0.763              1.478              0.977
 Vibration    11          0.790              1.407              0.862
 Vibration    12          0.929              1.090              0.499

 Normal termination of Gaussian 16 at Fri Mar 28 14:19:17 2025.
