 Gaussian 16, Revision A.03,
 Gaussian 16:  ES64L-G16RevA.03 25-Dec-2016

 --------------------------
 # ccsd(t)/6-311++g(d,p) sp
 --------------------------

 -------------------
 Title Card Required
 -------------------
 Symbolic Z-matrix:
 Charge =  0 Multiplicity = 2

                         Standard orientation:
 ---------------------------------------------------------------------
 Center     Atomic      Atomic             Coordinates (Angstroms)
 Number     Number       Type             X           Y           Z
 ---------------------------------------------------------------------
      1          6           0        1.349464   -1.353257   -1.185814
      2          1           0        1.733854   -2.229780   -1.653703
      3          6           0        0.913938   -0.379759   -0.626283
      4          6           0        0.399111    0.934604   -0.205247
      5          8           0        1.013752    1.927647   -0.458428
      6          8           0       -0.769859    0.964885    0.425675
      7          6           0       -1.508631   -0.244274    0.684426
      8          6           0       -2.369046   -0.617676   -0.506453
      9          1           0       -0.818550   -1.040999    0.964338
     10          1           0       -2.119072    0.003326    1.551481
     11          1           0       -3.030440    0.208134   -0.771910
     12          1           0       -1.753980   -0.867710   -1.372692
     13          1           0       -2.980049   -1.488347   -0.259353
     14          8           0        1.485148   -0.883150    1.443328
     15          1           0        2.426897   -0.697508    1.293477
 ---------------------------------------------------------------------

 SCF Done:  E(UHF) =  -417.977924319     A.U. after   41 cycles
 E2 =    -0.1262258767D+01 EUMP2 =    -0.41924018308648D+03
 CCSD(T)= -0.41934879500D+03

 The electronic state is 2-A.
 Alpha  occ. eigenvalues --  -20.64030 -20.60748 -20.55061 -11.41444 -11.29897
 Alpha  occ. eigenvalues --  -11.27685 -11.26670 -11.23095  -1.47380  -1.39732
 Alpha  occ. eigenvalues --   -1.37650  -1.07930  -1.04725  -0.91539  -0.87460
 Alpha  occ. eigenvalues --   -0.75714  -0.73277  -0.69907  -0.68594  -0.67699
 Alpha  occ. eigenvalues --   -0.65425  -0.62792  -0.58156  -0.56781  -0.54580
 Alpha  occ. eigenvalues --   -0.54433  -0.50596  -0.47276  -0.45636  -0.43475
 Alpha  occ. eigenvalues --   -0.42648
 Alpha virt. eigenvalues --    0.03214   0.04559   0.05257   0.06552   0.07012
 Alpha virt. eigenvalues --    0.08417   0.09123   0.10058   0.11088   0.11752
 Alpha virt. eigenvalues --    0.13223   0.13896   0.14803   0.14903   0.16144

  Beta  occ. eigenvalues --  -20.60701 -20.59982 -20.55506 -11.41148 -11.29908
  Beta  occ. eigenvalues --  -11.27906 -11.26218 -11.23094  -1.47493  -1.38306
  Beta  occ. eigenvalues --   -1.24759  -1.07498  -1.04724  -0.91014  -0.86972
  Beta  occ. eigenvalues --   -0.75379  -0.72737  -0.69508  -0.66845  -0.64581
  Beta  occ. eigenvalues --   -0.62882  -0.58435  -0.55815  -0.54578  -0.51513
  Beta  occ. eigenvalues --   -0.50701  -0.48332  -0.46511  -0.43863  -0.42835
  Beta virt. eigenvalues --    0.03280   0.04250   0.04557   0.06572   0.06828
  Beta virt. eigenvalues --    0.08032   0.08469   0.09815   0.10618   0.11316
  Beta virt. eigenvalues --    0.11678   0.13783   0.14284   0.14912   0.15285

 Mulliken charges and spin densities:
               1          2
     1  C   -1.602929   0.653194
     2  H    0.246550  -0.049864
     3  C    1.356804  -0.628545
     4  C    0.240376   0.194564
     5  O   -0.326725  -0.093298
     6  O   -0.111400  -0.000311
     7  C   -0.244892  -0.003423
     8  C   -0.410551  -0.002558
     9  H    0.175363   0.002895
    10  H    0.181785  -0.001721
    11  H    0.167831   0.000358
    12  H    0.126952   0.001300
    13  H    0.129092  -0.000426
    14  O   -0.176707   0.965755
    15  H    0.248450  -0.037920
 Sum of Mulliken charges =  -0.00000   1.00000

 Dipole moment (field-independent basis, Debye):
    X=             -0.2385    Y=             -4.6755    Z=             -0.0920  Tot=              4.6825
 Quadrupole moment (field-independent basis, Debye-Ang):
   XX=            -38.8856   YY=            -53.1902   ZZ=            -46.3719
   XY=             -5.0125   XZ=              0.5655   YZ=              4.1673

 \PMP3-0=-419.2751047\MP4SDQ=-419.2933416\CCSD=-419.2953134\CCSD(T)=-41
 Normal termination of Gaussian 16 at Mon May 12 13:50:38 2025.
