 Gaussian 16, Revision A.03,
 Gaussian 16:  ES64L-G16RevA.03 25-Dec-2016

 --------------------------
 # ccsd(t)/6-311++g(d,p) sp
 --------------------------

 -------------------
 Title Card Required
 -------------------
 Symbolic Z-matrix:
 Charge =  0 Multiplicity = 2

                         Standard orientation:
 ---------------------------------------------------------------------
 Center     Atomic      Atomic             Coordinates (Angstroms)
 Number     Number       Type             X           Y           Z
 ---------------------------------------------------------------------
      1          6           0        1.352078   -1.366669   -1.156730
      2          1           0        1.723216   -2.240766   -1.640030
      3          6           0        0.943977   -0.407405   -0.541338
      4          6           0        0.408311    0.927903   -0.201584
      5          8           0        1.022043    1.912750   -0.483685
      6          8           0       -0.772120    0.973403    0.404455
      7          6           0       -1.515936   -0.229631    0.678613
      8          6           0       -2.366359   -0.618228   -0.514453
      9          1           0       -0.831302   -1.023469    0.978806
     10          1           0       -2.133395    0.034206    1.535821
     11          1           0       -3.022674    0.205498   -0.798248
     12          1           0       -1.743437   -0.881921   -1.371213
     13          1           0       -2.981978   -1.483744   -0.260930
     14          8           0        1.456305   -0.855626    1.411471
     15          1           0        2.407331   -0.689839    1.310816
 ---------------------------------------------------------------------

 SCF Done:  E(UHF) =  -417.972262798     A.U. after   36 cycles
 E2 =    -0.1259860661D+01 EUMP2 =    -0.41923212345889D+03
 CCSD(T)= -0.41934687088D+03

 The electronic state is 2-A.
 Alpha  occ. eigenvalues --  -20.63613 -20.60715 -20.54983 -11.41372 -11.29892
 Alpha  occ. eigenvalues --  -11.27863 -11.26936 -11.23122  -1.47378  -1.39430
 Alpha  occ. eigenvalues --   -1.37597  -1.08150  -1.04742  -0.91503  -0.87519
 Alpha  occ. eigenvalues --   -0.75809  -0.73239  -0.69991  -0.68621  -0.67186
 Alpha  occ. eigenvalues --   -0.65244  -0.62710  -0.57983  -0.56616  -0.54495
 Alpha  occ. eigenvalues --   -0.54309  -0.50577  -0.47161  -0.45428  -0.43672
 Alpha  occ. eigenvalues --   -0.42734
 Alpha virt. eigenvalues --    0.03219   0.04569   0.05250   0.06538   0.06996
 Alpha virt. eigenvalues --    0.08504   0.09154   0.10479   0.11079   0.11767
 Alpha virt. eigenvalues --    0.13171   0.13950   0.14690   0.14831   0.16235

  Beta  occ. eigenvalues --  -20.60658 -20.59711 -20.55499 -11.41006 -11.29906
  Beta  occ. eigenvalues --  -11.28590 -11.25922 -11.23121  -1.47504  -1.38360
  Beta  occ. eigenvalues --   -1.25376  -1.07469  -1.04737  -0.90804  -0.86778
  Beta  occ. eigenvalues --   -0.75322  -0.72535  -0.69588  -0.67096  -0.64565
  Beta  occ. eigenvalues --   -0.62824  -0.58363  -0.56037  -0.54552  -0.51358
  Beta  occ. eigenvalues --   -0.50699  -0.48494  -0.46552  -0.44430  -0.42865
  Beta virt. eigenvalues --    0.03296   0.04044   0.04568   0.06553   0.06767
  Beta virt. eigenvalues --    0.07812   0.08484   0.09937   0.11120   0.11334
  Beta virt. eigenvalues --    0.11695   0.13732   0.14379   0.14892   0.15287

 Mulliken charges and spin densities:
               1          2
     1  C   -0.963848   0.940738
     2  H    0.254639  -0.068700
     3  C    0.733106  -0.834456
     4  C    0.194071   0.194675
     5  O   -0.325414  -0.107842
     6  O   -0.106645  -0.000545
     7  C   -0.252551  -0.004108
     8  C   -0.399958  -0.003727
     9  H    0.178712   0.003831
    10  H    0.182196  -0.001776
    11  H    0.168727   0.000471
    12  H    0.125419   0.002285
    13  H    0.128989  -0.000614
    14  O   -0.167950   0.915831
    15  H    0.250508  -0.036064
 Sum of Mulliken charges =  -0.00000   1.00000

 Dipole moment (field-independent basis, Debye):
    X=             -0.2901    Y=             -4.6768    Z=             -0.1093  Tot=              4.6871
 Quadrupole moment (field-independent basis, Debye-Ang):
   XX=            -39.0813   YY=            -53.1112   ZZ=            -46.2839
   XY=             -4.9582   XZ=              0.5617   YZ=              4.3339

 Normal termination of Gaussian 16 at Mon May 12 15:42:29 2025.
