 Gaussian 16, Revision A.03,
 Gaussian 16:  ES64L-G16RevA.03 25-Dec-2016

 --------------------------
 # freq 6-311++g(d,p) m062x
 --------------------------

 -------------------
 Title Card Required
 -------------------
 Symbolic Z-matrix:
 Charge =  0 Multiplicity = 2

                         Standard orientation:
 ---------------------------------------------------------------------
 Center     Atomic      Atomic             Coordinates (Angstroms)
 Number     Number       Type             X           Y           Z
 ---------------------------------------------------------------------
      1          6           0        1.346818   -1.384749   -1.121666
      2          1           0        1.719136   -2.282935   -1.563537
      3          6           0        1.018039   -0.475636   -0.299697
      4          6           0        0.422534    0.913622   -0.210001
      5          8           0        1.039548    1.884243   -0.529321
      6          8           0       -0.773609    0.989253    0.363385
      7          6           0       -1.528504   -0.200870    0.665377
      8          6           0       -2.362030   -0.617579   -0.529561
      9          1           0       -0.858789   -0.990701    1.005890
     10          1           0       -2.157628    0.093007    1.504071
     11          1           0       -3.007688    0.202296   -0.846807
     12          1           0       -1.726059   -0.907524   -1.369006
     13          1           0       -2.987125   -1.472471   -0.263677
     14          8           0        1.394901   -0.797718    1.313374
     15          1           0        2.350288   -0.656619    1.326851
 ---------------------------------------------------------------------

 SCF Done:  E(UM062X) =  -420.215656720     A.U. after   19 cycles

 The electronic state is 2-A.
 Alpha  occ. eigenvalues --  -19.67968 -19.65436 -19.62824 -10.70397 -10.64163
 Alpha  occ. eigenvalues --  -10.60789 -10.60429 -10.54422  -1.25155  -1.16559
 Alpha  occ. eigenvalues --   -1.12797  -0.91145  -0.88368  -0.77233  -0.74205
 Alpha  occ. eigenvalues --   -0.64825  -0.62064  -0.59185  -0.58217  -0.54969
 Alpha  occ. eigenvalues --   -0.52842  -0.50737  -0.48573  -0.46825  -0.45854
 Alpha  occ. eigenvalues --   -0.42109  -0.41309  -0.39882  -0.37912  -0.36578
 Alpha  occ. eigenvalues --   -0.31973
 Alpha virt. eigenvalues --   -0.00913  -0.00300   0.00580   0.00742   0.02012
 Alpha virt. eigenvalues --    0.02722   0.03117   0.04544   0.05292   0.06008
 Alpha virt. eigenvalues --    0.06989   0.07816   0.08518   0.09042   0.10332

  Beta  occ. eigenvalues --  -19.67957 -19.64896 -19.62832 -10.70346 -10.64316
  Beta  occ. eigenvalues --  -10.60791 -10.59785 -10.54420  -1.25108  -1.16556
  Beta  occ. eigenvalues --   -1.10911  -0.88985  -0.88289  -0.76722  -0.73227
  Beta  occ. eigenvalues --   -0.64229  -0.61313  -0.58572  -0.58001  -0.54299
  Beta  occ. eigenvalues --   -0.52771  -0.49377  -0.48010  -0.45819  -0.44683
  Beta  occ. eigenvalues --   -0.42033  -0.40085  -0.38917  -0.37917  -0.35352
  Beta virt. eigenvalues --   -0.09370  -0.00939  -0.00074   0.00758   0.01556
  Beta virt. eigenvalues --    0.02078   0.03092   0.03276   0.04448   0.05445
  Beta virt. eigenvalues --    0.06028   0.07014   0.07725   0.08332   0.08920

 Mulliken charges and spin densities:
               1          2
     1  C    0.044978   0.972017
     2  H    0.233414  -0.029846
     3  C   -0.141996  -0.255332
     4  C   -0.003153   0.050816
     5  O   -0.244661  -0.000534
     6  O   -0.013795   0.003450
     7  C   -0.356226   0.000085
     8  C   -0.396003   0.000318
     9  H    0.195464   0.005289
    10  H    0.213757  -0.000429
    11  H    0.186944  -0.000244
    12  H    0.127860   0.004233
    13  H    0.160681  -0.000949
    14  O   -0.275537   0.250855
    15  H    0.268273   0.000270
 Sum of Mulliken charges =  -0.00000   1.00000

 Dipole moment (field-independent basis, Debye):
    X=             -0.6298    Y=             -4.1300    Z=             -0.8807  Tot=              4.2696
 Quadrupole moment (field-independent basis, Debye-Ang):
   XX=            -39.7686   YY=            -52.1669   ZZ=            -47.7357
   XY=             -4.1984   XZ=             -0.6933   YZ=              4.9658

  Exact polarizability:  71.874   0.228  70.638  -3.427   4.149  69.614
 Approx polarizability:  76.163   1.556  85.207  -6.225   5.560  86.640

 ******    1 imaginary frequencies (negative Signs) ******

                      1                      2                      3
                      A                      A                      A
 Frequencies --   -454.5941                82.5412                94.9408
 Red. masses --      4.5846                 2.6793                 2.2931
 Frc consts  --      0.5582                 0.0108                 0.0122
 IR Inten    --    101.3592                19.3595                 7.8820

                      4                      5                      6
                      A                      A                      A
 Frequencies --    108.2912               141.9937               200.2049
 Red. masses --      1.9217                 3.3023                 1.3875
 Frc consts  --      0.0133                 0.0392                 0.0328
 IR Inten    --     24.3456                22.5181                34.7609

                      7                      8                      9
                      A                      A                      A
 Frequencies --    220.6856               251.5281               260.3923
 Red. masses --      1.2645                 2.3809                 4.6946
 Frc consts  --      0.0363                 0.0887                 0.1875
 IR Inten    --      3.0278                 0.8012                 2.0544

                     10                     11                     12
                      A                      A                      A
 Frequencies --    356.9335               398.5344               433.2071
 Red. masses --      7.6751                 3.2607                 3.7137
 Frc consts  --      0.5761                 0.3051                 0.4106
 IR Inten    --      0.5924                 3.7919                 7.3991

                     13                     14                     15
                      A                      A                      A
 Frequencies --    577.1639               647.4326               704.6421
 Red. masses --      5.4152                 3.9606                 1.3846
 Frc consts  --      1.0628                 0.9781                 0.4051
 IR Inten    --     22.5512                 7.1080                38.3635

                     16                     17                     18
                      A                      A                      A
 Frequencies --    751.2583               773.1617               807.0871
 Red. masses --      6.2169                 7.9570                 1.1420
 Frc consts  --      2.0673                 2.8025                 0.4383
 IR Inten    --      2.3446                 9.4433                 2.6865

                     19                     20                     21
                      A                      A                      A
 Frequencies --    949.3592              1072.9098              1102.1401
 Red. masses --      2.2692                 1.2406                 3.1963
 Frc consts  --      1.2050                 0.8414                 2.2876
 IR Inten    --     12.6993                56.6100                44.4708

                     22                     23                     24
                      A                      A                      A
 Frequencies --   1128.0035              1181.0302              1264.4002
 Red. masses --      2.3512                 1.9224                 2.6876
 Frc consts  --      1.7627                 1.5799                 2.5316
 IR Inten    --     39.4210                54.8913               322.1957

                     25                     26                     27
                      A                      A                      A
 Frequencies --   1355.6320              1404.5521              1432.0124
 Red. masses --      1.3154                 1.2691                 1.3680
 Frc consts  --      1.4243                 1.4751                 1.6529
 IR Inten    --    117.8539                24.8716                15.9266

                     28                     29                     30
                      A                      A                      A
 Frequencies --   1492.2289              1501.5118              1541.4659
 Red. masses --      1.0399                 1.0473                 1.0934
 Frc consts  --      1.3643                 1.3911                 1.5307
 IR Inten    --      4.8137                 1.4765                 9.8649

                     31                     32                     33
                      A                      A                      A
 Frequencies --   1806.6217              1874.1530              3068.2994
 Red. masses --      7.1619                12.7277                 1.0357
 Frc consts  --     13.7725                26.3396                 5.7447
 IR Inten    --     30.4877               478.3303                 8.1059

                     34                     35                     36
                      A                      A                      A
 Frequencies --   3116.2617              3140.8716              3151.6342
 Red. masses --      1.0613                 1.1018                 1.1023
 Frc consts  --      6.0723                 6.4040                 6.4510
 IR Inten    --      8.1751                11.6894                11.5117

                     37                     38                     39
                      A                      A                      A
 Frequencies --   3170.8053              3428.1049              3857.6601
 Red. masses --      1.1082                 1.1227                 1.0676
 Frc consts  --      6.5646                 7.7738                 9.3606
 IR Inten    --     14.2826                72.1067                74.3997

 - Thermochemistry -
 -------------------
 Temperature   298.150 Kelvin.  Pressure   1.00000 Atm.
 Atom     1 has atomic number  6 and mass  12.00000

 Molecular mass:   115.03952 amu.
 Principal axes and moments of inertia in atomic units:
                           1         2         3
     Eigenvalues --   723.520351048.635761275.14743
           X            0.99987   0.00847   0.01335
           Y           -0.00915   0.99861   0.05190
           Z           -0.01290  -0.05202   0.99856
 This molecule is an asymmetric top.
 Rotational symmetry number  1.
 Warning -- assumption of classical behavior for rotation
           may cause significant error
 Rotational temperatures (Kelvin)      0.11971     0.08260     0.06792
 Rotational constants (GHZ):           2.49439     1.72104     1.41532
    1 imaginary frequencies ignored.
 Zero-point vibrational energy     292185.8 (Joules/Mol)
                                   69.83409 (Kcal/Mol)
 Warning -- explicit consideration of  12 degrees of freedom as
           vibrations may cause significant error
 Vibrational temperatures:    118.76   136.60   155.81   204.30   288.05
          (Kelvin)            317.52   361.89   374.65   513.55   573.40
                              623.29   830.41   931.51  1013.82  1080.89
                             1112.41  1161.22  1365.92  1543.68  1585.73
                             1622.95  1699.24  1819.19  1950.45  2020.84
                             2060.35  2146.98  2160.34  2217.83  2599.33
                             2696.49  4414.60  4483.61  4519.01  4534.50
                             4562.08  4932.28  5550.31

 Zero-point correction=                           0.111288 (Hartree/Particle)
 Thermal correction to Energy=                    0.120864
 Thermal correction to Enthalpy=                  0.121808
 Thermal correction to Gibbs Free Energy=         0.076161
 Sum of electronic and zero-point Energies=           -419.3639568
 Sum of electronic and thermal Energies=              -420.094793
 Sum of electronic and thermal Enthalpies=            -420.093849
 Sum of electronic and thermal Free Energies=         -420.139495

                     E (Thermal)             CV                S
                      KCal/Mol        Cal/Mol-Kelvin    Cal/Mol-Kelvin
 Total                   75.843             32.462             96.072
 Electronic               0.000              0.000              1.377
 Translational            0.889              2.981             40.136
 Rotational               0.889              2.981             28.361
 Vibrational             74.066             26.500             26.198
 Vibration     1          0.600              1.961              3.830
 Vibration     2          0.603              1.953              3.556
 Vibration     3          0.606              1.943              3.299
 Vibration     4          0.615              1.911              2.777
 Vibration     5          0.638              1.840              2.131
 Vibration     6          0.647              1.810              1.953
 Vibration     7          0.664              1.760              1.720
 Vibration     8          0.668              1.745              1.659
 Vibration     9          0.732              1.561              1.135
 Vibration    10          0.765              1.473              0.968
 Vibration    11          0.794              1.398              0.848
 Vibration    12          0.934              1.081              0.491

 Normal termination of Gaussian 16 at Fri Mar 28 14:06:45 2025.
