 Gaussian 16, Revision A.03,
 Gaussian 16:  ES64L-G16RevA.03 25-Dec-2016

 --------------------------
 # ccsd(t)/6-311++g(d,p) sp
 --------------------------

 -------------------
 Title Card Required
 -------------------
 Symbolic Z-matrix:
 Charge =  0 Multiplicity = 2

                         Standard orientation:
 ---------------------------------------------------------------------
 Center     Atomic      Atomic             Coordinates (Angstroms)
 Number     Number       Type             X           Y           Z
 ---------------------------------------------------------------------
      1          6           0        2.983098    1.309649    0.305220
      2          1           0        3.745981    2.036769    0.459693
      3          6           0        2.126762    0.490241    0.130649
      4          6           0        1.119531   -0.532411   -0.107278
      5          8           0        1.348277   -1.612703   -0.569428
      6          8           0       -0.095217   -0.102422    0.257164
      7          6           0       -1.175217   -1.031508    0.034903
      8          6           0       -2.418915   -0.390375    0.579742
      9          1           0       -1.249776   -1.226156   -1.036854
     10          1           0       -0.937653   -1.971554    0.540072
     11          1           0       -2.358262   -0.163352    1.643240
     12          1           0       -2.550094    0.663387    0.025915
     13          1           0       -3.319542   -0.952142    0.335041
     14          8           0       -2.233942    1.803880   -0.597638
     15          1           0       -1.295155    1.829427   -0.347311
 ---------------------------------------------------------------------

 SCF Done:  E(UHF) =  -417.967730665     A.U. after   31 cycles
 E2 =    -0.1278894320D+01 EUMP2 =    -0.41924662498510D+03
 CCSD(T)= -0.41934878518D+03

 The electronic state is 2-A.
 Alpha  occ. eigenvalues --  -20.62836 -20.62310 -20.57383 -11.42708 -11.30586
 Alpha  occ. eigenvalues --  -11.27695 -11.26915 -11.24379  -1.49544  -1.39576
 Alpha  occ. eigenvalues --   -1.38822  -1.09072  -1.05518  -0.93160  -0.84704
 Alpha  occ. eigenvalues --   -0.78565  -0.73698  -0.72633  -0.70645  -0.69548
 Alpha  occ. eigenvalues --   -0.66263  -0.61153  -0.59110  -0.56539  -0.55311
 Alpha  occ. eigenvalues --   -0.53710  -0.49646  -0.49107  -0.44867  -0.43574
 Alpha  occ. eigenvalues --   -0.43522
 Alpha virt. eigenvalues --    0.03472   0.04476   0.06250   0.06650   0.07014
 Alpha virt. eigenvalues --    0.07591   0.09139   0.10008   0.11038   0.11488
 Alpha virt. eigenvalues --    0.12379   0.13771   0.14722   0.15467   0.16365

  Beta  occ. eigenvalues --  -20.62827 -20.58591 -20.57385 -11.42710 -11.30674
  Beta  occ. eigenvalues --  -11.27693 -11.26916 -11.23324  -1.49530  -1.39432
  Beta  occ. eigenvalues --   -1.25634  -1.08810  -1.04447  -0.91964  -0.83507
  Beta  occ. eigenvalues --   -0.78488  -0.73661  -0.70602  -0.70137  -0.65243
  Beta  occ. eigenvalues --   -0.60951  -0.58837  -0.56523  -0.53615  -0.50823
  Beta  occ. eigenvalues --   -0.50290  -0.49328  -0.47897  -0.43601  -0.43551
  Beta virt. eigenvalues --    0.03446   0.04420   0.05140   0.06282   0.07011
  Beta virt. eigenvalues --    0.07532   0.08159   0.09374   0.10414   0.11437
  Beta virt. eigenvalues --    0.11675   0.12499   0.13864   0.14753   0.15595

 Mulliken charges and spin densities:
               1          2
     1  C   -0.644695   0.000526
     2  H    0.221703  -0.000122
     3  C    1.245113  -0.001171
     4  C   -0.554831  -0.000862
     5  O   -0.293270  -0.000414
     6  O   -0.143285  -0.002878
     7  C   -0.070557  -0.036428
     8  C   -0.699295   0.401242
     9  H    0.216147   0.002259
    10  H    0.172406   0.012612
    11  H    0.171687  -0.022897
    12  H    0.238946  -0.142406
    13  H    0.160071  -0.017094
    14  O   -0.264859   0.830504
    15  H    0.244719  -0.022872
 Sum of Mulliken charges =  -0.00000   1.00000

 Dipole moment (field-independent basis, Debye):
    X=              0.6166    Y=              1.0985    Z=              1.4280  Tot=              1.9043
 Quadrupole moment (field-independent basis, Debye-Ang):
   XX=            -45.2212   YY=            -49.0175   ZZ=            -48.9254
   XY=             14.9067   XZ=              0.6171   YZ=             -0.7049

 0=-419.2725499\MP4SDQ=-419.295317\CCSD=-419.2947423\CCSD(T)=-419.34878
 Normal termination of Gaussian 16 at Mon Apr 21 15:01:10 2025.
