 Gaussian 16, Revision A.03,
 Gaussian 16:  ES64L-G16RevA.03 25-Dec-2016

 --------------------------
 # ccsd(t)/6-311++g(d,p) sp
 --------------------------

 -------------------
 Title Card Required
 -------------------
 Symbolic Z-matrix:
 Charge =  0 Multiplicity = 2

                         Standard orientation:
 ---------------------------------------------------------------------
 Center     Atomic      Atomic             Coordinates (Angstroms)
 Number     Number       Type             X           Y           Z
 ---------------------------------------------------------------------
      1          6           0        2.981811    1.312075    0.303104
      2          1           0        3.744066    2.040108    0.456496
      3          6           0        2.126191    0.491674    0.129724
      4          6           0        1.120090   -0.532199   -0.106780
      5          8           0        1.349470   -1.612785   -0.567850
      6          8           0       -0.095150   -0.103187    0.257862
      7          6           0       -1.174248   -1.032338    0.036412
      8          6           0       -2.417265   -0.394150    0.581733
      9          1           0       -1.249398   -1.229577   -1.034835
     10          1           0       -0.937436   -1.972658    0.543607
     11          1           0       -2.358634   -0.151999    1.641615
     12          1           0       -2.529729    0.725710   -0.008778
     13          1           0       -3.323258   -0.942273    0.328938
     14          8           0       -2.237528    1.794805   -0.595311
     15          1           0       -1.299424    1.829652   -0.349812
 ---------------------------------------------------------------------

 SCF Done:  E(UHF) =  -417.960936296     A.U. after   31 cycles
 E2 =    -0.1286768229D+01 EUMP2 =    -0.41924770452542D+03
 CCSD(T)= -0.41934878479D+03

 The electronic state is 2-A.
 Alpha  occ. eigenvalues --  -20.63046 -20.60612 -20.57527 -11.42855 -11.31116
 Alpha  occ. eigenvalues --  -11.27750 -11.26957 -11.25995  -1.49745  -1.39659
 Alpha  occ. eigenvalues --   -1.37354  -1.09366  -1.06023  -0.93541  -0.85038
 Alpha  occ. eigenvalues --   -0.78799  -0.73758  -0.72503  -0.70859  -0.69496
 Alpha  occ. eigenvalues --   -0.64495  -0.61705  -0.59510  -0.57238  -0.54693
 Alpha  occ. eigenvalues --   -0.53397  -0.49796  -0.49251  -0.43930  -0.43617
 Alpha  occ. eigenvalues --   -0.43322
 Alpha virt. eigenvalues --    0.03493   0.04309   0.06125   0.06728   0.06944
 Alpha virt. eigenvalues --    0.07531   0.09134   0.10002   0.11131   0.11414
 Alpha virt. eigenvalues --    0.12351   0.13698   0.14644   0.15386   0.16358

  Beta  occ. eigenvalues --  -20.63031 -20.57528 -20.57349 -11.42858 -11.31246
  Beta  occ. eigenvalues --  -11.27749 -11.26958 -11.24481  -1.49722  -1.39608
  Beta  occ. eigenvalues --   -1.26152  -1.08909  -1.04542  -0.91864  -0.83451
  Beta  occ. eigenvalues --   -0.78688  -0.73725  -0.70844  -0.70259  -0.64751
  Beta  occ. eigenvalues --   -0.61336  -0.58922  -0.57116  -0.54143  -0.50255
  Beta  occ. eigenvalues --   -0.49751  -0.49251  -0.48128  -0.43651  -0.43602
  Beta virt. eigenvalues --    0.03475   0.04121   0.04937   0.06160   0.06877
  Beta virt. eigenvalues --    0.07462   0.07882   0.09299   0.10323   0.11419
  Beta virt. eigenvalues --    0.11670   0.12426   0.13782   0.14693   0.15569

 Mulliken charges and spin densities:
               1          2
     1  C   -0.643043   0.000349
     2  H    0.222209  -0.000110
     3  C    1.245077  -0.001264
     4  C   -0.555468  -0.001324
     5  O   -0.293589  -0.000398
     6  O   -0.140092  -0.003554
     7  C   -0.064792  -0.054017
     8  C   -0.692491   0.604412
     9  H    0.220428   0.004393
    10  H    0.176169   0.021395
    11  H    0.181632  -0.032811
    12  H    0.259415  -0.194966
    13  H    0.169227  -0.027965
    14  O   -0.326507   0.703678
    15  H    0.241826  -0.017817
 Sum of Mulliken charges =  -0.00000   1.00000

 Dipole moment (field-independent basis, Debye):
    X=              0.6173    Y=              0.5319    Z=              1.7114  Tot=              1.8955
 Quadrupole moment (field-independent basis, Debye-Ang):
   XX=            -44.8359   YY=            -49.9466   ZZ=            -48.9215
   XY=             16.2356   XZ=             -0.0900   YZ=             -0.3205

 19\PMP3-0=-419.2722605\MP4SDQ=-419.2949425\CCSD=-419.29409\CCSD(T)=-41
 Normal termination of Gaussian 16 at Sun Apr 20 09:24:45 2025.
