 Gaussian 16, Revision A.03,
 Gaussian 16:  ES64L-G16RevA.03 25-Dec-2016

 --------------------------
 # ccsd(t)/6-311++g(d,p) sp
 --------------------------

 -------------------
 Title Card Required
 -------------------
 Symbolic Z-matrix:
 Charge =  0 Multiplicity = 2

                         Standard orientation:
 ---------------------------------------------------------------------
 Center     Atomic      Atomic             Coordinates (Angstroms)
 Number     Number       Type             X           Y           Z
 ---------------------------------------------------------------------
      1          6           0        2.980339    1.314629    0.301646
      2          1           0        3.741804    2.043671    0.454307
      3          6           0        2.125572    0.493179    0.129056
      4          6           0        1.120739   -0.531944   -0.106527
      5          8           0        1.350923   -1.612530   -0.567143
      6          8           0       -0.094996   -0.104271    0.258608
      7          6           0       -1.173196   -1.033512    0.037518
      8          6           0       -2.415570   -0.401884    0.585368
      9          1           0       -1.248703   -1.233009   -1.033374
     10          1           0       -0.936513   -1.974556    0.546137
     11          1           0       -2.358740   -0.141496    1.640413
     12          1           0       -2.511896    0.814458   -0.058004
     13          1           0       -3.326727   -0.935137    0.323290
     14          8           0       -2.241186    1.785821   -0.591820
     15          1           0       -1.304451    1.831092   -0.352301
 ---------------------------------------------------------------------

 SCF Done:  E(UHF) =  -417.963204374     A.U. after   28 cycles
 E2 =    -0.1294253362D+01 EUMP2 =    -0.41925745773583D+03
 CCSD(T)= -0.41935405115D+03

 The electronic state is 2-A.
 Alpha  occ. eigenvalues --  -20.63418 -20.57780 -20.56987 -11.43111 -11.32028
 Alpha  occ. eigenvalues --  -11.27922 -11.27840 -11.27025  -1.50097  -1.39959
 Alpha  occ. eigenvalues --   -1.34279  -1.10033  -1.06751  -0.94247  -0.85682
 Alpha  occ. eigenvalues --   -0.79216  -0.73868  -0.72445  -0.71185  -0.69107
 Alpha  occ. eigenvalues --   -0.62759  -0.61503  -0.60253  -0.57807  -0.55582
 Alpha  occ. eigenvalues --   -0.50367  -0.50067  -0.49554  -0.43797  -0.43698
 Alpha  occ. eigenvalues --   -0.42335
 Alpha virt. eigenvalues --    0.03500   0.04025   0.05891   0.06553   0.07053
 Alpha virt. eigenvalues --    0.07430   0.09193   0.09988   0.11256   0.11295
 Alpha virt. eigenvalues --    0.12292   0.13551   0.14490   0.15280   0.16296

  Beta  occ. eigenvalues --  -20.63391 -20.57778 -20.54815 -11.43117 -11.32211
  Beta  occ. eigenvalues --  -11.27839 -11.27024 -11.25819  -1.50057  -1.39912
  Beta  occ. eigenvalues --   -1.27304  -1.09099  -1.04812  -0.91851  -0.83527
  Beta  occ. eigenvalues --   -0.79035  -0.73830  -0.71271  -0.70517  -0.64133
  Beta  occ. eigenvalues --   -0.62008  -0.59469  -0.57849  -0.55000  -0.51299
  Beta  occ. eigenvalues --   -0.49833  -0.49151  -0.47720  -0.43731  -0.43687
  Beta virt. eigenvalues --    0.03517   0.03746   0.04927   0.05938   0.06627
  Beta virt. eigenvalues --    0.07383   0.07665   0.09283   0.10249   0.11298
  Beta virt. eigenvalues --    0.11825   0.12343   0.13642   0.14629   0.15537

 Mulliken charges and spin densities:
               1          2
     1  C   -0.640203  -0.000397
     2  H    0.223016  -0.000050
     3  C    1.245382  -0.000339
     4  C   -0.554877  -0.001724
     5  O   -0.294090  -0.000088
     6  O   -0.133066  -0.002087
     7  C   -0.067403  -0.081163
     8  C   -0.681828   0.878436
     9  H    0.228112   0.007825
    10  H    0.184082   0.036132
    11  H    0.196470  -0.045836
    12  H    0.329828  -0.168504
    13  H    0.181549  -0.043503
    14  O   -0.451302   0.430609
    15  H    0.234329  -0.009310
 Sum of Mulliken charges =  -0.00000   1.00000

 Dipole moment (field-independent basis, Debye):
    X=              0.5960    Y=             -0.4474    Z=              2.2038  Tot=              2.3264
 Quadrupole moment (field-independent basis, Debye-Ang):
   XX=            -44.0447   YY=            -51.6731   ZZ=            -48.9509
   XY=             18.4367   XZ=             -1.2677   YZ=              0.4085

 \PMP3-0=-419.277881\MP4SDQ=-419.3014412\CCSD=-419.2992345\CCSD(T)=-419
 Normal termination of Gaussian 16 at Sun Apr 20 07:40:39 2025.
