 Gaussian 16, Revision A.03,
 Gaussian 16:  ES64L-G16RevA.03 25-Dec-2016

 --------------------------
 # ccsd(t)/6-311++g(d,p) sp
 --------------------------

 -------------------
 Title Card Required
 -------------------
 Symbolic Z-matrix:
 Charge =  0 Multiplicity = 2

                         Standard orientation:
 ---------------------------------------------------------------------
 Center     Atomic      Atomic             Coordinates (Angstroms)
 Number     Number       Type             X           Y           Z
 ---------------------------------------------------------------------
      1          6           0        2.985142    1.305327    0.310376
      2          1           0        3.749283    2.030495    0.467565
      3          6           0        2.127703    0.487692    0.132845
      4          6           0        1.118671   -0.532699   -0.108670
      5          8           0        1.346535   -1.611923   -0.573911
      6          8           0       -0.095309   -0.101589    0.255904
      7          6           0       -1.176809   -1.030379    0.031129
      8          6           0       -2.422269   -0.391484    0.579370
      9          1           0       -1.250342   -1.219530   -1.041713
     10          1           0       -0.937178   -1.971214    0.531533
     11          1           0       -2.356417   -0.186397    1.647432
     12          1           0       -2.590696    0.603213    0.062483
     13          1           0       -3.311693   -0.978251    0.348652
     14          8           0       -2.227305    1.821290   -0.600128
     15          1           0       -1.288941    1.828725   -0.341171
 ---------------------------------------------------------------------

 SCF Done:  E(UHF) =  -417.976732549     A.U. after   33 cycles
 E2 =    -0.1272070659D+01 EUMP2 =    -0.41924880320778D+03
 CCSD(T)= -0.41935043819D+03

 The electronic state is 2-A.
 Alpha  occ. eigenvalues --  -20.63056 -20.62739 -20.57314 -11.42638 -11.30350
 Alpha  occ. eigenvalues --  -11.27660 -11.26889 -11.23258  -1.49440  -1.39699
 Alpha  occ. eigenvalues --   -1.39115  -1.08945  -1.05280  -0.93040  -0.84597
 Alpha  occ. eigenvalues --   -0.78446  -0.73659  -0.72357  -0.70527  -0.69470
 Alpha  occ. eigenvalues --   -0.67031  -0.60854  -0.59012  -0.56078  -0.55921
 Alpha  occ. eigenvalues --   -0.53357  -0.49716  -0.49215  -0.46336  -0.43557
 Alpha  occ. eigenvalues --   -0.43517
 Alpha virt. eigenvalues --    0.03463   0.04544   0.06310   0.06593   0.07066
 Alpha virt. eigenvalues --    0.07626   0.09165   0.10012   0.10954   0.11536
 Alpha virt. eigenvalues --    0.12389   0.13806   0.14761   0.15537   0.16354

  Beta  occ. eigenvalues --  -20.62735 -20.59102 -20.57316 -11.42638 -11.30406
  Beta  occ. eigenvalues --  -11.27658 -11.26890 -11.22559  -1.49432  -1.39340
  Beta  occ. eigenvalues --   -1.24942  -1.08774  -1.04529  -0.92193  -0.83722
  Beta  occ. eigenvalues --   -0.78390  -0.73627  -0.70495  -0.70110  -0.65240
  Beta  occ. eigenvalues --   -0.60775  -0.58998  -0.56140  -0.53320  -0.51421
  Beta  occ. eigenvalues --   -0.50824  -0.49332  -0.47941  -0.43571  -0.43520
  Beta virt. eigenvalues --    0.03439   0.04532   0.05369   0.06342   0.07067
  Beta virt. eigenvalues --    0.07580   0.08400   0.09487   0.10526   0.11360
  Beta virt. eigenvalues --    0.11741   0.12569   0.13913   0.14810   0.15624

 Mulliken charges and spin densities:
               1          2
     1  C   -0.645446   0.000459
     2  H    0.221376  -0.000120
     3  C    1.245802  -0.000677
     4  C   -0.553770  -0.000529
     5  O   -0.293087  -0.000341
     6  O   -0.143573  -0.001799
     7  C   -0.082480  -0.024139
     8  C   -0.693747   0.251344
     9  H    0.214423   0.000789
    10  H    0.171729   0.007060
    11  H    0.165174  -0.015312
    12  H    0.229992  -0.087000
    13  H    0.152972  -0.008796
    14  O   -0.234390   0.905780
    15  H    0.245024  -0.026720
 Sum of Mulliken charges =  -0.00000   1.00000

 Dipole moment (field-independent basis, Debye):
    X=              0.6083    Y=              1.3495    Z=              1.3044  Tot=              1.9730
 Quadrupole moment (field-independent basis, Debye-Ang):
   XX=            -45.3502   YY=            -48.6093   ZZ=            -48.9337
   XY=             14.2620   XZ=              0.9777   YZ=             -0.8883

 -419.2754663\MP4SDQ=-419.298209\CCSD=-419.2972215\CCSD(T)=-419.3504382
 Normal termination of Gaussian 16 at Mon Apr 21 05:29:28 2025.
