 Gaussian 16, Revision A.03,
 Gaussian 16:  ES64L-G16RevA.03 25-Dec-2016

 --------------------------
 # ccsd(t)/6-311++g(d,p) sp
 --------------------------

 -------------------
 Title Card Required
 -------------------
 Symbolic Z-matrix:
 Charge =  0 Multiplicity = 2

                         Standard orientation:
 ---------------------------------------------------------------------
 Center     Atomic      Atomic             Coordinates (Angstroms)
 Number     Number       Type             X           Y           Z
 ---------------------------------------------------------------------
      1          6           0        2.988446    1.297406    0.320604
      2          1           0        3.754480    2.019383    0.483093
      3          6           0        2.129168    0.482969    0.137204
      4          6           0        1.117327   -0.533201   -0.111589
      5          8           0        1.343579   -1.610112   -0.583135
      6          8           0       -0.095945   -0.100660    0.253737
      7          6           0       -1.179419   -1.027819    0.023256
      8          6           0       -2.429458   -0.403971    0.583387
      9          1           0       -1.252723   -1.207301   -1.051266
     10          1           0       -0.936140   -1.971948    0.514366
     11          1           0       -2.351170   -0.219191    1.654639
     12          1           0       -2.654301    0.558254    0.091108
     13          1           0       -3.297390   -1.031491    0.375437
     14          8           0       -2.214979    1.852799   -0.602607
     15          1           0       -1.280380    1.823777   -0.328508
 ---------------------------------------------------------------------

 SCF Done:  E(UHF) =  -417.983991587     A.U. after   27 cycles
 E2 =    -0.1267665097D+01 EUMP2 =    -0.41925165668355D+03
 CCSD(T)= -0.41935263734D+03

 The electronic state is 2-A.
 Alpha  occ. eigenvalues --  -20.63284 -20.62734 -20.57312 -11.42636 -11.30334
 Alpha  occ. eigenvalues --  -11.27651 -11.26883 -11.22880  -1.49406  -1.39632
 Alpha  occ. eigenvalues --   -1.39090  -1.08894  -1.05189  -0.93016  -0.84534
 Alpha  occ. eigenvalues --   -0.78415  -0.73642  -0.71848  -0.70478  -0.69308
 Alpha  occ. eigenvalues --   -0.67209  -0.60743  -0.59107  -0.56084  -0.55840
 Alpha  occ. eigenvalues --   -0.53215  -0.50254  -0.49337  -0.47204  -0.43555
 Alpha  occ. eigenvalues --   -0.43511
 Alpha virt. eigenvalues --    0.03467   0.04545   0.06333   0.06594   0.07078
 Alpha virt. eigenvalues --    0.07635   0.09192   0.10016   0.10874   0.11569
 Alpha virt. eigenvalues --    0.12379   0.13811   0.14770   0.15609   0.16348

  Beta  occ. eigenvalues --  -20.62733 -20.59238 -20.57314 -11.42637 -11.30371
  Beta  occ. eigenvalues --  -11.27649 -11.26884 -11.22393  -1.49402  -1.39319
  Beta  occ. eigenvalues --   -1.24287  -1.08773  -1.04647  -0.92404  -0.83893
  Beta  occ. eigenvalues --   -0.78368  -0.73620  -0.70483  -0.70124  -0.64953
  Beta  occ. eigenvalues --   -0.60747  -0.59249  -0.55960  -0.53197  -0.52012
  Beta  occ. eigenvalues --   -0.50929  -0.49349  -0.47990  -0.43563  -0.43511
  Beta virt. eigenvalues --    0.03446   0.04536   0.05532   0.06358   0.07076
  Beta virt. eigenvalues --    0.07596   0.08498   0.09584   0.10626   0.11229
  Beta virt. eigenvalues --    0.11762   0.12599   0.13932   0.14855   0.15672

 Mulliken charges and spin densities:
               1          2
     1  C   -0.645679   0.000261
     2  H    0.221292  -0.000117
     3  C    1.247718  -0.000114
     4  C   -0.553237  -0.000451
     5  O   -0.292458  -0.000262
     6  O   -0.142596  -0.001117
     7  C   -0.093935  -0.017675
     8  C   -0.681755   0.169834
     9  H    0.214938  -0.000006
    10  H    0.173140   0.004397
    11  H    0.163441  -0.011265
    12  H    0.217700  -0.056704
    13  H    0.148878  -0.003970
    14  O   -0.221983   0.946239
    15  H    0.244535  -0.029050
 Sum of Mulliken charges =  -0.00000   1.00000

 Dipole moment (field-independent basis, Debye):
    X=              0.6048    Y=              1.3616    Z=              1.2989  Tot=              1.9766
 Quadrupole moment (field-independent basis, Debye-Ang):
   XX=            -45.3071   YY=            -48.6156   ZZ=            -48.9619
   XY=             14.1423   XZ=              1.1054   YZ=             -0.9207

 \PMP3-0=-419.2788096\MP4SDQ=-419.3014268\CCSD=-419.3000226\CCSD(T)=-41
 Normal termination of Gaussian 16 at Mon Apr 21 07:13:16 2025.
