 Gaussian 16, Revision A.03,
 Gaussian 16:  ES64L-G16RevA.03 25-Dec-2016

 --------------------------
 # ccsd(t)/6-311++g(d,p) sp
 --------------------------

 -------------------
 Title Card Required
 -------------------
 Symbolic Z-matrix:
 Charge =  0 Multiplicity = 2

                         Standard orientation:
 ---------------------------------------------------------------------
 Center     Atomic      Atomic             Coordinates (Angstroms)
 Number     Number       Type             X           Y           Z
 ---------------------------------------------------------------------
      1          6           0        2.987326    1.300166    0.317122
      2          1           0        3.752721    2.023224    0.477818
      3          6           0        2.128688    0.484620    0.135713
      4          6           0        1.117792   -0.533021   -0.110589
      5          8           0        1.344626   -1.610716   -0.580009
      6          8           0       -0.095650   -0.100977    0.254472
      7          6           0       -1.178520   -1.028792    0.025979
      8          6           0       -2.426893   -0.399210    0.581773
      9          1           0       -1.251656   -1.211597   -1.047994
     10          1           0       -0.936499   -1.971674    0.520376
     11          1           0       -2.353104   -0.209407    1.652358
     12          1           0       -2.634170    0.571064    0.083404
     13          1           0       -3.302137   -1.013486    0.366185
     14          8           0       -2.219275    1.842120   -0.601865
     15          1           0       -1.283113    1.825879   -0.332920
 ---------------------------------------------------------------------

 SCF Done:  E(UHF) =  -417.981967901     A.U. after   28 cycles
 E2 =    -0.1268800094D+01 EUMP2 =    -0.41925076799469D+03
 CCSD(T)= -0.41935192965D+03

 The electronic state is 2-A.
 Alpha  occ. eigenvalues --  -20.63243 -20.62729 -20.57307 -11.42631 -11.30326
 Alpha  occ. eigenvalues --  -11.27651 -11.26882 -11.22940  -1.49412  -1.39667
 Alpha  occ. eigenvalues --   -1.39104  -1.08905  -1.05209  -0.93019  -0.84553
 Alpha  occ. eigenvalues --   -0.78418  -0.73645  -0.72007  -0.70489  -0.69369
 Alpha  occ. eigenvalues --   -0.67186  -0.60764  -0.59066  -0.56076  -0.55876
 Alpha  occ. eigenvalues --   -0.53243  -0.50049  -0.49309  -0.47008  -0.43554
 Alpha  occ. eigenvalues --   -0.43511
 Alpha virt. eigenvalues --    0.03465   0.04548   0.06329   0.06589   0.07077
 Alpha virt. eigenvalues --    0.07635   0.09184   0.10015   0.10897   0.11560
 Alpha virt. eigenvalues --    0.12384   0.13812   0.14770   0.15587   0.16349

  Beta  occ. eigenvalues --  -20.62727 -20.59216 -20.57309 -11.42631 -11.30368
  Beta  occ. eigenvalues --  -11.27649 -11.26883 -11.22399  -1.49406  -1.39319
  Beta  occ. eigenvalues --   -1.24475  -1.08771  -1.04612  -0.92345  -0.83848
  Beta  occ. eigenvalues --   -0.78369  -0.73619  -0.70480  -0.70117  -0.65058
  Beta  occ. eigenvalues --   -0.60745  -0.59169  -0.55994  -0.53223  -0.51847
  Beta  occ. eigenvalues --   -0.50927  -0.49339  -0.47976  -0.43563  -0.43512
  Beta virt. eigenvalues --    0.03443   0.04540   0.05487   0.06356   0.07076
  Beta virt. eigenvalues --    0.07594   0.08479   0.09557   0.10597   0.11272
  Beta virt. eigenvalues --    0.11758   0.12594   0.13929   0.14844   0.15656

 Mulliken charges and spin densities:
               1          2
     1  C   -0.645597   0.000292
     2  H    0.221297  -0.000116
     3  C    1.246944  -0.000245
     4  C   -0.553291  -0.000463
     5  O   -0.292727  -0.000278
     6  O   -0.142856  -0.001277
     7  C   -0.090716  -0.019249
     8  C   -0.685791   0.189888
     9  H    0.214646   0.000193
    10  H    0.172664   0.005019
    11  H    0.163625  -0.012238
    12  H    0.221932  -0.064094
    13  H    0.149870  -0.005184
    14  O   -0.224698   0.936227
    15  H    0.244698  -0.028475
 Sum of Mulliken charges =  -0.00000   1.00000

 Dipole moment (field-independent basis, Debye):
    X=              0.6045    Y=              1.3727    Z=              1.2936  Tot=              1.9807
 Quadrupole moment (field-independent basis, Debye-Ang):
   XX=            -45.3318   YY=            -48.5842   ZZ=            -48.9516
   XY=             14.1454   XZ=              1.0802   YZ=             -0.9219

 =-419.2777921\MP4SDQ=-419.3004476\CCSD=-419.2991562\CCSD(T)=-419.35192
 Normal termination of Gaussian 16 at Mon Apr 21 02:47:43 2025.
