 Gaussian 16, Revision A.03,
 Gaussian 16:  ES64L-G16RevA.03 25-Dec-2016

 --------------------------
 # ccsd(t)/6-311++g(d,p) sp
 --------------------------

 -------------------
 Title Card Required
 -------------------
 Symbolic Z-matrix:
 Charge =  0 Multiplicity = 2

                         Standard orientation:
 ---------------------------------------------------------------------
 Center     Atomic      Atomic             Coordinates (Angstroms)
 Number     Number       Type             X           Y           Z
 ---------------------------------------------------------------------
      1          6           0        2.979993    1.315200    0.301426
      2          1           0        3.741267    2.044471    0.453981
      3          6           0        2.125430    0.493516    0.128949
      4          6           0        1.120898   -0.531883   -0.106508
      5          8           0        1.351278   -1.612427   -0.567115
      6          8           0       -0.094949   -0.104558    0.258782
      7          6           0       -1.172953   -1.033801    0.037691
      8          6           0       -2.415176   -0.404181    0.586405
      9          1           0       -1.248520   -1.233747   -1.033144
     10          1           0       -0.936242   -1.975061    0.546524
     11          1           0       -2.358765   -0.139041    1.640094
     12          1           0       -2.508470    0.836861   -0.070360
     13          1           0       -3.327531   -0.933637    0.321941
     14          8           0       -2.241986    1.783897   -0.590904
     15          1           0       -1.305635    1.831751   -0.352915
 ---------------------------------------------------------------------

 SCF Done:  E(UHF) =  -417.966091185     A.U. after   28 cycles
 E2 =    -0.1294401804D+01 EUMP2 =    -0.41926049298831D+03
 CCSD(T)= -0.41935619713D+03

 The electronic state is 2-A.
 Alpha  occ. eigenvalues --  -20.63470 -20.57816 -20.56281 -11.43147 -11.32151
 Alpha  occ. eigenvalues --  -11.28081 -11.27852 -11.27035  -1.50148  -1.40004
 Alpha  occ. eigenvalues --   -1.33879  -1.10135  -1.06828  -0.94330  -0.85758
 Alpha  occ. eigenvalues --   -0.79276  -0.73884  -0.72483  -0.71236  -0.69112
 Alpha  occ. eigenvalues --   -0.62891  -0.61252  -0.60248  -0.57772  -0.55705
 Alpha  occ. eigenvalues --   -0.50106  -0.49971  -0.49477  -0.43797  -0.43709
 Alpha  occ. eigenvalues --   -0.42058
 Alpha virt. eigenvalues --    0.03495   0.03992   0.05856   0.06516   0.07069
 Alpha virt. eigenvalues --    0.07415   0.09206   0.09986   0.11260   0.11287
 Alpha virt. eigenvalues --    0.12283   0.13529   0.14467   0.15267   0.16283

  Beta  occ. eigenvalues --  -20.63441 -20.57813 -20.54392 -11.43153 -11.32343
  Beta  occ. eigenvalues --  -11.27852 -11.27033 -11.25880  -1.50103  -1.39954
  Beta  occ. eigenvalues --   -1.27867  -1.09121  -1.04823  -0.91816  -0.83489
  Beta  occ. eigenvalues --   -0.79080  -0.73844  -0.71325  -0.70549  -0.64345
  Beta  occ. eigenvalues --   -0.62093  -0.59608  -0.57906  -0.55115  -0.51925
  Beta  occ. eigenvalues --   -0.49912  -0.49255  -0.47535  -0.43742  -0.43699
  Beta virt. eigenvalues --    0.03514   0.03752   0.05024   0.05906   0.06594
  Beta virt. eigenvalues --    0.07375   0.07657   0.09284   0.10242   0.11280
  Beta virt. eigenvalues --    0.11865   0.12332   0.13623   0.14631   0.15539

 Mulliken charges and spin densities:
               1          2
     1  C   -0.639784  -0.000584
     2  H    0.223150  -0.000033
     3  C    1.245243  -0.000057
     4  C   -0.554555  -0.001725
     5  O   -0.294146   0.000004
     6  O   -0.131999  -0.001427
     7  C   -0.068971  -0.086857
     8  C   -0.681437   0.926973
     9  H    0.229217   0.008550
    10  H    0.185502   0.039045
    11  H    0.198578  -0.048536
    12  H    0.347248  -0.146410
    13  H    0.182968  -0.046799
    14  O   -0.474289   0.365361
    15  H    0.233276  -0.007505
 Sum of Mulliken charges =  -0.00000   1.00000

 Dipole moment (field-independent basis, Debye):
    X=              0.5886    Y=             -0.5789    Z=              2.2706  Tot=              2.4160
 Quadrupole moment (field-independent basis, Debye-Ang):
   XX=            -43.9099   YY=            -51.9444   ZZ=            -48.9654
   XY=             18.7194   XZ=             -1.4222   YZ=              0.5345

 \PMP3-0=-419.280074\MP4SDQ=-419.3039221\CCSD=-419.3015216\CCSD(T)=-419
 Normal termination of Gaussian 16 at Mon Apr 21 08:01:58 2025.
