 Gaussian 16, Revision A.03,
 Gaussian 16:  ES64L-G16RevA.03 25-Dec-2016

 --------------------------
 # ccsd(t)/6-311++g(d,p) sp
 --------------------------

 -------------------
 Title Card Required
 -------------------
 Symbolic Z-matrix:
 Charge =  0 Multiplicity = 2

                         Standard orientation:
 ---------------------------------------------------------------------
 Center     Atomic      Atomic             Coordinates (Angstroms)
 Number     Number       Type             X           Y           Z
 ---------------------------------------------------------------------
      1          6           0        2.240806    1.346891   -0.000005
      2          1           0        3.132664    1.928764   -0.000005
      3          6           0        1.206125    0.736995   -0.000005
      4          6           0        0.094302   -0.198465   -0.000005
      5          8           0        0.258859   -1.390513   -0.000008
      6          8           0       -1.082533    0.413632    0.000001
      7          6           0       -2.237697   -0.450740    0.000002
      8          6           0       -3.458358    0.439122    0.000005
      9          1           0       -2.189907   -1.089846   -0.883861
     10          1           0       -2.189903   -1.089848    0.883864
     11          1           0       -3.470895    1.074730    0.886137
     12          1           0       -3.470898    1.074732   -0.886126
     13          1           0       -4.359745   -0.175952    0.000006
     14          8           0        3.642227   -0.498521    0.000012
     15          1           0        2.929179   -1.162181    0.000008
 ---------------------------------------------------------------------

 SCF Done:  E(UHF) =  -417.996925627     A.U. after   35 cycles
 E2 =    -0.1257648207D+01 EUMP2 =    -0.41925457383459D+03
 CCSD(T)= -0.41935926046D+03

 The electronic state is 2-A.
 Alpha  occ. eigenvalues --  -20.62353 -20.61843 -20.57223 -11.42314 -11.30474
 Alpha  occ. eigenvalues --  -11.26797 -11.26161 -11.23491  -1.49356  -1.39292
 Alpha  occ. eigenvalues --   -1.37303  -1.08908  -1.04977  -0.92328  -0.84072
 Alpha  occ. eigenvalues --   -0.78235  -0.73128  -0.70389  -0.70304  -0.66428
 Alpha  occ. eigenvalues --   -0.64588  -0.61097  -0.59779  -0.56514  -0.54628
 Alpha  occ. eigenvalues --   -0.53212  -0.52874  -0.49786  -0.48113  -0.42949
 Alpha  occ. eigenvalues --   -0.42093
 Alpha virt. eigenvalues --    0.03772   0.04667   0.05923   0.06230   0.07146
 Alpha virt. eigenvalues --    0.08242   0.08595   0.09493   0.11596   0.12233
 Alpha virt. eigenvalues --    0.12531   0.12968   0.14167   0.15495   0.16074

  Beta  occ. eigenvalues --  -20.62341 -20.57762 -20.56980 -11.42499 -11.30471
  Beta  occ. eigenvalues --  -11.27666 -11.25122 -11.23490  -1.49226  -1.38876
  Beta  occ. eigenvalues --   -1.21880  -1.07991  -1.04939  -0.92689  -0.84033
  Beta  occ. eigenvalues --   -0.78162  -0.73036  -0.70319  -0.69987  -0.62034
  Beta  occ. eigenvalues --   -0.60734  -0.59586  -0.56452  -0.52890  -0.52840
  Beta  occ. eigenvalues --   -0.49732  -0.49119  -0.47580  -0.43203  -0.42720
  Beta virt. eigenvalues --    0.03775   0.04647   0.05776   0.06225   0.06979
  Beta virt. eigenvalues --    0.07386   0.08475   0.09481   0.10443   0.12311
  Beta virt. eigenvalues --    0.12329   0.12567   0.13190   0.14940   0.15293

 Mulliken charges and spin densities:
               1          2
     1  C   -2.617977  -0.411052
     2  H    0.189703   0.039883
     3  C    2.848303   0.471226
     4  C   -0.224447  -0.100276
     5  O   -0.340033   0.045296
     6  O   -0.067932   0.000779
     7  C    0.016595   0.001080
     8  C   -0.642531   0.000324
     9  H    0.181697   0.000050
    10  H    0.181697   0.000050
    11  H    0.154612   0.000014
    12  H    0.154612   0.000014
    13  H    0.143631   0.000028
    14  O   -0.246052   0.988274
    15  H    0.268123  -0.035690
 Sum of Mulliken charges =  -0.00000   1.00000

 Dipole moment (field-independent basis, Debye):
    X=             -2.4902    Y=              0.8528    Z=             -0.0000  Tot=              2.6322
 Quadrupole moment (field-independent basis, Debye-Ang):
   XX=            -44.0994   YY=            -47.9502   ZZ=            -47.7139
   XY=              4.7886   XZ=             -0.0000   YZ=             -0.0000

 5\PMP3-0=-419.2870061\MP4SDQ=-419.3066908\CCSD=-419.3071707\CCSD(T)=-4
 Normal termination of Gaussian 16 at Thu Apr 24 01:32:31 2025.
