 Gaussian 16, Revision A.03,
 Gaussian 16:  ES64L-G16RevA.03 25-Dec-2016

 --------------------------
 # ccsd(t)/6-311++g(d,p) sp
 --------------------------

 -------------------
 Title Card Required
 -------------------
 Symbolic Z-matrix:
 Charge =  0 Multiplicity = 2

                         Standard orientation:
 ---------------------------------------------------------------------
 Center     Atomic      Atomic             Coordinates (Angstroms)
 Number     Number       Type             X           Y           Z
 ---------------------------------------------------------------------
      1          6           0       -2.273748   -1.293884   -0.000005
      2          1           0       -3.159614   -1.885023   -0.000005
      3          6           0       -1.211452   -0.729474   -0.000005
      4          6           0       -0.093330    0.198164   -0.000005
      5          8           0       -0.254487    1.390616   -0.000008
      6          8           0        1.081390   -0.417651    0.000001
      7          6           0        2.238815    0.444128    0.000002
      8          6           0        3.457488   -0.448376    0.000005
      9          1           0        2.192391    1.083320   -0.883856
     10          1           0        2.192388    1.083322    0.883859
     11          1           0        3.468699   -1.083994    0.886147
     12          1           0        3.468702   -1.083995   -0.886137
     13          1           0        4.360187    0.164770    0.000006
     14          8           0       -3.615289    0.470053    0.000012
     15          1           0       -2.922294    1.154105    0.000009
 ---------------------------------------------------------------------

 SCF Done:  E(UHF) =  -417.993401464     A.U. after   35 cycles
 E2 =    -0.1256201931D+01 EUMP2 =    -0.41924960339481D+03
 CCSD(T)= -0.41935747116D+03

 The electronic state is 2-A.
 Alpha  occ. eigenvalues --  -20.62319 -20.61751 -20.57194 -11.42204 -11.30454
 Alpha  occ. eigenvalues --  -11.26742 -11.26176 -11.23478  -1.49332  -1.39308
 Alpha  occ. eigenvalues --   -1.37321  -1.09020  -1.04984  -0.92225  -0.84047
 Alpha  occ. eigenvalues --   -0.78257  -0.73209  -0.70369  -0.70319  -0.66262
 Alpha  occ. eigenvalues --   -0.64519  -0.61126  -0.59761  -0.56502  -0.54650
 Alpha  occ. eigenvalues --   -0.53233  -0.52860  -0.49885  -0.48151  -0.42968
 Alpha  occ. eigenvalues --   -0.41950
 Alpha virt. eigenvalues --    0.03784   0.04676   0.05931   0.06235   0.07148
 Alpha virt. eigenvalues --    0.08205   0.08730   0.09498   0.11591   0.12256
 Alpha virt. eigenvalues --    0.12569   0.12955   0.14225   0.15533   0.16164

  Beta  occ. eigenvalues --  -20.62305 -20.57712 -20.56882 -11.42439 -11.30450
  Beta  occ. eigenvalues --  -11.27870 -11.24842 -11.23477  -1.49166  -1.38773
  Beta  occ. eigenvalues --   -1.22224  -1.07849  -1.04946  -0.92677  -0.83992
  Beta  occ. eigenvalues --   -0.78154  -0.73038  -0.70282  -0.69901  -0.62018
  Beta  occ. eigenvalues --   -0.60666  -0.59516  -0.56423  -0.52832  -0.52816
  Beta  occ. eigenvalues --   -0.49926  -0.48994  -0.47476  -0.43364  -0.42657
  Beta virt. eigenvalues --    0.03787   0.04640   0.05752   0.06229   0.06963
  Beta virt. eigenvalues --    0.07318   0.08570   0.09484   0.10263   0.12289
  Beta virt. eigenvalues --    0.12393   0.12680   0.13225   0.14921   0.15276

 Mulliken charges and spin densities:
               1          2
     1  C   -2.500806  -0.537509
     2  H    0.191875   0.050730
     3  C    2.726545   0.607877
     4  C   -0.218246  -0.117589
     5  O   -0.342923   0.057974
     6  O   -0.073925   0.000947
     7  C    0.011705   0.000762
     8  C   -0.638439   0.000733
     9  H    0.181639   0.000057
    10  H    0.181639   0.000057
    11  H    0.154522   0.000018
    12  H    0.154522   0.000018
    13  H    0.143446   0.000025
    14  O   -0.243134   0.971142
    15  H    0.271577  -0.035243
 Sum of Mulliken charges =  -0.00000   1.00000

 Dipole moment (field-independent basis, Debye):
    X=              2.4484    Y=             -0.8463    Z=              0.0000  Tot=              2.5906
 Quadrupole moment (field-independent basis, Debye-Ang):
   XX=            -43.8348   YY=            -48.0883   ZZ=            -47.6865
   XY=              4.6454   XZ=              0.0000   YZ=              0.0000

 36\PMP3-0=-419.2847796\MP4SDQ=-419.3030634\CCSD=-419.3050267\CCSD(T)=-
 Normal termination of Gaussian 16 at Wed Apr 23 06:43:40 2025.
