 Gaussian 16, Revision A.03,
 Gaussian 16:  ES64L-G16RevA.03 25-Dec-2016

 --------------------------
 # ccsd(t)/6-311++g(d,p) sp
 --------------------------

 -------------------
 Title Card Required
 -------------------
 Symbolic Z-matrix:
 Charge =  0 Multiplicity = 2

                         Standard orientation:
 ---------------------------------------------------------------------
 Center     Atomic      Atomic             Coordinates (Angstroms)
 Number     Number       Type             X           Y           Z
 ---------------------------------------------------------------------
      1          6           0       -2.454921   -1.010340   -0.000004
      2          1           0       -3.104494   -1.871522   -0.000008
      3          6           0       -1.205517   -0.744135   -0.000005
      4          6           0       -0.095008    0.198908   -0.000005
      5          8           0       -0.244433    1.392913   -0.000009
      6          8           0        1.076449   -0.427691    0.000001
      7          6           0        2.242640    0.422480    0.000002
      8          6           0        3.452245   -0.482214    0.000005
      9          1           0        2.202607    1.062014   -0.883947
     10          1           0        2.202603    1.062016    0.883948
     11          1           0        3.457238   -1.117809    0.886239
     12          1           0        3.457241   -1.117812   -0.886226
     13          1           0        4.361034    0.121833    0.000006
     14          8           0       -3.498534    0.342796    0.000012
     15          1           0       -2.880714    1.088945    0.000004
 ---------------------------------------------------------------------

 SCF Done:  E(UHF) =  -417.998222079     A.U. after   29 cycles
 E2 =    -0.1259555108D+01 EUMP2 =    -0.41925777718755D+03
 CCSD(T)= -0.41937811649D+03

 The electronic state is 2-A.
 Alpha  occ. eigenvalues --  -20.62386 -20.59334 -20.57617 -11.41929 -11.31259
 Alpha  occ. eigenvalues --  -11.30585 -11.28845 -11.23620  -1.49515  -1.39758
 Alpha  occ. eigenvalues --   -1.34433  -1.10795  -1.05337  -0.92378  -0.84574
 Alpha  occ. eigenvalues --   -0.78869  -0.72715  -0.71039  -0.70576  -0.63358
 Alpha  occ. eigenvalues --   -0.61681  -0.61513  -0.59721  -0.56552  -0.54015
 Alpha  occ. eigenvalues --   -0.53038  -0.52410  -0.50940  -0.48657  -0.43604
 Alpha  occ. eigenvalues --   -0.42599
 Alpha virt. eigenvalues --    0.03697   0.04760   0.05854   0.06097   0.07094
 Alpha virt. eigenvalues --    0.08132   0.08862   0.09349   0.11251   0.12330
 Alpha virt. eigenvalues --    0.12427   0.12784   0.14325   0.15466   0.16324

  Beta  occ. eigenvalues --  -20.62369 -20.57352 -20.56889 -11.42382 -11.33478
  Beta  occ. eigenvalues --  -11.30583 -11.25496 -11.23619  -1.49114  -1.38526
  Beta  occ. eigenvalues --   -1.28334  -1.07159  -1.04532  -0.92921  -0.84076
  Beta  occ. eigenvalues --   -0.78385  -0.72236  -0.70352  -0.69803  -0.61524
  Beta  occ. eigenvalues --   -0.60610  -0.59296  -0.56456  -0.53475  -0.52917
  Beta  occ. eigenvalues --   -0.51974  -0.50498  -0.47815  -0.47150  -0.41412
  Beta virt. eigenvalues --    0.03677   0.04678   0.05059   0.06064   0.06328
  Beta virt. eigenvalues --    0.07102   0.08121   0.09004   0.09343   0.11905
  Beta virt. eigenvalues --    0.12398   0.12726   0.13024   0.14516   0.14955

 Mulliken charges and spin densities:
               1          2
     1  C   -1.277430  -1.033510
     2  H    0.221602   0.085240
     3  C    1.555366   1.504152
     4  C   -0.212177  -0.143808
     5  O   -0.339295   0.133947
     6  O   -0.099071   0.001710
     7  C   -0.017227  -0.006404
     8  C   -0.603680   0.004746
     9  H    0.182000   0.000260
    10  H    0.182001   0.000260
    11  H    0.153825   0.000051
    12  H    0.153825   0.000051
    13  H    0.142476  -0.000142
    14  O   -0.311390   0.473259
    15  H    0.269176  -0.019810
 Sum of Mulliken charges =  -0.00000   1.00000

 Dipole moment (field-independent basis, Debye):
    X=              3.2539    Y=             -1.5467    Z=             -0.0000  Tot=              3.6028
 Quadrupole moment (field-independent basis, Debye-Ang):
   XX=            -49.0924   YY=            -47.8595   ZZ=            -47.5004
   XY=              5.8763   XZ=              0.0001   YZ=              0.0000

 \PMP3-0=-419.3050004\MP4SDQ=-419.3155503\CCSD=-419.323271\CCSD(T)=-419
 Normal termination of Gaussian 16 at Wed Apr 23 11:27:59 2025.
