 Gaussian 16, Revision A.03,
 Gaussian 16:  ES64L-G16RevA.03 25-Dec-2016

 --------------------------
 # ccsd(t)/6-311++g(d,p) sp
 --------------------------

 -------------------
 Title Card Required
 -------------------
 Symbolic Z-matrix:
 Charge =  0 Multiplicity = 2

                         Standard orientation:
 ---------------------------------------------------------------------
 Center     Atomic      Atomic             Coordinates (Angstroms)
 Number     Number       Type             X           Y           Z
 ---------------------------------------------------------------------
      1          6           0       -2.394297   -1.105031   -0.000005
      2          1           0       -3.143761   -1.871526   -0.000008
      3          6           0       -1.211681   -0.731475   -0.000005
      4          6           0       -0.092300    0.198454   -0.000005
      5          8           0       -0.246944    1.391025   -0.000009
      6          8           0        1.077960   -0.425674    0.000001
      7          6           0        2.242052    0.428285    0.000002
      8          6           0        3.453991   -0.473038    0.000005
      9          1           0        2.199659    1.067481   -0.883998
     10          1           0        2.199655    1.067483    0.884000
     11          1           0        3.460818   -1.108564    0.886251
     12          1           0        3.460820   -1.108567   -0.886238
     13          1           0        4.360969    0.133686    0.000006
     14          8           0       -3.534683    0.384856    0.000012
     15          1           0       -2.895414    1.115179    0.000004
 ---------------------------------------------------------------------

 SCF Done:  E(UHF) =  -417.984664416     A.U. after   32 cycles
 E2 =    -0.1249202597D+01 EUMP2 =    -0.41923386701226D+03
 CCSD(T)= -0.41935945228D+03

 The electronic state is 2-A.
 Alpha  occ. eigenvalues --  -20.62348 -20.60578 -20.57406 -11.41962 -11.30531
 Alpha  occ. eigenvalues --  -11.28320 -11.27588 -11.23557  -1.49470  -1.39639
 Alpha  occ. eigenvalues --   -1.36050  -1.10076  -1.05192  -0.92101  -0.84215
 Alpha  occ. eigenvalues --   -0.78567  -0.72869  -0.70746  -0.70499  -0.64302
 Alpha  occ. eigenvalues --   -0.63081  -0.61495  -0.59856  -0.56570  -0.54044
 Alpha  occ. eigenvalues --   -0.53187  -0.52979  -0.50722  -0.48509  -0.43496
 Alpha  occ. eigenvalues --   -0.42341
 Alpha virt. eigenvalues --    0.03752   0.04763   0.05890   0.06161   0.07112
 Alpha virt. eigenvalues --    0.08112   0.09008   0.09423   0.11391   0.12296
 Alpha virt. eigenvalues --    0.12581   0.12826   0.14315   0.15587   0.16372

  Beta  occ. eigenvalues --  -20.62329 -20.57303 -20.56782 -11.42392 -11.30629
  Beta  occ. eigenvalues --  -11.30527 -11.24801 -11.23556  -1.49136  -1.38579
  Beta  occ. eigenvalues --   -1.24852  -1.07374  -1.04925  -0.92835  -0.83990
  Beta  occ. eigenvalues --   -0.78258  -0.72561  -0.70322  -0.69781  -0.61630
  Beta  occ. eigenvalues --   -0.60592  -0.59369  -0.56429  -0.52881  -0.52879
  Beta  occ. eigenvalues --   -0.51001  -0.48754  -0.47193  -0.45747  -0.42241
  Beta virt. eigenvalues --    0.03751   0.04724   0.05323   0.06142   0.06532
  Beta virt. eigenvalues --    0.07128   0.08490   0.09308   0.09404   0.12071
  Beta virt. eigenvalues --    0.12406   0.12738   0.13250   0.14614   0.15090

 Mulliken charges and spin densities:
               1          2
     1  C   -1.678331  -1.076772
     2  H    0.213293   0.086724
     3  C    1.977382   1.280331
     4  C   -0.289327  -0.158419
     5  O   -0.340914   0.114787
     6  O   -0.092654   0.001753
     7  C   -0.009198  -0.003126
     8  C   -0.615604   0.003581
     9  H    0.181760   0.000144
    10  H    0.181760   0.000144
    11  H    0.154191   0.000039
    12  H    0.154191   0.000039
    13  H    0.142776  -0.000058
    14  O   -0.251290   0.781263
    15  H    0.271964  -0.030429
 Sum of Mulliken charges =  -0.00000   1.00000

 Dipole moment (field-independent basis, Debye):
    X=              2.8721    Y=             -1.2086    Z=             -0.0000  Tot=              3.1160
 Quadrupole moment (field-independent basis, Debye-Ang):
   XX=            -46.3850   YY=            -47.9397   ZZ=            -47.5638
   XY=              5.1487   XZ=              0.0001   YZ=              0.0000

 MP3-0=-419.2876685\MP4SDQ=-419.2942843\CCSD=-419.3046452\CCSD(T)=-419.
 Normal termination of Gaussian 16 at Thu Apr 24 05:56:28 2025.
