 Gaussian 16, Revision A.03,
 Gaussian 16:  ES64L-G16RevA.03 25-Dec-2016

 --------------------------
 # ccsd(t)/6-311++g(d,p) sp
 --------------------------

 -------------------
 Title Card Required
 -------------------
 Symbolic Z-matrix:
 Charge =  0 Multiplicity = 2

                         Standard orientation:
 ---------------------------------------------------------------------
 Center     Atomic      Atomic             Coordinates (Angstroms)
 Number     Number       Type             X           Y           Z
 ---------------------------------------------------------------------
      1          6           0       -2.344031   -1.181183   -0.000005
      2          1           0       -3.166496   -1.860722   -0.000007
      3          6           0       -1.215357   -0.726517   -0.000005
      4          6           0       -0.092183    0.197761   -0.000005
      5          8           0       -0.249445    1.390262   -0.000009
      6          8           0        1.079371   -0.423251    0.000001
      7          6           0        2.240973    0.433821    0.000002
      8          6           0        3.455519   -0.464105    0.000005
      9          1           0        2.196985    1.073018   -0.883937
     10          1           0        2.196981    1.073020    0.883939
     11          1           0        3.464059   -1.099647    0.886220
     12          1           0        3.464062   -1.099649   -0.886208
     13          1           0        4.360821    0.145162    0.000006
     14          8           0       -3.564503    0.417312    0.000012
     15          1           0       -2.909315    1.135563    0.000007
 ---------------------------------------------------------------------

 SCF Done:  E(UHF) =  -417.985581630     A.U. after   33 cycles
 E2 =    -0.1250793835D+01 EUMP2 =    -0.41923637546555D+03
 CCSD(T)= -0.41935507848D+03

 The electronic state is 2-A.
 Alpha  occ. eigenvalues --  -20.62293 -20.61281 -20.57237 -11.42013 -11.30464
 Alpha  occ. eigenvalues --  -11.27110 -11.26660 -11.23494  -1.49359  -1.39446
 Alpha  occ. eigenvalues --   -1.36938  -1.09497  -1.05067  -0.92052  -0.84053
 Alpha  occ. eigenvalues --   -0.78383  -0.73141  -0.70488  -0.70394  -0.65365
 Alpha  occ. eigenvalues --   -0.64007  -0.61284  -0.59777  -0.56519  -0.54406
 Alpha  occ. eigenvalues --   -0.53311  -0.52891  -0.50294  -0.48315  -0.43187
 Alpha  occ. eigenvalues --   -0.41969
 Alpha virt. eigenvalues --    0.03788   0.04723   0.05922   0.06214   0.07132
 Alpha virt. eigenvalues --    0.08119   0.08985   0.09477   0.11506   0.12284
 Alpha virt. eigenvalues --    0.12618   0.12895   0.14309   0.15598   0.16343

  Beta  occ. eigenvalues --  -20.62275 -20.57519 -20.56745 -11.42371 -11.30460
  Beta  occ. eigenvalues --  -11.28949 -11.24513 -11.23493  -1.49099  -1.38604
  Beta  occ. eigenvalues --   -1.23398  -1.07551  -1.04980  -0.92708  -0.83934
  Beta  occ. eigenvalues --   -0.78177  -0.72868  -0.70261  -0.69772  -0.61861
  Beta  occ. eigenvalues --   -0.60575  -0.59390  -0.56396  -0.52816  -0.52781
  Beta  occ. eigenvalues --   -0.50461  -0.48745  -0.47270  -0.44292  -0.42507
  Beta virt. eigenvalues --    0.03790   0.04662   0.05588   0.06203   0.06768
  Beta virt. eigenvalues --    0.07180   0.08672   0.09457   0.09694   0.12189
  Beta virt. eigenvalues --    0.12415   0.12777   0.13331   0.14742   0.15195

 Mulliken charges and spin densities:
               1          2
     1  C   -2.034959  -0.877727
     2  H    0.204569   0.076212
     3  C    2.329559   0.993229
     4  C   -0.293455  -0.149711
     5  O   -0.344015   0.090714
     6  O   -0.086872   0.001523
     7  C   -0.000832  -0.000994
     8  C   -0.626371   0.002305
     9  H    0.181554   0.000087
    10  H    0.181555   0.000087
    11  H    0.154349   0.000031
    12  H    0.154349   0.000031
    13  H    0.142996  -0.000007
    14  O   -0.236909   0.897996
    15  H    0.274481  -0.033776
 Sum of Mulliken charges =  -0.00000   1.00000

 Dipole moment (field-independent basis, Debye):
    X=              2.5681    Y=             -0.9750    Z=             -0.0000  Tot=              2.7469
 Quadrupole moment (field-independent basis, Debye-Ang):
   XX=            -44.5425   YY=            -48.0696   ZZ=            -47.6147
   XY=              4.7072   XZ=              0.0001   YZ=              0.0000

 Normal termination of Gaussian 16 at Wed Apr 23 07:40:27 2025.
