 Gaussian 16, Revision A.03,
 Gaussian 16:  ES64L-G16RevA.03 25-Dec-2016

 --------------------------
 # ccsd(t)/6-311++g(d,p) sp
 --------------------------

 -------------------
 Title Card Required
 -------------------
 Symbolic Z-matrix:
 Charge =  0 Multiplicity = 2

                         Standard orientation:
 ---------------------------------------------------------------------
 Center     Atomic      Atomic             Coordinates (Angstroms)
 Number     Number       Type             X           Y           Z
 ---------------------------------------------------------------------
      1          6           0        2.229943    1.363932   -0.000005
      2          1           0        3.121326    1.946806   -0.000005
      3          6           0        1.203954    0.740290   -0.000005
      4          6           0        0.094704   -0.198380   -0.000005
      5          8           0        0.260863   -1.390209   -0.000008
      6          8           0       -1.083017    0.412105    0.000001
      7          6           0       -2.237333   -0.453247    0.000002
      8          6           0       -3.458654    0.435752    0.000005
      9          1           0       -2.189054   -1.092307   -0.883873
     10          1           0       -2.189051   -1.092308    0.883876
     11          1           0       -3.471601    1.071359    0.886133
     12          1           0       -3.471604    1.071360   -0.886122
     13          1           0       -4.359632   -0.179922    0.000006
     14          8           0        3.651204   -0.508175    0.000012
     15          1           0        2.931535   -1.164835    0.000008
 ---------------------------------------------------------------------

 SCF Done:  E(UHF) =  -417.997935168     A.U. after   35 cycles
 E2 =    -0.1257978581D+01 EUMP2 =    -0.41925591374830D+03
 CCSD(T)= -0.41935978718D+03

 The electronic state is 2-A.
 Alpha  occ. eigenvalues --  -20.62363 -20.61862 -20.57234 -11.42349 -11.30482
 Alpha  occ. eigenvalues --  -11.26827 -11.26165 -11.23496  -1.49365  -1.39290
 Alpha  occ. eigenvalues --   -1.37285  -1.08882  -1.04978  -0.92361  -0.84082
 Alpha  occ. eigenvalues --   -0.78231  -0.73101  -0.70397  -0.70303  -0.66457
 Alpha  occ. eigenvalues --   -0.64591  -0.61091  -0.59785  -0.56519  -0.54611
 Alpha  occ. eigenvalues --   -0.53208  -0.52880  -0.49761  -0.48103  -0.42950
 Alpha  occ. eigenvalues --   -0.42148
 Alpha virt. eigenvalues --    0.03768   0.04664   0.05919   0.06227   0.07145
 Alpha virt. eigenvalues --    0.08253   0.08554   0.09491   0.11593   0.12226
 Alpha virt. eigenvalues --    0.12518   0.12971   0.14149   0.15482   0.16049

  Beta  occ. eigenvalues --  -20.62352 -20.57773 -20.57012 -11.42518 -11.30479
  Beta  occ. eigenvalues --  -11.27620 -11.25212 -11.23496  -1.49246  -1.38909
  Beta  occ. eigenvalues --   -1.21786  -1.08037  -1.04940  -0.92693  -0.84046
  Beta  occ. eigenvalues --   -0.78166  -0.73031  -0.70332  -0.70015  -0.62030
  Beta  occ. eigenvalues --   -0.60757  -0.59608  -0.56462  -0.52911  -0.52849
  Beta  occ. eigenvalues --   -0.49675  -0.49158  -0.47613  -0.43170  -0.42741
  Beta virt. eigenvalues --    0.03771   0.04648   0.05780   0.06223   0.06979
  Beta virt. eigenvalues --    0.07406   0.08445   0.09479   0.10488   0.12291
  Beta virt. eigenvalues --    0.12316   0.12538   0.13184   0.14938   0.15296

 Mulliken charges and spin densities:
               1          2
     1  C   -2.642227  -0.373776
     2  H    0.189412   0.036722
     3  C    2.880558   0.431059
     4  C   -0.233149  -0.094540
     5  O   -0.339026   0.041498
     6  O   -0.066421   0.000742
     7  C    0.017946   0.001138
     8  C   -0.643721   0.000227
     9  H    0.181706   0.000048
    10  H    0.181707   0.000048
    11  H    0.154646   0.000012
    12  H    0.154646   0.000012
    13  H    0.143683   0.000028
    14  O   -0.246703   0.992650
    15  H    0.266943  -0.035870
 Sum of Mulliken charges =  -0.00000   1.00000

 Dipole moment (field-independent basis, Debye):
    X=             -2.5111    Y=              0.8613    Z=             -0.0000  Tot=              2.6548
 Quadrupole moment (field-independent basis, Debye-Ang):
   XX=            -44.2323   YY=            -47.8861   ZZ=            -47.7214
   XY=              4.8540   XZ=             -0.0000   YZ=             -0.0000

 99\PMP3-0=-419.2876762\MP4SDQ=-419.307692\CCSD=-419.3077909\CCSD(T)=-4
 Normal termination of Gaussian 16 at Wed Apr 23 04:50:33 2025.
