 Gaussian 16, Revision A.03,
 Gaussian 16:  ES64L-G16RevA.03 25-Dec-2016

 --------------------------
 # ccsd(t)/6-311++g(d,p) sp
 --------------------------

 -------------------
 Title Card Required
 -------------------
 Symbolic Z-matrix:
 Charge =  0 Multiplicity = 2

                         Standard orientation:
 ---------------------------------------------------------------------
 Center     Atomic      Atomic             Coordinates (Angstroms)
 Number     Number       Type             X           Y           Z
 ---------------------------------------------------------------------
      1          6           0       -2.356328   -1.162113   -0.000006
      2          1           0       -3.162842   -1.862082   -0.000009
      3          6           0       -1.215102   -0.727113   -0.000004
      4          6           0       -0.092075    0.197874   -0.000006
      5          8           0       -0.248767    1.390348   -0.000009
      6          8           0        1.079008   -0.423962    0.000001
      7          6           0        2.241295    0.432327    0.000002
      8          6           0        3.455147   -0.466490    0.000005
      9          1           0        2.197686    1.071511   -0.883957
     10          1           0        2.197682    1.071515    0.883959
     11          1           0        3.463250   -1.102016    0.886236
     12          1           0        3.463253   -1.102019   -0.886218
     13          1           0        4.360871    0.142137    0.000007
     14          8           0       -3.556663    0.408987    0.000013
     15          1           0       -2.906144    1.131055   -0.000000
 ---------------------------------------------------------------------

 SCF Done:  E(UHF) =  -417.984713873     A.U. after   33 cycles
 E2 =    -0.1249948212D+01 EUMP2 =    -0.41923466208537D+03
 CCSD(T)= -0.41935541292D+03

 The electronic state is 2-A.
 Alpha  occ. eigenvalues --  -20.62302 -20.61141 -20.57267 -11.41994 -11.30478
 Alpha  occ. eigenvalues --  -11.27306 -11.26842 -11.23507  -1.49382  -1.39489
 Alpha  occ. eigenvalues --   -1.36774  -1.09623  -1.05095  -0.92047  -0.84078
 Alpha  occ. eigenvalues --   -0.78421  -0.73087  -0.70541  -0.70415  -0.65118
 Alpha  occ. eigenvalues --   -0.63836  -0.61330  -0.59793  -0.56530  -0.54313
 Alpha  occ. eigenvalues --   -0.53317  -0.52909  -0.50395  -0.48359  -0.43255
 Alpha  occ. eigenvalues --   -0.42036
 Alpha virt. eigenvalues --    0.03782   0.04735   0.05916   0.06204   0.07127
 Alpha virt. eigenvalues --    0.08112   0.09008   0.09467   0.11481   0.12288
 Alpha virt. eigenvalues --    0.12616   0.12879   0.14314   0.15601   0.16358

  Beta  occ. eigenvalues --  -20.62284 -20.57469 -20.56742 -11.42373 -11.30473
  Beta  occ. eigenvalues --  -11.29277 -11.24535 -11.23506  -1.49104  -1.38592
  Beta  occ. eigenvalues --   -1.23690  -1.07504  -1.04980  -0.92731  -0.83939
  Beta  occ. eigenvalues --   -0.78192  -0.72804  -0.70272  -0.69766  -0.61809
  Beta  occ. eigenvalues --   -0.60574  -0.59380  -0.56401  -0.52828  -0.52793
  Beta  occ. eigenvalues --   -0.50576  -0.48723  -0.47246  -0.44577  -0.42462
  Beta virt. eigenvalues --    0.03784   0.04675   0.05536   0.06191   0.06712
  Beta virt. eigenvalues --    0.07164   0.08653   0.09446   0.09591   0.12163
  Beta virt. eigenvalues --    0.12414   0.12772   0.13328   0.14706   0.15173

 Mulliken charges and spin densities:
               1          2
     1  C   -1.946860  -0.935680
     2  H    0.206972   0.079734
     3  C    2.248651   1.066531
     4  C   -0.301016  -0.153325
     5  O   -0.343392   0.096682
     6  O   -0.088446   0.001617
     7  C   -0.002956  -0.001452
     8  C   -0.623827   0.002625
     9  H    0.181589   0.000097
    10  H    0.181589   0.000097
    11  H    0.154318   0.000033
    12  H    0.154319   0.000033
    13  H    0.142936  -0.000017
    14  O   -0.238005   0.876260
    15  H    0.274130  -0.033235
 Sum of Mulliken charges =  -0.00000   1.00000

 Dipole moment (field-independent basis, Debye):
    X=              2.6279    Y=             -1.0212    Z=             -0.0000  Tot=              2.8193
 Quadrupole moment (field-independent basis, Debye-Ang):
   XX=            -44.8935   YY=            -48.0429   ZZ=            -47.6017
   XY=              4.7829   XZ=              0.0001   YZ=              0.0000

 0=-419.2828731\MP4SDQ=-419.2933747\CCSD=-419.3013846\CCSD(T)=-419.3554
 Normal termination of Gaussian 16 at Wed Apr 23 03:54:03 2025.
