 Gaussian 16, Revision A.03,
 Gaussian 16:  ES64L-G16RevA.03 25-Dec-2016

 --------------------------
 # ccsd(t)/6-311++g(d,p) sp
 --------------------------

 -------------------
 Title Card Required
 -------------------
 Symbolic Z-matrix:
 Charge =  0 Multiplicity = 2

                         Standard orientation:
 ---------------------------------------------------------------------
 Center     Atomic      Atomic             Coordinates (Angstroms)
 Number     Number       Type             X           Y           Z
 ---------------------------------------------------------------------
      1          6           0       -2.466099   -0.991408   -0.000004
      2          1           0       -3.097730   -1.867405   -0.000008
      3          6           0       -1.204952   -0.747061   -0.000005
      4          6           0       -0.095839    0.198781   -0.000005
      5          8           0       -0.244034    1.393293   -0.000009
      6          8           0        1.076186   -0.427996    0.000001
      7          6           0        2.242680    0.421427    0.000002
      8          6           0        3.451936   -0.483846    0.000005
      9          1           0        2.203188    1.061065   -0.883922
     10          1           0        2.203184    1.061067    0.883924
     11          1           0        3.456591   -1.119471    0.886226
     12          1           0        3.456594   -1.119474   -0.886213
     13          1           0        4.361060    0.119716    0.000006
     14          8           0       -3.490970    0.333812    0.000012
     15          1           0       -2.878708    1.084278    0.000004
 ---------------------------------------------------------------------

 SCF Done:  E(UHF) =  -418.003377870     A.U. after   28 cycles
 E2 =    -0.1261950688D+01 EUMP2 =    -0.41926532855810D+03
 CCSD(T)= -0.41938312398D+03

 The electronic state is 2-A.
 Alpha  occ. eigenvalues --  -20.62352 -20.59168 -20.57605 -11.41884 -11.31798
 Alpha  occ. eigenvalues --  -11.30565 -11.28977 -11.23608  -1.49468  -1.39719
 Alpha  occ. eigenvalues --   -1.34295  -1.10828  -1.05323  -0.92405  -0.84622
 Alpha  occ. eigenvalues --   -0.78907  -0.72729  -0.71044  -0.70548  -0.63367
 Alpha  occ. eigenvalues --   -0.61668  -0.61381  -0.59593  -0.56525  -0.54022
 Alpha  occ. eigenvalues --   -0.53013  -0.52369  -0.50902  -0.48638  -0.43482
 Alpha  occ. eigenvalues --   -0.42565
 Alpha virt. eigenvalues --    0.03699   0.04762   0.05856   0.06099   0.07097
 Alpha virt. eigenvalues --    0.08114   0.08857   0.09348   0.11243   0.12347
 Alpha virt. eigenvalues --    0.12405   0.12791   0.14334   0.15442   0.16318

  Beta  occ. eigenvalues --  -20.62335 -20.57529 -20.56868 -11.42331 -11.33896
  Beta  occ. eigenvalues --  -11.30563 -11.25553 -11.23608  -1.49060  -1.38472
  Beta  occ. eigenvalues --   -1.29363  -1.07086  -1.04366  -0.92874  -0.84056
  Beta  occ. eigenvalues --   -0.78384  -0.72192  -0.70317  -0.69769  -0.61621
  Beta  occ. eigenvalues --   -0.60582  -0.59238  -0.56436  -0.53793  -0.52891
  Beta  occ. eigenvalues --   -0.52125  -0.51527  -0.47904  -0.47123  -0.41152
  Beta virt. eigenvalues --    0.03674   0.04650   0.05090   0.06064   0.06332
  Beta virt. eigenvalues --    0.07105   0.08104   0.08960   0.09344   0.11882
  Beta virt. eigenvalues --    0.12407   0.12752   0.12997   0.14504   0.14943

 Mulliken charges and spin densities:
               1          2
     1  C   -1.204507  -0.981751
     2  H    0.222716   0.084163
     3  C    1.481554   1.524904
     4  C   -0.200174  -0.139381
     5  O   -0.340431   0.135282
     6  O   -0.100164   0.001734
     7  C   -0.018247  -0.007067
     8  C   -0.601905   0.004902
     9  H    0.181926   0.000288
    10  H    0.181926   0.000288
    11  H    0.153710   0.000053
    12  H    0.153710   0.000053
    13  H    0.142332  -0.000160
    14  O   -0.321986   0.393620
    15  H    0.269540  -0.016928
 Sum of Mulliken charges =  -0.00000   1.00000

 Dipole moment (field-independent basis, Debye):
    X=              3.2559    Y=             -1.5722    Z=             -0.0000  Tot=              3.6156
 Quadrupole moment (field-independent basis, Debye-Ang):
   XX=            -49.3192   YY=            -47.8962   ZZ=            -47.4921
   XY=              5.9009   XZ=              0.0001   YZ=              0.0000

 3-0=-419.3095065\MP4SDQ=-419.3219369\CCSD=-419.3284498\CCSD(T)=-419.38
 Normal termination of Gaussian 16 at Thu Apr 24 03:18:41 2025.
