 Gaussian 16, Revision A.03,
 Gaussian 16:  ES64L-G16RevA.03 25-Dec-2016

 --------------------------
 # ccsd(t)/6-311++g(d,p) sp
 --------------------------

 -------------------
 Title Card Required
 -------------------
 Symbolic Z-matrix:
 Charge =  0 Multiplicity = 2

                         Standard orientation:
 ---------------------------------------------------------------------
 Center     Atomic      Atomic             Coordinates (Angstroms)
 Number     Number       Type             X           Y           Z
 ---------------------------------------------------------------------
      1          6           0       -2.368816   -1.143032   -0.000005
      2          1           0       -3.157766   -1.864786   -0.000008
      3          6           0       -1.214377   -0.728173   -0.000005
      4          6           0       -0.092009    0.198043   -0.000005
      5          8           0       -0.248148    1.390494   -0.000009
      6          8           0        1.078658   -0.424579    0.000001
      7          6           0        2.241591    0.430931    0.000002
      8          6           0        3.454762   -0.468771    0.000005
      9          1           0        2.198396    1.070086   -0.883984
     10          1           0        2.198392    1.070089    0.883986
     11          1           0        3.462396   -1.104326    0.886226
     12          1           0        3.462399   -1.104330   -0.886213
     13          1           0        4.360952    0.139134    0.000006
     14          8           0       -3.549111    0.400820    0.000013
     15          1           0       -2.902867    1.126264    0.000003
 ---------------------------------------------------------------------

 SCF Done:  E(UHF) =  -417.984201179     A.U. after   32 cycles
 E2 =    -0.1249314193D+01 EUMP2 =    -0.41923351537174D+03
 CCSD(T)= -0.41935619225D+03

 The electronic state is 2-A.
 Alpha  occ. eigenvalues --  -20.62316 -20.60977 -20.57306 -11.41980 -11.30494
 Alpha  occ. eigenvalues --  -11.27567 -11.27060 -11.23522  -1.49410  -1.39537
 Alpha  occ. eigenvalues --   -1.36570  -1.09762  -1.05126  -0.92052  -0.84111
 Alpha  occ. eigenvalues --   -0.78464  -0.73017  -0.70603  -0.70441  -0.64848
 Alpha  occ. eigenvalues --   -0.63627  -0.61381  -0.59813  -0.56544  -0.54212
 Alpha  occ. eigenvalues --   -0.53306  -0.52931  -0.50503  -0.48408  -0.43331
 Alpha  occ. eigenvalues --   -0.42123
 Alpha virt. eigenvalues --    0.03774   0.04746   0.05908   0.06191   0.07122
 Alpha virt. eigenvalues --    0.08108   0.09021   0.09455   0.11453   0.12290
 Alpha virt. eigenvalues --    0.12610   0.12861   0.14316   0.15601   0.16369

  Beta  occ. eigenvalues --  -20.62297 -20.57414 -20.56747 -11.42377 -11.30490
  Beta  occ. eigenvalues --  -11.29666 -11.24590 -11.23521  -1.49114  -1.38585
  Beta  occ. eigenvalues --   -1.24022  -1.07459  -1.04972  -0.92759  -0.83949
  Beta  occ. eigenvalues --   -0.78210  -0.72725  -0.70288  -0.69766  -0.61750
  Beta  occ. eigenvalues --   -0.60577  -0.59373  -0.56409  -0.52844  -0.52812
  Beta  occ. eigenvalues --   -0.50702  -0.48714  -0.47226  -0.44912  -0.42404
  Beta virt. eigenvalues --    0.03776   0.04690   0.05474   0.06177   0.06653
  Beta virt. eigenvalues --    0.07150   0.08618   0.09433   0.09490   0.12135
  Beta virt. eigenvalues --    0.12412   0.12762   0.13314   0.14673   0.15148

 Mulliken charges and spin densities:
               1          2
     1  C   -1.857337  -0.989931
     2  H    0.209292   0.082743
     3  C    2.161974   1.139981
     4  C   -0.302920  -0.156050
     5  O   -0.342647   0.102709
     6  O   -0.089877   0.001692
     7  C   -0.005075  -0.001964
     8  C   -0.621154   0.002950
     9  H    0.181636   0.000110
    10  H    0.181636   0.000110
    11  H    0.154286   0.000035
    12  H    0.154286   0.000035
    13  H    0.142881  -0.000029
    14  O   -0.240545   0.850135
    15  H    0.273565  -0.032528
 Sum of Mulliken charges =  -0.00000   1.00000

 Dipole moment (field-independent basis, Debye):
    X=              2.7000    Y=             -1.0757    Z=             -0.0000  Tot=              2.9064
 Quadrupole moment (field-independent basis, Debye-Ang):
   XX=            -45.3215   YY=            -48.0101   ZZ=            -47.5890
   XY=              4.8814   XZ=              0.0001   YZ=              0.0000

 07\PMP3-0=-419.2839256\MP4SDQ=-419.2929417\CCSD=-419.3018764\CCSD(T)=-
 Normal termination of Gaussian 16 at Thu Apr 24 05:03:53 2025.
