 Gaussian 16, Revision A.03,
 Gaussian 16:  ES64L-G16RevA.03 25-Dec-2016

 --------------------------
 # freq 6-311++g(d,p) m062x
 --------------------------

 -------------------
 Title Card Required
 -------------------
 Symbolic Z-matrix:
 Charge =  0 Multiplicity = 2

                         Standard orientation:
 ---------------------------------------------------------------------
 Center     Atomic      Atomic             Coordinates (Angstroms)
 Number     Number       Type             X           Y           Z
 ---------------------------------------------------------------------
      1          6           0        1.724019    0.137799    1.190712
      2          1           0        2.575448   -0.245800    1.702715
      3          6           0        0.751431    0.575276    0.635936
      4          6           0       -0.379222    1.162428   -0.089066
      5          8           0       -0.266940    2.198430   -0.676008
      6          8           0       -1.533184    0.497129   -0.049046
      7          6           0       -1.608616   -0.816853    0.538065
      8          6           0       -1.092690   -1.874208   -0.417591
      9          1           0       -1.066402   -0.824568    1.485705
     10          1           0       -2.669460   -0.947627    0.744779
     11          1           0       -1.638770   -1.826503   -1.360962
     12          1           0       -0.026548   -1.746313   -0.615260
     13          1           0       -1.241208   -2.864310    0.018620
     14          8           0        2.447900   -1.004309   -0.756616
     15          1           0        2.515212   -0.181531   -1.270566
 ---------------------------------------------------------------------

 SCF Done:  E(UM062X) =  -420.202793380     A.U. after   25 cycles

 The electronic state is 2-A.
 Alpha  occ. eigenvalues --  -19.68807 -19.68387 -19.63150 -10.71110 -10.61339
 Alpha  occ. eigenvalues --  -10.58800 -10.58272 -10.54042  -1.25487  -1.16932
 Alpha  occ. eigenvalues --   -1.14383  -0.90317  -0.88441  -0.77615  -0.73960
 Alpha  occ. eigenvalues --   -0.64362  -0.62198  -0.58519  -0.57170  -0.56461
 Alpha  occ. eigenvalues --   -0.53156  -0.51360  -0.49399  -0.47182  -0.46047
 Alpha  occ. eigenvalues --   -0.43767  -0.42193  -0.40250  -0.38571  -0.36883
 Alpha  occ. eigenvalues --   -0.36775
 Alpha virt. eigenvalues --   -0.02093  -0.00794   0.00466   0.00950   0.01887
 Alpha virt. eigenvalues --    0.02330   0.03542   0.04493   0.05540   0.05946
 Alpha virt. eigenvalues --    0.07185   0.07930   0.08386   0.09283   0.09693

  Beta  occ. eigenvalues --  -19.68387 -19.67227 -19.63117 -10.71121 -10.61339
  Beta  occ. eigenvalues --  -10.58797 -10.58186 -10.54043  -1.25461  -1.16866
  Beta  occ. eigenvalues --   -1.06665  -0.89935  -0.88437  -0.77571  -0.73888
  Beta  occ. eigenvalues --   -0.64318  -0.62076  -0.58455  -0.57017  -0.53513
  Beta  occ. eigenvalues --   -0.52973  -0.49615  -0.47166  -0.45905  -0.42496
  Beta  occ. eigenvalues --   -0.40680  -0.39784  -0.39167  -0.37786  -0.36701
  Beta virt. eigenvalues --   -0.10050  -0.01593  -0.00619   0.00654   0.01305
  Beta virt. eigenvalues --    0.01999   0.02504   0.03655   0.04623   0.05605
  Beta virt. eigenvalues --    0.06199   0.07235   0.08024   0.08549   0.09522

 Mulliken charges and spin densities:
               1          2
     1  C   -1.370178   0.007790
     2  H    0.223753   0.007614
     3  C    1.364723   0.061503
     4  C   -0.037754  -0.007959
     5  O   -0.255238   0.017401
     6  O   -0.029933   0.000873
     7  C   -0.384902  -0.010443
     8  C   -0.404980   0.007869
     9  H    0.160564   0.002234
    10  H    0.209196  -0.000773
    11  H    0.181347  -0.000497
    12  H    0.181500  -0.001974
    13  H    0.156839   0.000290
    14  O   -0.242112   0.933591
    15  H    0.247174  -0.017517
 Sum of Mulliken charges =  -0.00000   1.00000

 Dipole moment (field-independent basis, Debye):
    X=              0.7739    Y=             -2.8394    Z=              1.7667  Tot=              3.4325
 Quadrupole moment (field-independent basis, Debye-Ang):
   XX=            -43.2973   YY=            -55.6678   ZZ=            -44.1442
   XY=              5.9486   XZ=             -0.7869   YZ=              0.7989

  Exact polarizability:  77.975  -3.151  72.661   3.756  -4.290  60.967
 Approx polarizability:  88.712  -8.026  83.964   8.824 -11.926  73.456

 ******    1 imaginary frequencies (negative Signs) ******

                      1                      2                      3
                      A                      A                      A
 Frequencies --    -22.0346                56.7690                81.3782
 Red. masses --      6.5154                 9.6448                 4.3723
 Frc consts  --      0.0019                 0.0183                 0.0171
 IR Inten    --      6.0327                 2.6935                 0.7307

                      4                      5                      6
                      A                      A                      A
 Frequencies --    123.3860               172.9327               216.4732
 Red. masses --      3.3540                 2.4973                 9.9822
 Frc consts  --      0.0301                 0.0440                 0.2756
 IR Inten    --      0.5604                11.4157                 0.0850

                      7                      8                      9
                      A                      A                      A
 Frequencies --    238.4175               251.3280               301.9689
 Red. masses --      1.2413                 1.3919                 2.3634
 Frc consts  --      0.0416                 0.0518                 0.1270
 IR Inten    --     12.7371                55.8458                28.0558

                     10                     11                     12
                      A                      A                      A
 Frequencies --    355.2545               415.6339               509.7196
 Red. masses --      2.6853                 3.7468                 1.0560
 Frc consts  --      0.1997                 0.3814                 0.1617
 IR Inten    --      4.0996                 2.1039               134.3596

                     13                     14                     15
                      A                      A                      A
 Frequencies --    557.3032               634.0061               742.9183
 Red. masses --      4.9803                 5.7252                 1.3092
 Frc consts  --      0.9113                 1.3559                 0.4257
 IR Inten    --     18.8751                 2.3647                35.8557

                     16                     17                     18
                      A                      A                      A
 Frequencies --    758.2068               768.9097               778.9120
 Red. masses --      5.3397                 6.7163                 1.2783
 Frc consts  --      1.8086                 2.3395                 0.4570
 IR Inten    --      1.5174                 8.2127                64.7677

                     19                     20                     21
                      A                      A                      A
 Frequencies --    817.2439               949.7948              1106.9240
 Red. masses --      1.1673                 2.2485                 3.6132
 Frc consts  --      0.4593                 1.1951                 2.6084
 IR Inten    --      4.7341                 9.9080                53.7887

                     22                     23                     24
                      A                      A                      A
 Frequencies --   1132.3109              1183.6244              1264.0700
 Red. masses --      2.5153                 1.8679                 2.8447
 Frc consts  --      1.9001                 1.5418                 2.6781
 IR Inten    --     47.1011                52.1956               361.6197

                     25                     26                     27
                      A                      A                      A
 Frequencies --   1347.1675              1408.1069              1433.5068
 Red. masses --      1.2666                 1.2838                 1.3565
 Frc consts  --      1.3544                 1.4997                 1.6424
 IR Inten    --    121.4067                26.7684                18.3402

                     28                     29                     30
                      A                      A                      A
 Frequencies --   1495.8871              1508.1547              1527.9549
 Red. masses --      1.0425                 1.0472                 1.0998
 Frc consts  --      1.3744                 1.4034                 1.5128
 IR Inten    --      3.6321                 3.6786                16.8653

                     31                     32                     33
                      A                      A                      A
 Frequencies --   1855.8168              2230.2035              3068.7711
 Red. masses --     12.9584                 5.8195                 1.0355
 Frc consts  --     26.2950                17.0539                 5.7456
 IR Inten    --    483.9071                52.7091                 8.5447

                     34                     35                     36
                      A                      A                      A
 Frequencies --   3098.1319              3143.8550              3148.6997
 Red. masses --      1.0636                 1.1042                 1.1008
 Frc consts  --      6.0147                 6.4299                 6.4299
 IR Inten    --     16.8008                 2.2370                12.5910

                     37                     38                     39
                      A                      A                      A
 Frequencies --   3166.1253              3488.6062              3784.6793
 Red. masses --      1.1056                 1.1663                 1.0673
 Frc consts  --      6.5299                 8.3633                 9.0070
 IR Inten    --     15.8583                69.0692                32.2123

 - Thermochemistry -
 -------------------
 Temperature   298.150 Kelvin.  Pressure   1.00000 Atm.
 Atom     1 has atomic number  6 and mass  12.00000

 Molecular mass:   115.03952 amu.
 Principal axes and moments of inertia in atomic units:
                           1         2         3
     Eigenvalues --   843.257331087.548691548.01320
           X            0.99127   0.13185  -0.00043
           Y           -0.13183   0.99122   0.01013
           Z            0.00177  -0.00998   0.99995
 This molecule is an asymmetric top.
 Rotational symmetry number  1.
 Warning -- assumption of classical behavior for rotation
           may cause significant error
 Rotational temperatures (Kelvin)      0.10271     0.07964     0.05595
 Rotational constants (GHZ):           2.14020     1.65946     1.16584
    1 imaginary frequencies ignored.
 Zero-point vibrational energy     293821.7 (Joules/Mol)
                                   70.22507 (Kcal/Mol)
 Warning -- explicit consideration of  12 degrees of freedom as
           vibrations may cause significant error
 Vibrational temperatures:     81.68   117.09   177.52   248.81   311.46
          (Kelvin)            343.03   361.60   434.47   511.13   598.00
                              733.37   801.84   912.19  1068.89  1090.89
                             1106.29  1120.68  1175.83  1366.54  1592.62
                             1629.14  1702.97  1818.71  1938.27  2025.95
                             2062.50  2152.25  2169.90  2198.39  2670.11
                             3208.77  4415.28  4457.52  4523.31  4530.28
                             4555.35  5019.33  5445.31

 Zero-point correction=                           0.111911 (Hartree/Particle)
 Thermal correction to Energy=                    0.121359
 Thermal correction to Enthalpy=                  0.122303
 Thermal correction to Gibbs Free Energy=         0.076586
 Sum of electronic and zero-point Energies=           -419.3512417
 Sum of electronic and thermal Energies=              -420.081434
 Sum of electronic and thermal Enthalpies=            -420.080490
 Sum of electronic and thermal Free Energies=         -420.126208

                     E (Thermal)             CV                S
                      KCal/Mol        Cal/Mol-Kelvin    Cal/Mol-Kelvin
 Total                   76.154             32.441             96.221
 Electronic               0.000              0.000              1.377
 Translational            0.889              2.981             40.136
 Rotational               0.889              2.981             28.742
 Vibrational             74.377             26.479             25.966
 Vibration     1          0.596              1.975              4.566
 Vibration     2          0.600              1.962              3.857
 Vibration     3          0.610              1.930              3.047
 Vibration     4          0.626              1.876              2.403
 Vibration     5          0.645              1.816              1.988
 Vibration     6          0.656              1.782              1.815
 Vibration     7          0.663              1.761              1.721
 Vibration     8          0.694              1.670              1.406
 Vibration     9          0.731              1.564              1.143
 Vibration    10          0.779              1.436              0.907
 Vibration    11          0.865              1.228              0.634
 Vibration    12          0.913              1.124              0.529

 Normal termination of Gaussian 16 at Sat Mar 29 00:42:26 2025.
