 Gaussian 16, Revision A.03,
 Gaussian 16:  ES64L-G16RevA.03 25-Dec-2016

 --------------------------
 # ccsd(t)/6-311++g(d,p) sp
 --------------------------

 -------------------
 Title Card Required
 -------------------
 Symbolic Z-matrix:
 Charge =  0 Multiplicity = 2

                         Standard orientation:
 ---------------------------------------------------------------------
 Center     Atomic      Atomic             Coordinates (Angstroms)
 Number     Number       Type             X           Y           Z
 ---------------------------------------------------------------------
      1          6           0        1.730723    0.122282    1.174659
      2          1           0        2.582061   -0.265357    1.683535
      3          6           0        0.754724    0.569218    0.632763
      4          6           0       -0.376764    1.163272   -0.084770
      5          8           0       -0.263326    2.201879   -0.666937
      6          8           0       -1.532334    0.500787   -0.044506
      7          6           0       -1.609456   -0.815412    0.537496
      8          6           0       -1.097000   -1.870278   -0.422796
      9          1           0       -1.065913   -0.827815    1.484353
     10          1           0       -2.670253   -0.944837    0.745274
     11          1           0       -1.644394   -1.818082   -1.365172
     12          1           0       -0.030879   -1.743848   -0.621440
     13          1           0       -1.246974   -2.861626    0.010086
     14          8           0        2.439862   -0.999110   -0.749747
     15          1           0        2.509375   -0.181380   -1.271224
 ---------------------------------------------------------------------

 SCF Done:  E(UHF) =  -417.983518656     A.U. after   39 cycles
 E2 =    -0.1262296634D+01 EUMP2 =    -0.41924581528989D+03
 CCSD(T)= -0.41935081692D+03

 The electronic state is 2-A.
 Alpha  occ. eigenvalues --  -20.64160 -20.61261 -20.56100 -11.41633 -11.30578
 Alpha  occ. eigenvalues --  -11.27533 -11.27148 -11.22984  -1.47954  -1.39639
 Alpha  occ. eigenvalues --   -1.38761  -1.08395  -1.04989  -0.91682  -0.87451
 Alpha  occ. eigenvalues --   -0.75833  -0.73394  -0.69913  -0.68800  -0.67501
 Alpha  occ. eigenvalues --   -0.66393  -0.63454  -0.58664  -0.57012  -0.55961
 Alpha  occ. eigenvalues --   -0.54331  -0.51046  -0.48722  -0.46962  -0.43409
 Alpha  occ. eigenvalues --   -0.42984
 Alpha virt. eigenvalues --    0.03486   0.04548   0.05301   0.06372   0.07121
 Alpha virt. eigenvalues --    0.08158   0.09272   0.10405   0.10735   0.11692
 Alpha virt. eigenvalues --    0.13223   0.13833   0.14333   0.15500   0.15917

  Beta  occ. eigenvalues --  -20.61308 -20.60070 -20.55654 -11.41900 -11.30571
  Beta  occ. eigenvalues --  -11.28275 -11.26239 -11.22987  -1.47818  -1.38103
  Beta  occ. eigenvalues --   -1.24197  -1.07528  -1.04985  -0.91932  -0.87558
  Beta  occ. eigenvalues --   -0.75828  -0.73404  -0.69493  -0.66899  -0.64508
  Beta  occ. eigenvalues --   -0.63172  -0.58277  -0.55352  -0.54858  -0.51794
  Beta  occ. eigenvalues --   -0.50650  -0.48004  -0.46388  -0.43487  -0.43294
  Beta virt. eigenvalues --    0.03435   0.04514   0.04730   0.06360   0.07001
  Beta virt. eigenvalues --    0.07232   0.08327   0.09549   0.10747   0.11769
  Beta virt. eigenvalues --    0.11996   0.13601   0.14032   0.14407   0.15308

 Mulliken charges and spin densities:
               1          2
     1  C   -1.819876  -0.377820
     2  H    0.244374   0.039704
     3  C    1.809669   0.404742
     4  C    0.103551  -0.107943
     5  O   -0.347561   0.096070
     6  O   -0.138358  -0.001732
     7  C   -0.251642  -0.004565
     8  C   -0.434902   0.004357
     9  H    0.137145   0.000206
    10  H    0.184400  -0.000738
    11  H    0.165904  -0.000398
    12  H    0.177507  -0.003624
    13  H    0.126162   0.000485
    14  O   -0.197698   0.985359
    15  H    0.241326  -0.034103
 Sum of Mulliken charges =  -0.00000   1.00000

 Dipole moment (field-independent basis, Debye):
    X=              1.1844    Y=             -3.3408    Z=              1.7234  Tot=              3.9413
 Quadrupole moment (field-independent basis, Debye-Ang):
   XX=            -42.6032   YY=            -56.7747   ZZ=            -44.0310
   XY=              5.7411   XZ=             -1.3433   YZ=              1.0883

 439\PMP3-0=-419.2778287\MP4SDQ=-419.2974835\CCSD=-419.297885\CCSD(T)=-
 Normal termination of Gaussian 16 at Sat May 10 11:40:36 2025.
