 Gaussian 16, Revision A.03,
 Gaussian 16:  ES64L-G16RevA.03 25-Dec-2016

 --------------------------
 # ccsd(t)/6-311++g(d,p) sp
 --------------------------

 -------------------
 Title Card Required
 -------------------
 Symbolic Z-matrix:
 Charge =  0 Multiplicity = 2

                         Standard orientation:
 ---------------------------------------------------------------------
 Center     Atomic      Atomic             Coordinates (Angstroms)
 Number     Number       Type             X           Y           Z
 ---------------------------------------------------------------------
      1          6           0        1.750646    0.075407    1.123889
      2          1           0        2.597766   -0.318353    1.634883
      3          6           0        0.763668    0.552821    0.625983
      4          6           0       -0.368957    1.165842   -0.072190
      5          8           0       -0.250791    2.210980   -0.641859
      6          8           0       -1.529349    0.511920   -0.032065
      7          6           0       -1.612616   -0.810181    0.535807
      8          6           0       -1.110475   -1.858354   -0.437221
      9          1           0       -1.065650   -0.836065    1.480517
     10          1           0       -2.673420   -0.934889    0.746396
     11          1           0       -1.661394   -1.793287   -1.376746
     12          1           0       -0.044349   -1.736585   -0.638597
     13          1           0       -1.265191   -2.852988   -0.013613
     14          8           0        2.415714   -0.985148   -0.728393
     15          1           0        2.494065   -0.183065   -1.271911
 ---------------------------------------------------------------------

 SCF Done:  E(UHF) =  -417.980238729     A.U. after   34 cycles
 E2 =    -0.1261180132D+01 EUMP2 =    -0.41924141886118D+03
 CCSD(T)= -0.41934935182D+03

 The electronic state is 2-A.
 Alpha  occ. eigenvalues --  -20.64038 -20.61204 -20.56150 -11.41516 -11.30571
 Alpha  occ. eigenvalues --  -11.27534 -11.27150 -11.22968  -1.47935  -1.39630
 Alpha  occ. eigenvalues --   -1.38815  -1.08526  -1.04970  -0.91632  -0.87426
 Alpha  occ. eigenvalues --   -0.75886  -0.73426  -0.69951  -0.68691  -0.67556
 Alpha  occ. eigenvalues --   -0.66265  -0.63470  -0.58708  -0.56958  -0.56013
 Alpha  occ. eigenvalues --   -0.54295  -0.51044  -0.48809  -0.47033  -0.43424
 Alpha  occ. eigenvalues --   -0.42907
 Alpha virt. eigenvalues --    0.03489   0.04546   0.05280   0.06369   0.07132
 Alpha virt. eigenvalues --    0.08164   0.09533   0.10532   0.10750   0.11697
 Alpha virt. eigenvalues --    0.13252   0.13819   0.14378   0.15373   0.15924

  Beta  occ. eigenvalues --  -20.61262 -20.59986 -20.55588 -11.41851 -11.30562
  Beta  occ. eigenvalues --  -11.28435 -11.26049 -11.22972  -1.47761  -1.37988
  Beta  occ. eigenvalues --   -1.24494  -1.07431  -1.04964  -0.91932  -0.87542
  Beta  occ. eigenvalues --   -0.75844  -0.73399  -0.69431  -0.66858  -0.64567
  Beta  occ. eigenvalues --   -0.63137  -0.58220  -0.55247  -0.54846  -0.51809
  Beta  occ. eigenvalues --   -0.50617  -0.47906  -0.46326  -0.43514  -0.43315
  Beta virt. eigenvalues --    0.03406   0.04476   0.04670   0.06372   0.06875
  Beta virt. eigenvalues --    0.07170   0.08364   0.09737   0.10753   0.11784
  Beta virt. eigenvalues --    0.12205   0.13749   0.14070   0.14465   0.15150

 Mulliken charges and spin densities:
               1          2
     1  C   -1.457615  -0.492697
     2  H    0.254076   0.047863
     3  C    1.493489   0.529609
     4  C    0.043404  -0.134459
     5  O   -0.346109   0.120799
     6  O   -0.138376  -0.002018
     7  C   -0.249407  -0.004258
     8  C   -0.435987   0.003363
     9  H    0.136382   0.000150
    10  H    0.184361  -0.000840
    11  H    0.165337  -0.000498
    12  H    0.178180  -0.002351
    13  H    0.126052   0.000564
    14  O   -0.195052   0.967951
    15  H    0.241264  -0.033177
 Sum of Mulliken charges =  -0.00000   1.00000

 Dipole moment (field-independent basis, Debye):
    X=              1.1733    Y=             -3.3917    Z=              1.6552  Tot=              3.9522
 Quadrupole moment (field-independent basis, Debye-Ang):
   XX=            -42.5860   YY=            -56.7888   ZZ=            -44.0221
   XY=              5.5709   XZ=             -1.3625   YZ=              0.9999

 Normal termination of Gaussian 16 at Sat May 10 20:27:59 2025.
