 Gaussian 16, Revision A.03,
 Gaussian 16:  ES64L-G16RevA.03 25-Dec-2016

 --------------------------
 # freq 6-311++g(d,p) m062x
 --------------------------

 -------------------
 Title Card Required
 -------------------
 Symbolic Z-matrix:
 Charge =  0 Multiplicity = 2

                         Standard orientation:
 ---------------------------------------------------------------------
 Center     Atomic      Atomic             Coordinates (Angstroms)
 Number     Number       Type             X           Y           Z
 ---------------------------------------------------------------------
      1          6           0        1.837163   -0.113049    0.872087
      2          1           0        2.566625   -0.399033    1.608282
      3          6           0        0.777297    0.521007    0.638138
      4          6           0       -0.341151    1.171395   -0.030433
      5          8           0       -0.204460    2.235379   -0.568846
      6          8           0       -1.518432    0.546534    0.004046
      7          6           0       -1.624229   -0.790720    0.529828
      8          6           0       -1.155539   -1.818306   -0.480805
      9          1           0       -1.068520   -0.858586    1.468376
     10          1           0       -2.684830   -0.898795    0.750414
     11          1           0       -1.716399   -1.711657   -1.410587
     12          1           0       -0.088822   -1.713218   -0.692446
     13          1           0       -1.327161   -2.822130   -0.086470
     14          8           0        2.335545   -0.936039   -0.632664
     15          1           0        2.456637   -0.185532   -1.230747
 ---------------------------------------------------------------------

 SCF Done:  E(UM062X) =  -420.211438857     A.U. after   19 cycles

 The electronic state is 2-A.
 Alpha  occ. eigenvalues --  -19.68569 -19.65657 -19.63748 -10.71361 -10.63771
 Alpha  occ. eigenvalues --  -10.61634 -10.61318 -10.54133  -1.25822  -1.17405
 Alpha  occ. eigenvalues --   -1.11890  -0.92210  -0.88643  -0.78519  -0.74925
 Alpha  occ. eigenvalues --   -0.65023  -0.62522  -0.59056  -0.58028  -0.55162
 Alpha  occ. eigenvalues --   -0.53534  -0.50602  -0.49023  -0.47489  -0.46041
 Alpha  occ. eigenvalues --   -0.43079  -0.41426  -0.40271  -0.39026  -0.37143
 Alpha  occ. eigenvalues --   -0.33107
 Alpha virt. eigenvalues --   -0.00910  -0.00336   0.00498   0.00658   0.01638
 Alpha virt. eigenvalues --    0.02225   0.03249   0.04189   0.05373   0.05914
 Alpha virt. eigenvalues --    0.07080   0.07887   0.08180   0.08866   0.09679

  Beta  occ. eigenvalues --  -19.68572 -19.64959 -19.63476 -10.71436 -10.63939
  Beta  occ. eigenvalues --  -10.61630 -10.60800 -10.54132  -1.25610  -1.16875
  Beta  occ. eigenvalues --   -1.09384  -0.90038  -0.88625  -0.78170  -0.74583
  Beta  occ. eigenvalues --   -0.64748  -0.62182  -0.58654  -0.57017  -0.53754
  Beta  occ. eigenvalues --   -0.53177  -0.49368  -0.47217  -0.45947  -0.44400
  Beta  occ. eigenvalues --   -0.42691  -0.40102  -0.38998  -0.37996  -0.36098
  Beta virt. eigenvalues --   -0.12029  -0.00791   0.00475   0.00631   0.01438
  Beta virt. eigenvalues --    0.02185   0.02733   0.03645   0.04297   0.05336
  Beta virt. eigenvalues --    0.06223   0.06908   0.08079   0.08287   0.09118

 Mulliken charges and spin densities:
               1          2
     1  C   -0.310305  -0.234187
     2  H    0.245536   0.023024
     3  C    0.534587   0.742754
     4  C   -0.226919  -0.040904
     5  O   -0.247096   0.144019
     6  O   -0.028449   0.005496
     7  C   -0.381773   0.001885
     8  C   -0.398079  -0.003109
     9  H    0.156905   0.003091
    10  H    0.209553  -0.000971
    11  H    0.179179   0.000505
    12  H    0.181220   0.002346
    13  H    0.160033  -0.000353
    14  O   -0.321754   0.362255
    15  H    0.247363  -0.005852
 Sum of Mulliken charges =  -0.00000   1.00000

 Dipole moment (field-independent basis, Debye):
    X=              0.1336    Y=             -2.4523    Z=              2.3120  Tot=              3.3730
 Quadrupole moment (field-independent basis, Debye-Ang):
   XX=            -45.5194   YY=            -56.3048   ZZ=            -43.8918
   XY=              6.9346   XZ=              0.8262   YZ=              0.2442

  Exact polarizability:  81.945  -7.486  76.751  -2.107  -0.680  62.362
 Approx polarizability:  91.132 -13.358  91.755  -2.105  -3.874  76.172

 ******    1 imaginary frequencies (negative Signs) ******

                      1                      2                      3
                      A                      A                      A
 Frequencies --   -630.8695                85.4693               113.1393
 Red. masses --     11.4618                 4.9812                 4.9947
 Frc consts  --      2.6877                 0.0214                 0.0377
 IR Inten    --      3.4255                 0.2652                11.7884

                      4                      5                      6
                      A                      A                      A
 Frequencies --    132.7135               152.3688               192.5717
 Red. masses --      4.6898                 4.1587                 1.1183
 Frc consts  --      0.0487                 0.0569                 0.0244
 IR Inten    --      0.9963                 8.8229                78.3010

                      7                      8                      9
                      A                      A                      A
 Frequencies --    243.8370               274.0671               349.5438
 Red. masses --      1.2167                 2.4434                 2.9998
 Frc consts  --      0.0426                 0.1081                 0.2159
 IR Inten    --     16.8239                 8.8222                 0.7149

                     10                     11                     12
                      A                      A                      A
 Frequencies --    388.1388               424.7556               560.7989
 Red. masses --      4.9769                 3.8543                 5.1214
 Frc consts  --      0.4418                 0.4097                 0.9490
 IR Inten    --      8.4695                 4.3095                22.3564

                     13                     14                     15
                      A                      A                      A
 Frequencies --    633.7895               717.8688               748.0417
 Red. masses --      6.1699                11.7381                 1.3571
 Frc consts  --      1.4602                 3.5640                 0.4474
 IR Inten    --      0.4519                17.6010                31.6627

                     16                     17                     18
                      A                      A                      A
 Frequencies --    760.6509               819.0042               947.6783
 Red. masses --      4.3478                 1.1569                 2.1739
 Frc consts  --      1.4822                 0.4572                 1.1503
 IR Inten    --      3.5079                 3.9140                 6.5621

                     19                     20                     21
                      A                      A                      A
 Frequencies --    967.3903              1051.0075              1106.7976
 Red. masses --      1.1554                 1.1283                 3.6048
 Frc consts  --      0.6371                 0.7343                 2.6018
 IR Inten    --     60.9342                28.4534                50.4106

                     22                     23                     24
                      A                      A                      A
 Frequencies --   1131.6493              1182.3090              1256.3352
 Red. masses --      2.4097                 1.9276                 2.9250
 Frc consts  --      1.8182                 1.5876                 2.7202
 IR Inten    --     37.9342                63.5870               355.9960

                     25                     26                     27
                      A                      A                      A
 Frequencies --   1346.1358              1408.2139              1434.3243
 Red. masses --      1.2423                 1.2762                 1.3412
 Frc consts  --      1.3263                 1.4911                 1.6257
 IR Inten    --    109.7095                19.8217                17.2467

                     28                     29                     30
                      A                      A                      A
 Frequencies --   1497.0713              1508.6978              1528.1073
 Red. masses --      1.0431                 1.0481                 1.0973
 Frc consts  --      1.3774                 1.4055                 1.5096
 IR Inten    --      3.5231                 3.9085                15.2902

                     31                     32                     33
                      A                      A                      A
 Frequencies --   1798.6623              1898.9145              3065.2270
 Red. masses --     12.8315                 7.3747                 1.0358
 Frc consts  --     24.4583                15.6676                 5.7337
 IR Inten    --    412.3769                57.5296                 8.7169

                     34                     35                     36
                      A                      A                      A
 Frequencies --   3087.6950              3139.2384              3148.3199
 Red. masses --      1.0658                 1.1034                 1.1004
 Frc consts  --      5.9869                 6.4069                 6.4264
 IR Inten    --     18.8974                 1.7655                12.7304

                     37                     38                     39
                      A                      A                      A
 Frequencies --   3163.1441              3334.6416              3843.1942
 Red. masses --      1.1040                 1.1196                 1.0679
 Frc consts  --      6.5080                 7.3349                 9.2932
 IR Inten    --     16.6838                25.8798                69.0889

 - Thermochemistry -
 -------------------
 Temperature   298.150 Kelvin.  Pressure   1.00000 Atm.
 Atom     1 has atomic number  6 and mass  12.00000

 Molecular mass:   115.03952 amu.
 Principal axes and moments of inertia in atomic units:
                           1         2         3
     Eigenvalues --   788.559161034.570891529.59970
           X            0.99179   0.12785   0.00095
           Y           -0.12785   0.99174   0.01045
           Z            0.00040  -0.01048   0.99994
 This molecule is an asymmetric top.
 Rotational symmetry number  1.
 Warning -- assumption of classical behavior for rotation
           may cause significant error
 Rotational temperatures (Kelvin)      0.10984     0.08372     0.05663
 Rotational constants (GHZ):           2.28866     1.74443     1.17988
    1 imaginary frequencies ignored.
 Zero-point vibrational energy     295725.9 (Joules/Mol)
                                   70.68019 (Kcal/Mol)
 Warning -- explicit consideration of  11 degrees of freedom as
           vibrations may cause significant error
 Vibrational temperatures:    122.97   162.78   190.95   219.22   277.07
          (Kelvin)            350.83   394.32   502.92   558.45   611.13
                              806.86   911.88  1032.85  1076.27  1094.41
                             1178.36  1363.50  1391.86  1512.17  1592.43
                             1628.19  1701.08  1807.59  1936.79  2026.11
                             2063.67  2153.95  2170.68  2198.61  2587.87
                             2732.11  4410.18  4442.50  4516.66  4529.73
                             4551.06  4797.81  5529.50

 Zero-point correction=                           0.112636 (Hartree/Particle)
 Thermal correction to Energy=                    0.121668
 Thermal correction to Enthalpy=                  0.122612
 Thermal correction to Gibbs Free Energy=         0.078079
 Sum of electronic and zero-point Energies=           -419.3590913
 Sum of electronic and thermal Energies=              -420.089771
 Sum of electronic and thermal Enthalpies=            -420.088827
 Sum of electronic and thermal Free Energies=         -420.133360

                     E (Thermal)             CV                S
                      KCal/Mol        Cal/Mol-Kelvin    Cal/Mol-Kelvin
 Total                   76.348             31.140             93.727
 Electronic               0.000              0.000              1.377
 Translational            0.889              2.981             40.136
 Rotational               0.889              2.981             28.614
 Vibrational             74.570             25.178             23.600
 Vibration     1          0.601              1.959              3.761
 Vibration     2          0.607              1.939              3.214
 Vibration     3          0.613              1.921              2.906
 Vibration     4          0.619              1.900              2.642
 Vibration     5          0.635              1.850              2.203
 Vibration     6          0.659              1.773              1.775
 Vibration     7          0.676              1.721              1.570
 Vibration     8          0.727              1.576              1.168
 Vibration     9          0.756              1.496              1.007
 Vibration    10          0.787              1.416              0.876
 Vibration    11          0.916              1.116              0.522

 1\1\GINC-AJ\Freq\UM062X\6-311++G(d,p)\C5H7O3(2)\AAYUSH\29-Mar-2025\0\\
 # freq 6-311++g(d,p) m062x\\Title Card Required\\0,2\C,1.817711,-0.155
 292,0.888749\H,2.545693,-0.422939,1.633257\C,0.752743,0.464195,0.63944
 \C,-0.368379,1.093101,-0.045016\O,-0.239516,2.150544,-0.598049\O,-1.53
 9303,0.456533,-0.008297\C,-1.634366,-0.873996,0.536262\C,-1.149025,-1.
 911161,-0.456571\H,-1.083593,-0.922444,1.478914\H,-2.695087,-0.989944,
 0.752225\H,-1.705403,-1.823862,-1.391052\H,-0.082211,-1.798005,-0.6635
 11\H,-1.312581,-2.910905,-0.048677\O,2.333568,-0.994742,-0.600944\H,2.

 Normal termination of Gaussian 16 at Sat Mar 29 02:58:34 2025.
