 Gaussian 16, Revision A.03,
 Gaussian 16:  ES64L-G16RevA.03 25-Dec-2016

 --------------------------
 # ccsd(t)/6-311++g(d,p) sp
 --------------------------

 -------------------
 Title Card Required
 -------------------
 Symbolic Z-matrix:
 Charge =  0 Multiplicity = 2

                         Standard orientation:
 ---------------------------------------------------------------------
 Center     Atomic      Atomic             Coordinates (Angstroms)
 Number     Number       Type             X           Y           Z
 ---------------------------------------------------------------------
      1          6           0        1.804268   -0.045047    0.971421
      2          1           0        2.596851   -0.390417    1.599579
      3          6           0        0.776989    0.526563    0.627517
      4          6           0       -0.350987    1.170979   -0.043727
      5          8           0       -0.219089    2.227903   -0.591175
      6          8           0       -1.521615    0.536270   -0.006928
      7          6           0       -1.620719   -0.796885    0.532164
      8          6           0       -1.141747   -1.830938   -0.467020
      9          1           0       -1.067424   -0.851437    1.472465
     10          1           0       -2.681504   -0.909425    0.749428
     11          1           0       -1.699932   -1.737547   -1.399842
     12          1           0       -0.075276   -1.720537   -0.675275
     13          1           0       -1.308206   -2.831874   -0.063181
     14          8           0        2.360763   -0.954030   -0.670609
     15          1           0        2.468197   -0.187940   -1.255603
 ---------------------------------------------------------------------

 SCF Done:  E(UHF) =  -417.970438409     A.U. after   34 cycles
 E2 =    -0.1255717995D+01 EUMP2 =    -0.41922615640402D+03
 CCSD(T)= -0.41934811641D+03

 The electronic state is 2-A.
 Alpha  occ. eigenvalues --  -20.63006 -20.61104 -20.56755 -11.41214 -11.30652
 Alpha  occ. eigenvalues --  -11.28474 -11.27920 -11.22969  -1.48085  -1.39250
 Alpha  occ. eigenvalues --   -1.38679  -1.09392  -1.05001  -0.91616  -0.87569
 Alpha  occ. eigenvalues --   -0.76081  -0.73318  -0.70322  -0.67989  -0.67472
 Alpha  occ. eigenvalues --   -0.64923  -0.63658  -0.58990  -0.56442  -0.56102
 Alpha  occ. eigenvalues --   -0.54095  -0.51161  -0.49471  -0.47486  -0.43789
 Alpha  occ. eigenvalues --   -0.43204
 Alpha virt. eigenvalues --    0.03564   0.04584   0.05294   0.06378   0.07142
 Alpha virt. eigenvalues --    0.08163   0.09948   0.10740   0.11459   0.11701
 Alpha virt. eigenvalues --    0.13371   0.13767   0.14488   0.15212   0.15850

  Beta  occ. eigenvalues --  -20.61208 -20.59393 -20.55733 -11.41815 -11.30634
  Beta  occ. eigenvalues --  -11.29983 -11.26080 -11.22973  -1.47730  -1.37739
  Beta  occ. eigenvalues --   -1.25978  -1.07022  -1.04983  -0.92077  -0.87655
  Beta  occ. eigenvalues --   -0.75848  -0.73236  -0.69411  -0.66908  -0.64628
  Beta  occ. eigenvalues --   -0.63123  -0.58060  -0.55010  -0.54789  -0.51728
  Beta  occ. eigenvalues --   -0.50510  -0.47870  -0.46569  -0.43891  -0.43681
  Beta virt. eigenvalues --    0.03344   0.03861   0.04590   0.06065   0.06433
  Beta virt. eigenvalues --    0.07167   0.08424   0.10257   0.10767   0.11884
  Beta virt. eigenvalues --    0.12579   0.13861   0.14363   0.14455   0.15651

 Mulliken charges and spin densities:
               1          2
     1  C   -0.650942  -0.940441
     2  H    0.278202   0.070698
     3  C    0.791548   1.071028
     4  C   -0.098566  -0.232270
     5  O   -0.329371   0.220912
     6  O   -0.136004  -0.002812
     7  C   -0.243780  -0.002222
     8  C   -0.434626   0.000219
     9  H    0.134841  -0.000781
    10  H    0.183981  -0.001257
    11  H    0.163994  -0.000531
    12  H    0.180166   0.000342
    13  H    0.127247   0.000937
    14  O   -0.207183   0.844559
    15  H    0.240492  -0.028382
 Sum of Mulliken charges =  -0.00000   1.00000

 Dipole moment (field-independent basis, Debye):
    X=              0.8869    Y=             -3.2103    Z=              1.7813  Tot=              3.7770
 Quadrupole moment (field-independent basis, Debye-Ang):
   XX=            -43.5710   YY=            -56.8151   ZZ=            -43.8075
   XY=              5.8479   XZ=             -0.8849   YZ=              0.7781

 57\PMP3-0=-419.2755606\MP4SDQ=-419.2848924\CCSD=-419.2930476\CCSD(T)=-
 Normal termination of Gaussian 16 at Sat May 10 22:10:32 2025.
