 Gaussian 16, Revision A.03,
 Gaussian 16:  ES64L-G16RevA.03 25-Dec-2016

 --------------------------
 # ccsd(t)/6-311++g(d,p) sp
 --------------------------

 -------------------
 Title Card Required
 -------------------
 Symbolic Z-matrix:
 Charge =  0 Multiplicity = 2

                         Standard orientation:
 ---------------------------------------------------------------------
 Center     Atomic      Atomic             Coordinates (Angstroms)
 Number     Number       Type             X           Y           Z
 ---------------------------------------------------------------------
      1          6           0        1.817984   -0.072954    0.931716
      2          1           0        2.586730   -0.395248    1.604290
      3          6           0        0.777230    0.524032    0.631138
      4          6           0       -0.347177    1.171332   -0.038036
      5          8           0       -0.213042    2.231080   -0.581657
      6          8           0       -1.520241    0.540583   -0.002177
      7          6           0       -1.622151   -0.794432    0.531289
      8          6           0       -1.147540   -1.825659   -0.472828
      9          1           0       -1.067765   -0.854543    1.470842
     10          1           0       -2.682838   -0.904944    0.750076
     11          1           0       -1.707017   -1.726669   -1.404294
     12          1           0       -0.080935   -1.717428   -0.682604
     13          1           0       -1.316165   -2.827816   -0.072969
     14          8           0        2.350128   -0.946761   -0.656059
     15          1           0        2.463153   -0.186481   -1.245872
 ---------------------------------------------------------------------

 SCF Done:  E(UHF) =  -417.970104842     A.U. after   29 cycles
 E2 =    -0.1255554337D+01 EUMP2 =    -0.41922565917820D+03
 CCSD(T)= -0.41935082900D+03

 The electronic state is 2-A.
 Alpha  occ. eigenvalues --  -20.62432 -20.61114 -20.57078 -11.41169 -11.30706
 Alpha  occ. eigenvalues --  -11.29029 -11.28606 -11.22986  -1.48193  -1.39438
 Alpha  occ. eigenvalues --   -1.38015  -1.09786  -1.05034  -0.91708  -0.87721
 Alpha  occ. eigenvalues --   -0.76149  -0.73237  -0.70514  -0.68034  -0.67120
 Alpha  occ. eigenvalues --   -0.64081  -0.63750  -0.59123  -0.56557  -0.55735
 Alpha  occ. eigenvalues --   -0.53921  -0.51241  -0.49742  -0.47666  -0.44006
 Alpha  occ. eigenvalues --   -0.43425
 Alpha virt. eigenvalues --    0.03569   0.04597   0.05328   0.06386   0.07135
 Alpha virt. eigenvalues --    0.08155   0.09978   0.10734   0.11530   0.11825
 Alpha virt. eigenvalues --    0.13351   0.13788   0.14510   0.15286   0.15802

  Beta  occ. eigenvalues --  -20.61233 -20.59096 -20.55915 -11.41845 -11.30874
  Beta  occ. eigenvalues --  -11.30685 -11.26346 -11.22989  -1.47768  -1.37719
  Beta  occ. eigenvalues --   -1.26644  -1.06836  -1.05011  -0.92203  -0.87764
  Beta  occ. eigenvalues --   -0.75848  -0.73154  -0.69474  -0.66982  -0.64600
  Beta  occ. eigenvalues --   -0.63164  -0.58043  -0.54986  -0.54771  -0.51687
  Beta  occ. eigenvalues --   -0.50491  -0.48052  -0.46931  -0.44101  -0.43741
  Beta virt. eigenvalues --    0.03210   0.03636   0.04595   0.05932   0.06444
  Beta virt. eigenvalues --    0.07162   0.08429   0.10346   0.10753   0.11908
  Beta virt. eigenvalues --    0.12594   0.13784   0.14378   0.14410   0.15829

 Mulliken charges and spin densities:
               1          2
     1  C   -0.588740  -1.021857
     2  H    0.271857   0.074418
     3  C    0.770960   1.212101
     4  C   -0.126745  -0.258775
     5  O   -0.322401   0.252257
     6  O   -0.136400  -0.003026
     7  C   -0.242853  -0.001162
     8  C   -0.432213  -0.000375
     9  H    0.134278  -0.001402
    10  H    0.184023  -0.001320
    11  H    0.163828  -0.000431
    12  H    0.180533   0.000360
    13  H    0.127734   0.001014
    14  O   -0.225096   0.774147
    15  H    0.241233  -0.025950
 Sum of Mulliken charges =  -0.00000   1.00000

 Dipole moment (field-independent basis, Debye):
    X=              0.7315    Y=             -3.0556    Z=              1.9118  Tot=              3.6779
 Quadrupole moment (field-independent basis, Debye-Ang):
   XX=            -44.1741   YY=            -56.8416   ZZ=            -43.7479
   XY=              6.1758   XZ=             -0.5658   YZ=              0.6802

 Normal termination of Gaussian 16 at Sat May 10 03:34:06 2025.
