 Gaussian 16, Revision A.03,
 Gaussian 16:  ES64L-G16RevA.03 25-Dec-2016

 --------------------------
 # freq 6-311++g(d,p) m062x
 --------------------------

 -------------------
 Title Card Required
 -------------------
 Symbolic Z-matrix:
 Charge =  0 Multiplicity = 2

                         Standard orientation:
 ---------------------------------------------------------------------
 Center     Atomic      Atomic             Coordinates (Angstroms)
 Number     Number       Type             X           Y           Z
 ---------------------------------------------------------------------
      1          6           0        1.811164   -0.059120    0.951569
      2          1           0        2.592215   -0.393205    1.601855
      3          6           0        0.777204    0.525180    0.629228
      4          6           0       -0.349092    1.171202   -0.040819
      5          8           0       -0.216003    2.229524   -0.586298
      6          8           0       -1.520901    0.538485   -0.004488
      7          6           0       -1.621452   -0.795643    0.531734
      8          6           0       -1.144714   -1.828242   -0.469984
      9          1           0       -1.067589   -0.853027    1.471648
     10          1           0       -2.682185   -0.907109    0.749793
     11          1           0       -1.703587   -1.731983   -1.402100
     12          1           0       -0.078174   -1.718942   -0.679026
     13          1           0       -1.312294   -2.829798   -0.068171
     14          8           0        2.355325   -0.950386   -0.663406
     15          1           0        2.465591   -0.187193   -1.250838
 ---------------------------------------------------------------------

 SCF Done:  E(UM062X) =  -420.200112217     A.U. after   22 cycles

 The electronic state is 2-A.
 Alpha  occ. eigenvalues --  -19.68669 -19.66159 -19.63712 -10.71487 -10.62142
 Alpha  occ. eigenvalues --  -10.61616 -10.60459 -10.54092  -1.25884  -1.17428
 Alpha  occ. eigenvalues --   -1.12105  -0.91893  -0.88648  -0.78297  -0.74726
 Alpha  occ. eigenvalues --   -0.64980  -0.62723  -0.58979  -0.57829  -0.54870
 Alpha  occ. eigenvalues --   -0.53504  -0.50752  -0.49127  -0.47427  -0.46063
 Alpha  occ. eigenvalues --   -0.43028  -0.41488  -0.40484  -0.38933  -0.37354
 Alpha  occ. eigenvalues --   -0.33937
 Alpha virt. eigenvalues --   -0.01441  -0.00761   0.00552   0.01005   0.01414
 Alpha virt. eigenvalues --    0.02263   0.03332   0.04232   0.05390   0.05901
 Alpha virt. eigenvalues --    0.07106   0.07976   0.08202   0.08892   0.09761

  Beta  occ. eigenvalues --  -19.68671 -19.65033 -19.63523 -10.71543 -10.62274
  Beta  occ. eigenvalues --  -10.61613 -10.60084 -10.54092  -1.25740  -1.17062
  Beta  occ. eigenvalues --   -1.07843  -0.90359  -0.88636  -0.78062  -0.74467
  Beta  occ. eigenvalues --   -0.64793  -0.62463  -0.58698  -0.57161  -0.53394
  Beta  occ. eigenvalues --   -0.52608  -0.49539  -0.47265  -0.45934  -0.42694
  Beta  occ. eigenvalues --   -0.42461  -0.39871  -0.38693  -0.38036  -0.36437
  Beta virt. eigenvalues --   -0.12292  -0.00725   0.00129   0.00646   0.01612
  Beta virt. eigenvalues --    0.01959   0.02550   0.03575   0.04319   0.05381
  Beta virt. eigenvalues --    0.06173   0.07037   0.08104   0.08339   0.09146

 Mulliken charges and spin densities:
               1          2
     1  C   -0.384180  -0.208588
     2  H    0.257675   0.019909
     3  C    0.571171   0.517711
     4  C   -0.219427  -0.026118
     5  O   -0.247655   0.100089
     6  O   -0.026839   0.003691
     7  C   -0.379513  -0.000916
     8  C   -0.406742  -0.001834
     9  H    0.156434   0.002496
    10  H    0.209850  -0.001038
    11  H    0.179272  -0.000030
    12  H    0.187314   0.002813
    13  H    0.158679   0.000032
    14  O   -0.293693   0.604277
    15  H    0.237655  -0.012494
 Sum of Mulliken charges =  -0.00000   1.00000

 Dipole moment (field-independent basis, Debye):
    X=              0.2233    Y=             -2.5351    Z=              2.2125  Tot=              3.3721
 Quadrupole moment (field-independent basis, Debye-Ang):
   XX=            -44.8635   YY=            -56.0104   ZZ=            -43.9433
   XY=              6.5383   XZ=              0.6074   YZ=              0.2760

  Exact polarizability:  85.025  -9.928  78.656  -4.424   1.502  64.698
 Approx polarizability:  94.349 -15.657  93.208  -2.082  -3.696  76.506

 ******    1 imaginary frequencies (negative Signs) ******

                      1                      2                      3
                      A                      A                      A
 Frequencies --   -754.1737                83.4700               100.7788
 Red. masses --     10.6618                 5.1141                 5.5686
 Frc consts  --      3.5729                 0.0210                 0.0333
 IR Inten    --     57.7490                 0.3836                 7.5777

                      4                      5                      6
                      A                      A                      A
 Frequencies --    119.3676               142.2648               194.0451
 Red. masses --      6.5768                 3.5638                 1.6671
 Frc consts  --      0.0552                 0.0425                 0.0370
 IR Inten    --      5.1873                 4.0041                24.8172

                      7                      8                      9
                      A                      A                      A
 Frequencies --    232.4896               249.8540               333.3554
 Red. masses --      1.5837                 1.1701                 4.2099
 Frc consts  --      0.0504                 0.0430                 0.2756
 IR Inten    --     64.3815                 9.2248                 1.2209

                     10                     11                     12
                      A                      A                      A
 Frequencies --    359.4620               417.9193               557.8995
 Red. masses --      2.9381                 3.7355                 5.0640
 Frc consts  --      0.2237                 0.3844                 0.9287
 IR Inten    --      5.7125                 3.0409                19.2893

                     13                     14                     15
                      A                      A                      A
 Frequencies --    632.9808               732.9576               738.9924
 Red. masses --      5.9185                 1.3975                 7.0529
 Frc consts  --      1.3971                 0.4423                 2.2693
 IR Inten    --      0.8557                30.7144                27.9786

                     16                     17                     18
                      A                      A                      A
 Frequencies --    759.1802               818.4627               854.6516
 Red. masses --      4.6394                 1.1523                 1.1671
 Frc consts  --      1.5754                 0.4548                 0.5023
 IR Inten    --      2.1032                 6.3936               128.8021

                     19                     20                     21
                      A                      A                      A
 Frequencies --    904.5663               949.8167              1105.9247
 Red. masses --      1.0942                 2.2263                 3.8115
 Frc consts  --      0.5275                 1.1834                 2.7466
 IR Inten    --      4.9457                 9.1533                62.2639

                     22                     23                     24
                      A                      A                      A
 Frequencies --   1131.8403              1183.3236              1258.6710
 Red. masses --      2.3986                 1.9058                 2.9078
 Frc consts  --      1.8104                 1.5723                 2.7142
 IR Inten    --     39.3156                60.8383               375.7069

                     25                     26                     27
                      A                      A                      A
 Frequencies --   1346.9720              1408.7671              1434.6165
 Red. masses --      1.2497                 1.2793                 1.3449
 Frc consts  --      1.3359                 1.4959                 1.6309
 IR Inten    --    114.9924                22.8874                18.2103

                     28                     29                     30
                      A                      A                      A
 Frequencies --   1496.8898              1509.2097              1528.1666
 Red. masses --      1.0430                 1.0481                 1.0978
 Frc consts  --      1.3769                 1.4065                 1.5105
 IR Inten    --      3.1953                 4.4616                17.6919

                     31                     32                     33
                      A                      A                      A
 Frequencies --   1826.1723              2005.8585              3066.0963
 Red. masses --     12.9436                 6.6154                 1.0356
 Frc consts  --     25.4325                15.6822                 5.7363
 IR Inten    --    445.6976                60.5254                10.0147

                     34                     35                     36
                      A                      A                      A
 Frequencies --   3091.6488              3140.9595              3148.1411
 Red. masses --      1.0652                 1.1038                 1.1005
 Frc consts  --      5.9986                 6.4160                 6.4263
 IR Inten    --     17.7986                 1.5746                12.5700

                     37                     38                     39
                      A                      A                      A
 Frequencies --   3164.4141              3410.8078              3822.1563
 Red. masses --      1.1045                 1.1357                 1.0678
 Frc consts  --      6.5162                 7.7843                 9.1911
 IR Inten    --     16.7352                52.5078                66.4066

 - Thermochemistry -
 -------------------
 Temperature   298.150 Kelvin.  Pressure   1.00000 Atm.
 Atom     1 has atomic number  6 and mass  12.00000

 Molecular mass:   115.03952 amu.
 Principal axes and moments of inertia in atomic units:
                           1         2         3
     Eigenvalues --   799.058741044.359441532.26998
           X            0.99180   0.12780   0.00046
           Y           -0.12779   0.99175   0.01028
           Z            0.00086  -0.01025   0.99995
 This molecule is an asymmetric top.
 Rotational symmetry number  1.
 Warning -- assumption of classical behavior for rotation
           may cause significant error
 Rotational temperatures (Kelvin)      0.10839     0.08293     0.05653
 Rotational constants (GHZ):           2.25858     1.72808     1.17782
    1 imaginary frequencies ignored.
 Zero-point vibrational energy     294659.1 (Joules/Mol)
                                   70.42521 (Kcal/Mol)
 Warning -- explicit consideration of  11 degrees of freedom as
           vibrations may cause significant error
 Vibrational temperatures:    120.09   145.00   171.74   204.69   279.19
          (Kelvin)            334.50   359.48   479.62   517.19   601.29
                              802.69   910.72  1054.56  1063.25  1092.29
                             1177.59  1229.65  1301.47  1366.57  1591.18
                             1628.47  1702.54  1810.95  1937.99  2026.90
                             2064.09  2153.69  2171.42  2198.69  2627.45
                             2885.98  4411.43  4448.19  4519.14  4529.47
                             4552.89  4907.39  5499.23

 Zero-point correction=                           0.112230 (Hartree/Particle)
 Thermal correction to Energy=                    0.121477
 Thermal correction to Enthalpy=                  0.122421
 Thermal correction to Gibbs Free Energy=         0.077319
 Sum of electronic and zero-point Energies=           -419.3492084
 Sum of electronic and thermal Energies=              -420.078636
 Sum of electronic and thermal Enthalpies=            -420.077691
 Sum of electronic and thermal Free Energies=         -420.122794

                     E (Thermal)             CV                S
                      KCal/Mol        Cal/Mol-Kelvin    Cal/Mol-Kelvin
 Total                   76.228             31.647             94.926
 Electronic               0.000              0.000              1.377
 Translational            0.889              2.981             40.136
 Rotational               0.889              2.981             28.638
 Vibrational             74.450             25.685             24.775
 Vibration     1          0.600              1.961              3.808
 Vibration     2          0.604              1.948              3.439
 Vibration     3          0.609              1.933              3.111
 Vibration     4          0.616              1.911              2.773
 Vibration     5          0.635              1.848              2.189
 Vibration     6          0.653              1.791              1.860
 Vibration     7          0.663              1.763              1.732
 Vibration     8          0.715              1.609              1.244
 Vibration     9          0.734              1.556              1.124
 Vibration    10          0.781              1.431              0.899
 Vibration    11          0.913              1.122              0.528

 1\1\GINC-AJ\Freq\UM062X\6-311++G(d,p)\C5H7O3(2)\AAYUSH\29-Mar-2025\0\\
 # freq 6-311++g(d,p) m062x\\Title Card Required\\0,2\C,1.793658,-0.118
 169,0.96115\H,2.574446,-0.444029,1.615911\C,0.75781,0.458891,0.631905\
 C,-0.369673,1.094863,-0.045719\O,-0.240147,2.150094,-0.598001\O,-1.538
 501,0.456712,-0.008418\C,-1.634126,-0.87422,0.536575\C,-1.149509,-1.91
 1261,-0.456738\H,-1.082697,-0.922529,1.478429\H,-2.694929,-0.989365,0.
 752371\H,-1.706159,-1.82405,-1.391073\H,-0.082915,-1.798193,-0.663486\
 H,-1.313387,-2.910871,-0.048602\O,2.346776,-1.017715,-0.646173\H,2.455

 Normal termination of Gaussian 16 at Sat Mar 29 02:49:04 2025.
