 Gaussian 16, Revision A.03,
 Gaussian 16:  ES64L-G16RevA.03 25-Dec-2016

 --------------------------
 # ccsd(t)/6-311++g(d,p) sp
 --------------------------

 -------------------
 Title Card Required
 -------------------
 Symbolic Z-matrix:
 Charge =  0 Multiplicity = 2

                         Standard orientation:
 ---------------------------------------------------------------------
 Center     Atomic      Atomic             Coordinates (Angstroms)
 Number     Number       Type             X           Y           Z
 ---------------------------------------------------------------------
      1          6           0        1.724019    0.137799    1.190712
      2          1           0        2.575448   -0.245800    1.702715
      3          6           0        0.751431    0.575276    0.635936
      4          6           0       -0.379222    1.162428   -0.089066
      5          8           0       -0.266940    2.198430   -0.676008
      6          8           0       -1.533184    0.497129   -0.049046
      7          6           0       -1.608616   -0.816853    0.538065
      8          6           0       -1.092690   -1.874208   -0.417591
      9          1           0       -1.066402   -0.824568    1.485705
     10          1           0       -2.669460   -0.947627    0.744779
     11          1           0       -1.638770   -1.826503   -1.360962
     12          1           0       -0.026548   -1.746313   -0.615260
     13          1           0       -1.241208   -2.864310    0.018620
     14          8           0        2.447900   -1.004309   -0.756616
     15          1           0        2.515212   -0.181531   -1.270566
 ---------------------------------------------------------------------

 SCF Done:  E(UHF) =  -417.984451178     A.U. after   40 cycles
 E2 =    -0.1262560336D+01 EUMP2 =    -0.41924701151453D+03
 CCSD(T)= -0.41935124169D+03

 The electronic state is 2-A.
 Alpha  occ. eigenvalues --  -20.64188 -20.61278 -20.56091 -11.41669 -11.30582
 Alpha  occ. eigenvalues --  -11.27547 -11.27153 -11.22989  -1.47963  -1.39631
 Alpha  occ. eigenvalues --   -1.38748  -1.08362  -1.04996  -0.91698  -0.87461
 Alpha  occ. eigenvalues --   -0.75822  -0.73384  -0.69904  -0.68819  -0.67480
 Alpha  occ. eigenvalues --   -0.66420  -0.63450  -0.58650  -0.57018  -0.55950
 Alpha  occ. eigenvalues --   -0.54341  -0.51047  -0.48703  -0.46943  -0.43410
 Alpha  occ. eigenvalues --   -0.43016
 Alpha virt. eigenvalues --    0.03486   0.04548   0.05308   0.06373   0.07117
 Alpha virt. eigenvalues --    0.08156   0.09189   0.10379   0.10734   0.11691
 Alpha virt. eigenvalues --    0.13215   0.13835   0.14320   0.15532   0.15913

  Beta  occ. eigenvalues --  -20.61322 -20.60091 -20.55678 -11.41916 -11.30575
  Beta  occ. eigenvalues --  -11.28239 -11.26304 -11.22993  -1.47838  -1.38139
  Beta  occ. eigenvalues --   -1.24117  -1.07559  -1.04993  -0.91932  -0.87563
  Beta  occ. eigenvalues --   -0.75825  -0.73405  -0.69513  -0.66914  -0.64488
  Beta  occ. eigenvalues --   -0.63184  -0.58292  -0.55386  -0.54860  -0.51787
  Beta  occ. eigenvalues --   -0.50660  -0.48038  -0.46411  -0.43483  -0.43296
  Beta virt. eigenvalues --    0.03443   0.04521   0.04747   0.06355   0.07014
  Beta virt. eigenvalues --    0.07264   0.08315   0.09496   0.10746   0.11765
  Beta virt. eigenvalues --    0.11932   0.13562   0.14026   0.14388   0.15353

 Mulliken charges and spin densities:
               1          2
     1  C   -1.903351  -0.346524
     2  H    0.242783   0.037128
     3  C    1.879522   0.371058
     4  C    0.119869  -0.099860
     5  O   -0.347664   0.088837
     6  O   -0.138160  -0.001637
     7  C   -0.252524  -0.004655
     8  C   -0.434336   0.004640
     9  H    0.137362   0.000228
    10  H    0.184364  -0.000712
    11  H    0.166059  -0.000363
    12  H    0.177172  -0.004010
    13  H    0.126236   0.000466
    14  O   -0.198613   0.989833
    15  H    0.241280  -0.034427
 Sum of Mulliken charges =  -0.00000   1.00000

 Dipole moment (field-independent basis, Debye):
    X=              1.1835    Y=             -3.3179    Z=              1.7538  Tot=              3.9351
 Quadrupole moment (field-independent basis, Debye-Ang):
   XX=            -42.6218   YY=            -56.7678   ZZ=            -44.0285
   XY=              5.8075   XZ=             -1.3272   YZ=              1.1227

 Normal termination of Gaussian 16 at Fri May  9 15:53:30 2025.
