 Gaussian 16, Revision A.03,
 Gaussian 16:  ES64L-G16RevA.03 25-Dec-2016

 --------------------------
 # ccsd(t)/6-311++g(d,p) sp
 --------------------------

 -------------------
 Title Card Required
 -------------------
 Symbolic Z-matrix:
 Charge =  0 Multiplicity = 2

                         Standard orientation:
 ---------------------------------------------------------------------
 Center     Atomic      Atomic             Coordinates (Angstroms)
 Number     Number       Type             X           Y           Z
 ---------------------------------------------------------------------
      1          6           0       -2.284963   -1.275567   -0.000005
      2          1           0       -3.165309   -1.875217   -0.000005
      3          6           0       -1.212774   -0.727911   -0.000005
      4          6           0       -0.093089    0.197983   -0.000005
      5          8           0       -0.253433    1.390503   -0.000008
      6          8           0        1.081068   -0.418785    0.000001
      7          6           0        2.239191    0.442194    0.000002
      8          6           0        3.457191   -0.451212    0.000005
      9          1           0        2.193202    1.081401   -0.883863
     10          1           0        2.193199    1.081402    0.883866
     11          1           0        3.467942   -1.086832    0.886152
     12          1           0        3.467945   -1.086833   -0.886141
     13          1           0        4.360342    0.161266    0.000006
     14          8           0       -3.606411    0.460808    0.000012
     15          1           0       -2.920456    1.151691    0.000009
 ---------------------------------------------------------------------

 SCF Done:  E(UHF) =  -417.992079037     A.U. after   35 cycles
 E2 =    -0.1255532414D+01 EUMP2 =    -0.41924761145121D+03
 CCSD(T)= -0.41935685016D+03

 The electronic state is 2-A.
 Alpha  occ. eigenvalues --  -20.62308 -20.61705 -20.57188 -11.42166 -11.30449
 Alpha  occ. eigenvalues --  -11.26742 -11.26199 -11.23475  -1.49326  -1.39317
 Alpha  occ. eigenvalues --   -1.37307  -1.09071  -1.04990  -0.92189  -0.84039
 Alpha  occ. eigenvalues --   -0.78268  -0.73225  -0.70364  -0.70330  -0.66173
 Alpha  occ. eigenvalues --   -0.64476  -0.61139  -0.59755  -0.56499  -0.54643
 Alpha  occ. eigenvalues --   -0.53242  -0.52858  -0.49929  -0.48167  -0.42984
 Alpha  occ. eigenvalues --   -0.41915
 Alpha virt. eigenvalues --    0.03788   0.04680   0.05933   0.06236   0.07147
 Alpha virt. eigenvalues --    0.08190   0.08778   0.09498   0.11584   0.12262
 Alpha virt. eigenvalues --    0.12581   0.12949   0.14244   0.15546   0.16197

  Beta  occ. eigenvalues --  -20.62293 -20.57691 -20.56849 -11.42419 -11.30445
  Beta  occ. eigenvalues --  -11.27970 -11.24752 -11.23474  -1.49146  -1.38738
  Beta  occ. eigenvalues --   -1.22366  -1.07800  -1.04950  -0.92674  -0.83977
  Beta  occ. eigenvalues --   -0.78151  -0.73030  -0.70271  -0.69872  -0.62004
  Beta  occ. eigenvalues --   -0.60644  -0.59491  -0.56414  -0.52814  -0.52809
  Beta  occ. eigenvalues --   -0.50000  -0.48948  -0.47439  -0.43446  -0.42637
  Beta virt. eigenvalues --    0.03791   0.04638   0.05739   0.06229   0.06949
  Beta virt. eigenvalues --    0.07292   0.08601   0.09483   0.10184   0.12279
  Beta virt. eigenvalues --    0.12403   0.12714   0.13244   0.14903   0.15267

 Mulliken charges and spin densities:
               1          2
     1  C   -2.443053  -0.585917
     2  H    0.193240   0.054827
     3  C    2.675202   0.660606
     4  C   -0.224680  -0.123375
     5  O   -0.343712   0.062711
     6  O   -0.076300   0.001026
     7  C    0.009803   0.000590
     8  C   -0.636849   0.000923
     9  H    0.181610   0.000060
    10  H    0.181610   0.000060
    11  H    0.154494   0.000020
    12  H    0.154494   0.000020
    13  H    0.143372   0.000023
    14  O   -0.241813   0.963531
    15  H    0.272584  -0.035105
 Sum of Mulliken charges =  -0.00000   1.00000

 Dipole moment (field-independent basis, Debye):
    X=              2.4441    Y=             -0.8522    Z=              0.0000  Tot=              2.5884
 Quadrupole moment (field-independent basis, Debye-Ang):
   XX=            -43.8093   YY=            -48.1104   ZZ=            -47.6758
   XY=              4.6171   XZ=              0.0000   YZ=              0.0000

 14\PMP3-0=-419.2840297\MP4SDQ=-419.3016524\CCSD=-419.3042529\CCSD(T)=-
 Normal termination of Gaussian 16 at Thu Apr 24 00:40:02 2025.
