 Gaussian 16, Revision A.03,
 Gaussian 16:  ES64L-G16RevA.03 25-Dec-2016

 --------------------------
 # ccsd(t)/6-311++g(d,p) sp
 --------------------------

 -------------------
 Title Card Required
 -------------------
 Symbolic Z-matrix:
 Charge =  0 Multiplicity = 2

                         Standard orientation:
 ---------------------------------------------------------------------
 Center     Atomic      Atomic             Coordinates (Angstroms)
 Number     Number       Type             X           Y           Z
 ---------------------------------------------------------------------
      1          6           0        2.587562   -0.232675   -1.126582
      2          1           0        3.475519   -0.506699   -1.648539
      3          6           0        1.607069   -0.037013   -0.409293
      4          6           0        0.326092    0.611703   -0.047150
      5          8           0        0.253798    1.701416    0.442666
      6          8           0       -0.692912   -0.193323   -0.309026
      7          6           0       -1.985301    0.284469    0.116119
      8          6           0       -2.991145   -0.787027   -0.231888
      9          1           0       -1.940574    0.478255    1.189677
     10          1           0       -2.189995    1.228777   -0.392389
     11          1           0       -3.000569   -0.971897   -1.306711
     12          1           0       -2.749885   -1.718754    0.280678
     13          1           0       -3.988438   -0.467492    0.074946
     14          8           0        1.761222   -1.061830    1.171995
     15          1           0        2.551410   -0.649036    1.550020
 ---------------------------------------------------------------------

 SCF Done:  E(UHF) =  -417.978351356     A.U. after   30 cycles
 E2 =    -0.1255372777D+01 EUMP2 =    -0.41923372413370D+03
 CCSD(T)= -0.41935557766D+03

 The electronic state is 2-A.
 Alpha  occ. eigenvalues --  -20.61493 -20.61087 -20.55584 -11.41197 -11.29538
 Alpha  occ. eigenvalues --  -11.27684 -11.27368 -11.22728  -1.48146  -1.37745
 Alpha  occ. eigenvalues --   -1.37242  -1.08235  -1.04807  -0.92050  -0.83324
 Alpha  occ. eigenvalues --   -0.77446  -0.72825  -0.69963  -0.68760  -0.66944
 Alpha  occ. eigenvalues --   -0.63964  -0.59263  -0.58492  -0.55656  -0.54039
 Alpha  occ. eigenvalues --   -0.51933  -0.51255  -0.47717  -0.46183  -0.43455
 Alpha  occ. eigenvalues --   -0.42174
 Alpha virt. eigenvalues --    0.03672   0.04489   0.05951   0.06553   0.07094
 Alpha virt. eigenvalues --    0.08127   0.09945   0.10601   0.11227   0.12272
 Alpha virt. eigenvalues --    0.12923   0.13855   0.14645   0.15269   0.16751

  Beta  occ. eigenvalues --  -20.61094 -20.58069 -20.55977 -11.40819 -11.29672
  Beta  occ. eigenvalues --  -11.29540 -11.24973 -11.22728  -1.48294  -1.38348
  Beta  occ. eigenvalues --   -1.25656  -1.07786  -1.03791  -0.90647  -0.82746
  Beta  occ. eigenvalues --   -0.76965  -0.71659  -0.69735  -0.69072  -0.64125
  Beta  occ. eigenvalues --   -0.60152  -0.58678  -0.55739  -0.52771  -0.51992
  Beta  occ. eigenvalues --   -0.49820  -0.48527  -0.47200  -0.45303  -0.42342
  Beta virt. eigenvalues --    0.03761   0.04433   0.04573   0.06534   0.07076
  Beta virt. eigenvalues --    0.07738   0.08346   0.09892   0.10629   0.12236
  Beta virt. eigenvalues --    0.12683   0.13068   0.14090   0.15433   0.16211

 Mulliken charges and spin densities:
               1          2
     1  C   -0.268533   1.287258
     2  H    0.227494  -0.096241
     3  C    0.515847  -1.088512
     4  C   -0.364071   0.209429
     5  O   -0.297886  -0.080475
     6  O   -0.060950   0.003045
     7  C   -0.029073   0.000294
     8  C   -0.598013   0.000599
     9  H    0.180479  -0.000013
    10  H    0.178217   0.000272
    11  H    0.150291   0.000076
    12  H    0.158346  -0.000082
    13  H    0.137823   0.000004
    14  O   -0.181200   0.793281
    15  H    0.251229  -0.028935
 Sum of Mulliken charges =  -0.00000   1.00000

 Dipole moment (field-independent basis, Debye):
    X=              0.4519    Y=             -0.8434    Z=             -0.8837  Tot=              1.3025
 Quadrupole moment (field-independent basis, Debye-Ang):
   XX=            -30.1942   YY=            -55.9539   ZZ=            -44.4937
   XY=             -1.8059   XZ=             -1.9393   YZ=             -0.8261

 0=-419.2828615\MP4SDQ=-419.2926371\CCSD=-419.3009\CCSD(T)=-419.3555777
 Normal termination of Gaussian 16 at Thu Apr 24 09:32:33 2025.
