 Gaussian 16, Revision A.03,
 Gaussian 16:  ES64L-G16RevA.03 25-Dec-2016

 --------------------------
 # ccsd(t)/6-311++g(d,p) sp
 --------------------------

 -------------------
 Title Card Required
 -------------------
 Symbolic Z-matrix:
 Charge =  0 Multiplicity = 2

                         Standard orientation:
 ---------------------------------------------------------------------
 Center     Atomic      Atomic             Coordinates (Angstroms)
 Number     Number       Type             X           Y           Z
 ---------------------------------------------------------------------
      1          6           0        2.583411   -0.264528   -1.122555
      2          1           0        3.473490   -0.561367   -1.629308
      3          6           0        1.616153   -0.084318   -0.352373
      4          6           0        0.327531    0.608515   -0.065445
      5          8           0        0.255611    1.714619    0.386133
      6          8           0       -0.692796   -0.202169   -0.303822
      7          6           0       -1.985237    0.289453    0.105827
      8          6           0       -2.991536   -0.792092   -0.207820
      9          1           0       -1.939863    0.517074    1.172727
     10          1           0       -2.189506    1.217225   -0.432315
     11          1           0       -3.000869   -1.011213   -1.276193
     12          1           0       -2.750877   -1.707058    0.334362
     13          1           0       -3.988724   -0.462365    0.088392
     14          8           0        1.756010   -1.004794    1.172794
     15          1           0        2.543832   -0.595718    1.555698
 ---------------------------------------------------------------------

 SCF Done:  E(UHF) =  -417.980290212     A.U. after   30 cycles
 E2 =    -0.1259809708D+01 EUMP2 =    -0.41924009991979D+03
 CCSD(T)= -0.41936168528D+03

 The electronic state is 2-A.
 Alpha  occ. eigenvalues --  -20.61161 -20.60538 -20.55724 -11.41144 -11.29570
 Alpha  occ. eigenvalues --  -11.29200 -11.28118 -11.22747  -1.48219  -1.37831
 Alpha  occ. eigenvalues --   -1.36229  -1.08581  -1.04914  -0.92124  -0.83487
 Alpha  occ. eigenvalues --   -0.77640  -0.72881  -0.69985  -0.68810  -0.66707
 Alpha  occ. eigenvalues --   -0.62531  -0.59174  -0.58467  -0.55676  -0.53286
 Alpha  occ. eigenvalues --   -0.51957  -0.51138  -0.47908  -0.46312  -0.43783
 Alpha  occ. eigenvalues --   -0.42036
 Alpha virt. eigenvalues --    0.03653   0.04482   0.05988   0.06547   0.07087
 Alpha virt. eigenvalues --    0.08134   0.09938   0.10691   0.11219   0.12493
 Alpha virt. eigenvalues --    0.12897   0.13828   0.14591   0.15274   0.16602

  Beta  occ. eigenvalues --  -20.61166 -20.57702 -20.56057 -11.40777 -11.31457
  Beta  occ. eigenvalues --  -11.29573 -11.25220 -11.22747  -1.48339  -1.38361
  Beta  occ. eigenvalues --   -1.27206  -1.07610  -1.03676  -0.90461  -0.82674
  Beta  occ. eigenvalues --   -0.77018  -0.71560  -0.69842  -0.69043  -0.64462
  Beta  occ. eigenvalues --   -0.60212  -0.58588  -0.55774  -0.52857  -0.52020
  Beta  occ. eigenvalues --   -0.49752  -0.48674  -0.47197  -0.46733  -0.42304
  Beta virt. eigenvalues --    0.03762   0.04264   0.04503   0.06521   0.07059
  Beta virt. eigenvalues --    0.07513   0.08250   0.09872   0.10491   0.12256
  Beta virt. eigenvalues --    0.12896   0.13089   0.14089   0.15409   0.16416

 Mulliken charges and spin densities:
               1          2
     1  C   -0.025930   1.489286
     2  H    0.239892  -0.105662
     3  C    0.199198  -1.136200
     4  C   -0.264655   0.195255
     5  O   -0.300936  -0.066939
     6  O   -0.063060   0.003654
     7  C   -0.038284  -0.000136
     8  C   -0.587804   0.000180
     9  H    0.181806   0.000056
    10  H    0.178115   0.000311
    11  H    0.150173   0.000084
    12  H    0.159048  -0.000134
    13  H    0.137665   0.000013
    14  O   -0.221512   0.643117
    15  H    0.256283  -0.022885
 Sum of Mulliken charges =  -0.00000   1.00000

 Dipole moment (field-independent basis, Debye):
    X=              0.4412    Y=             -0.7379    Z=             -1.1320  Tot=              1.4215
 Quadrupole moment (field-independent basis, Debye-Ang):
   XX=            -30.2504   YY=            -56.1361   ZZ=            -44.7759
   XY=             -1.6278   XZ=             -2.3658   YZ=             -0.1949

 MP3-0=-419.2890586\MP4SDQ=-419.2985518\CCSD=-419.3067606\CCSD(T)=-419.
 Normal termination of Gaussian 16 at Thu Apr 24 06:52:30 2025.
