 Gaussian 16, Revision A.03,
 Gaussian 16:  ES64L-G16RevA.03 25-Dec-2016

 --------------------------
 # ccsd(t)/6-311++g(d,p) sp
 --------------------------

 -------------------
 Title Card Required
 -------------------
 Symbolic Z-matrix:
 Charge =  0 Multiplicity = 2

                         Standard orientation:
 ---------------------------------------------------------------------
 Center     Atomic      Atomic             Coordinates (Angstroms)
 Number     Number       Type             X           Y           Z
 ---------------------------------------------------------------------
      1          6           0       -2.262680   -1.311892   -0.000005
      2          1           0       -3.152158   -1.897352   -0.000005
      3          6           0       -1.209899   -0.731534   -0.000005
      4          6           0       -0.093611    0.198328   -0.000005
      5          8           0       -0.255710    1.390680   -0.000008
      6          8           0        1.081731   -0.416414    0.000001
      7          6           0        2.238439    0.446187    0.000002
      8          6           0        3.457779   -0.445425    0.000005
      9          1           0        2.191571    1.085357   -0.883853
     10          1           0        2.191568    1.085358    0.883857
     11          1           0        3.469446   -1.081040    0.886144
     12          1           0        3.469449   -1.081041   -0.886133
     13          1           0        4.360030    0.168383    0.000006
     14          8           0       -3.624237    0.479448    0.000012
     15          1           0       -2.924336    1.156635    0.000008
 ---------------------------------------------------------------------

 SCF Done:  E(UHF) =  -417.994655598     A.U. after   34 cycles
 E2 =    -0.1256770132D+01 EUMP2 =    -0.41925142573009D+03
 CCSD(T)= -0.41935809187D+03

 The electronic state is 2-A.
 Alpha  occ. eigenvalues --  -20.62331 -20.61788 -20.57203 -11.42242 -11.30460
 Alpha  occ. eigenvalues --  -11.26753 -11.26165 -11.23481  -1.49340  -1.39301
 Alpha  occ. eigenvalues --   -1.37322  -1.08976  -1.04980  -0.92260  -0.84055
 Alpha  occ. eigenvalues --   -0.78248  -0.73185  -0.70375  -0.70311  -0.66332
 Alpha  occ. eigenvalues --   -0.64552  -0.61114  -0.59767  -0.56505  -0.54648
 Alpha  occ. eigenvalues --   -0.53225  -0.52864  -0.49847  -0.48137  -0.42957
 Alpha  occ. eigenvalues --   -0.41993
 Alpha virt. eigenvalues --    0.03780   0.04673   0.05929   0.06234   0.07148
 Alpha virt. eigenvalues --    0.08219   0.08683   0.09497   0.11595   0.12248
 Alpha virt. eigenvalues --    0.12557   0.12960   0.14205   0.15520   0.16132

  Beta  occ. eigenvalues --  -20.62317 -20.57732 -20.56915 -11.42459 -11.30456
  Beta  occ. eigenvalues --  -11.27789 -11.24936 -11.23481  -1.49186  -1.38808
  Beta  occ. eigenvalues --   -1.22097  -1.07897  -1.04943  -0.92680  -0.84006
  Beta  occ. eigenvalues --   -0.78156  -0.73042  -0.70294  -0.69930  -0.62028
  Beta  occ. eigenvalues --   -0.60689  -0.59541  -0.56432  -0.52851  -0.52823
  Beta  occ. eigenvalues --   -0.49857  -0.49037  -0.47512  -0.43298  -0.42678
  Beta virt. eigenvalues --    0.03783   0.04642   0.05762   0.06228   0.06972
  Beta virt. eigenvalues --    0.07342   0.08537   0.09483   0.10332   0.12298
  Beta virt. eigenvalues --    0.12379   0.12641   0.13209   0.14932   0.15282

 Mulliken charges and spin densities:
               1          2
     1  C   -2.548524  -0.492568
     2  H    0.190881   0.046869
     3  C    2.772035   0.559173
     4  C   -0.216396  -0.111796
     5  O   -0.342005   0.053511
     6  O   -0.071692   0.000880
     7  C    0.013477   0.000898
     8  C   -0.639901   0.000573
     9  H    0.181664   0.000055
    10  H    0.181665   0.000055
    11  H    0.154551   0.000017
    12  H    0.154551   0.000017
    13  H    0.143513   0.000027
    14  O   -0.244289   0.977671
    15  H    0.270470  -0.035381
 Sum of Mulliken charges =  -0.00000   1.00000

 Dipole moment (field-independent basis, Debye):
    X=              2.4583    Y=             -0.8449    Z=             -0.0000  Tot=              2.5995
 Quadrupole moment (field-independent basis, Debye-Ang):
   XX=            -43.8964   YY=            -48.0540   ZZ=            -47.6964
   XY=              4.6843   XZ=              0.0000   YZ=              0.0000

 85\PMP3-0=-419.2855424\MP4SDQ=-419.3043766\CCSD=-419.3057806\CCSD(T)=-
 Normal termination of Gaussian 16 at Wed Apr 23 09:33:58 2025.
