 Gaussian 16, Revision A.03,
 Gaussian 16:  ES64L-G16RevA.03 25-Dec-2016

 --------------------------
 # ccsd(t)/6-311++g(d,p) sp
 --------------------------

 -------------------
 Title Card Required
 -------------------
 Symbolic Z-matrix:
 Charge =  0 Multiplicity = 2

                         Standard orientation:
 ---------------------------------------------------------------------
 Center     Atomic      Atomic             Coordinates (Angstroms)
 Number     Number       Type             X           Y           Z
 ---------------------------------------------------------------------
      1          6           0        2.594673   -0.144543   -1.141070
      2          1           0        3.489240   -0.386618   -1.666065
      3          6           0        1.588195    0.075023   -0.511875
      4          6           0        0.324512    0.619591   -0.006194
      5          8           0        0.248689    1.659866    0.583301
      6          8           0       -0.693535   -0.169988   -0.321191
      7          6           0       -1.985353    0.270174    0.141409
      8          6           0       -2.990266   -0.770989   -0.291805
      9          1           0       -1.942499    0.378074    1.227050
     10          1           0       -2.191454    1.252066   -0.289792
     11          1           0       -2.999642   -0.868729   -1.378010
     12          1           0       -2.747708   -1.740842    0.143741
     13          1           0       -3.987946   -0.478811    0.040047
     14          8           0        1.772869   -1.198685    1.145616
     15          1           0        2.565261   -0.780223    1.518440
 ---------------------------------------------------------------------

 SCF Done:  E(UHF) =  -417.984808042     A.U. after   38 cycles
 E2 =    -0.1256684051D+01 EUMP2 =    -0.41924149209210D+03
 CCSD(T)= -0.41935424363D+03

 The electronic state is 2-A.
 Alpha  occ. eigenvalues --  -20.62606 -20.61050 -20.55558 -11.41295 -11.29509
 Alpha  occ. eigenvalues --  -11.26836 -11.25971 -11.22709  -1.48074  -1.38372
 Alpha  occ. eigenvalues --   -1.37643  -1.07896  -1.04595  -0.92016  -0.83217
 Alpha  occ. eigenvalues --   -0.77216  -0.72755  -0.69898  -0.68775  -0.67332
 Alpha  occ. eigenvalues --   -0.65669  -0.59419  -0.58599  -0.55657  -0.55002
 Alpha  occ. eigenvalues --   -0.51903  -0.51415  -0.47633  -0.46202  -0.42983
 Alpha  occ. eigenvalues --   -0.42161
 Alpha virt. eigenvalues --    0.03689   0.04492   0.05919   0.06559   0.07099
 Alpha virt. eigenvalues --    0.08131   0.09955   0.10206   0.11061   0.12030
 Alpha virt. eigenvalues --    0.12913   0.13818   0.14779   0.15243   0.16731

  Beta  occ. eigenvalues --  -20.61058 -20.58657 -20.55939 -11.40985 -11.29510
  Beta  occ. eigenvalues --  -11.27511 -11.25036 -11.22709  -1.48228  -1.38267
  Beta  occ. eigenvalues --   -1.23999  -1.07915  -1.03925  -0.91100  -0.82969
  Beta  occ. eigenvalues --   -0.76975  -0.71939  -0.69560  -0.69098  -0.63723
  Beta  occ. eigenvalues --   -0.60104  -0.58807  -0.55704  -0.52683  -0.51948
  Beta  occ. eigenvalues --   -0.50091  -0.48442  -0.47144  -0.43590  -0.42309
  Beta virt. eigenvalues --    0.03755   0.04471   0.04916   0.06544   0.07086
  Beta virt. eigenvalues --    0.08003   0.08677   0.09918   0.10745   0.11614
  Beta virt. eigenvalues --    0.12637   0.13027   0.14031   0.15394   0.15785

 Mulliken charges and spin densities:
               1          2
     1  C   -1.092622   0.815876
     2  H    0.207310  -0.065200
     3  C    1.360885  -0.800295
     4  C   -0.400900   0.223420
     5  O   -0.287511  -0.078996
     6  O   -0.048729   0.001543
     7  C   -0.004774   0.000325
     8  C   -0.620674   0.001520
     9  H    0.178889  -0.000124
    10  H    0.177992   0.000129
    11  H    0.150434   0.000044
    12  H    0.157583  -0.000016
    13  H    0.138344  -0.000003
    14  O   -0.158973   0.936723
    15  H    0.242744  -0.034946
 Sum of Mulliken charges =  -0.00000   1.00000

 Dipole moment (field-independent basis, Debye):
    X=              0.4822    Y=             -0.9583    Z=             -0.6035  Tot=              1.2308
 Quadrupole moment (field-independent basis, Debye-Ang):
   XX=            -29.9710   YY=            -55.5757   ZZ=            -44.5775
   XY=             -2.0496   XZ=             -1.4163   YZ=             -1.9491

 =-419.2809594\MP4SDQ=-419.2970276\CCSD=-419.300995\CCSD(T)=-419.354243
 Normal termination of Gaussian 16 at Mon Apr 28 14:09:46 2025.
