 Gaussian 16, Revision A.03,
 Gaussian 16:  ES64L-G16RevA.03 25-Dec-2016

 --------------------------
 # ccsd(t)/6-311++g(d,p) sp
 --------------------------

 -------------------
 Title Card Required
 -------------------
 Symbolic Z-matrix:
 Charge =  0 Multiplicity = 2

                         Standard orientation:
 ---------------------------------------------------------------------
 Center     Atomic      Atomic             Coordinates (Angstroms)
 Number     Number       Type             X           Y           Z
 ---------------------------------------------------------------------
      1          6           0       -2.602675    0.007122    1.161615
      2          1           0       -3.513635   -0.209864    1.668645
      3          6           0       -1.568250    0.233490    0.595110
      4          6           0       -0.319064    0.638099   -0.047733
      5          8           0       -0.240698    1.570043   -0.798220
      6          8           0        0.693196   -0.126852    0.342342
      7          6           0        1.984459    0.240935   -0.180739
      8          6           0        2.988215   -0.736276    0.384406
      9          1           0        1.939410    0.205454   -1.270934
     10          1           0        2.195102    1.270567    0.116752
     11          1           0        2.996649   -0.692701    1.474131
     12          1           0        2.745643   -1.754296    0.077838
     13          1           0        3.986309   -0.490141    0.018187
     14          8           0       -1.787478   -1.401708   -1.059278
     15          1           0       -2.565743   -0.961107   -1.439326
 ---------------------------------------------------------------------

 SCF Done:  E(UHF) =  -417.993759328     A.U. after   38 cycles
 E2 =    -0.1259965618D+01 EUMP2 =    -0.41925372494594D+03
 CCSD(T)= -0.41935770591D+03

 The electronic state is 2-A.
 Alpha  occ. eigenvalues --  -20.63089 -20.61123 -20.55742 -11.41428 -11.29539
 Alpha  occ. eigenvalues --  -11.26715 -11.25856 -11.22725  -1.48132  -1.38617
 Alpha  occ. eigenvalues --   -1.37782  -1.07817  -1.04430  -0.91957  -0.83228
 Alpha  occ. eigenvalues --   -0.77177  -0.72753  -0.69711  -0.68901  -0.67612
 Alpha  occ. eigenvalues --   -0.65999  -0.59673  -0.58705  -0.55681  -0.55398
 Alpha  occ. eigenvalues --   -0.51926  -0.51678  -0.47887  -0.46429  -0.42757
 Alpha  occ. eigenvalues --   -0.42219
 Alpha virt. eigenvalues --    0.03721   0.04479   0.05941   0.06560   0.07074
 Alpha virt. eigenvalues --    0.08158   0.09603   0.10029   0.10857   0.12037
 Alpha virt. eigenvalues --    0.12965   0.14049   0.15129   0.15328   0.16652

  Beta  occ. eigenvalues --  -20.61129 -20.58985 -20.55997 -11.41242 -11.29540
  Beta  occ. eigenvalues --  -11.26727 -11.25667 -11.22726  -1.48238  -1.38195
  Beta  occ. eigenvalues --   -1.23161  -1.07862  -1.04037  -0.91464  -0.83140
  Beta  occ. eigenvalues --   -0.77078  -0.72312  -0.69459  -0.69108  -0.63406
  Beta  occ. eigenvalues --   -0.60117  -0.58847  -0.55706  -0.52558  -0.51952
  Beta  occ. eigenvalues --   -0.50229  -0.48398  -0.47030  -0.42896  -0.42336
  Beta virt. eigenvalues --    0.03771   0.04461   0.05180   0.06548   0.07067
  Beta virt. eigenvalues --    0.08115   0.09057   0.09864   0.10374   0.11201
  Beta virt. eigenvalues --    0.12576   0.13026   0.14170   0.15365   0.15856

 Mulliken charges and spin densities:
               1          2
     1  C   -0.700901   0.482021
     2  H    0.219497  -0.033872
     3  C    1.506444  -0.415491
     4  C   -0.939176   0.064429
     5  O   -0.281788  -0.052633
     6  O   -0.044261   0.000445
     7  C   -0.008020  -0.001714
     8  C   -0.618105  -0.000253
     9  H    0.178514   0.000133
    10  H    0.177164  -0.000070
    11  H    0.150279   0.000000
    12  H    0.157272   0.000022
    13  H    0.138734  -0.000001
    14  O   -0.170721   0.996211
    15  H    0.235068  -0.039227
 Sum of Mulliken charges =  -0.00000   1.00000

 Dipole moment (field-independent basis, Debye):
    X=             -0.4918    Y=             -0.8779    Z=              0.6247  Tot=              1.1844
 Quadrupole moment (field-independent basis, Debye-Ang):
   XX=            -29.7169   YY=            -55.0509   ZZ=            -45.4819
   XY=              1.9853   XZ=             -1.3965   YZ=              3.0673

 PMP3-0=-419.2853868\MP4SDQ=-419.3055788\CCSD=-419.3055479\CCSD(T)=-419
 Normal termination of Gaussian 16 at Thu Apr 24 07:43:31 2025.
