 Gaussian 16, Revision A.03,
 Gaussian 16:  ES64L-G16RevA.03 25-Dec-2016

 --------------------------
 # ccsd(t)/6-311++g(d,p) sp
 --------------------------

 -------------------
 Title Card Required
 -------------------
 Symbolic Z-matrix:
 Charge =  0 Multiplicity = 2

                         Standard orientation:
 ---------------------------------------------------------------------
 Center     Atomic      Atomic             Coordinates (Angstroms)
 Number     Number       Type             X           Y           Z
 ---------------------------------------------------------------------
      1          6           0        2.597659   -0.107484   -1.147194
      2          1           0        3.496625   -0.342144   -1.667712
      3          6           0        1.582167    0.117259   -0.540537
      4          6           0        0.323326    0.623845    0.007979
      5          8           0        0.246356    1.639976    0.638747
      6          8           0       -0.693579   -0.160185   -0.325929
      7          6           0       -1.985367    0.263584    0.151229
      8          6           0       -2.989850   -0.763401   -0.315669
      9          1           0       -1.943054    0.336645    1.239764
     10          1           0       -2.191998    1.258822   -0.248114
     11          1           0       -2.998914   -0.826084   -1.404459
     12          1           0       -2.747063   -1.746742    0.088392
     13          1           0       -3.987726   -0.482527    0.025235
     14          8           0        1.776784   -1.251362    1.128721
     15          1           0        2.568033   -0.828223    1.499726
 ---------------------------------------------------------------------

 SCF Done:  E(UHF) =  -417.987701929     A.U. after   40 cycles
 E2 =    -0.1257892215D+01 EUMP2 =    -0.41924559414334D+03
 CCSD(T)= -0.41935527544D+03

 The electronic state is 2-A.
 Alpha  occ. eigenvalues --  -20.62800 -20.61065 -20.55600 -11.41333 -11.29513
 Alpha  occ. eigenvalues --  -11.26755 -11.25845 -11.22711  -1.48080  -1.38507
 Alpha  occ. eigenvalues --   -1.37672  -1.07846  -1.04537  -0.92008  -0.83216
 Alpha  occ. eigenvalues --   -0.77190  -0.72749  -0.69850  -0.68807  -0.67429
 Alpha  occ. eigenvalues --   -0.65883  -0.59485  -0.58638  -0.55664  -0.55164
 Alpha  occ. eigenvalues --   -0.51906  -0.51483  -0.47687  -0.46259  -0.42890
 Alpha  occ. eigenvalues --   -0.42158
 Alpha virt. eigenvalues --    0.03687   0.04490   0.05921   0.06559   0.07095
 Alpha virt. eigenvalues --    0.08136   0.09928   0.10073   0.10991   0.11964
 Alpha virt. eigenvalues --    0.12903   0.13780   0.14849   0.15237   0.16660

  Beta  occ. eigenvalues --  -20.61073 -20.58778 -20.55952 -11.41057 -11.29514
  Beta  occ. eigenvalues --  -11.27169 -11.25196 -11.22711  -1.48224  -1.38245
  Beta  occ. eigenvalues --   -1.23683  -1.07906  -1.03955  -0.91229  -0.83033
  Beta  occ. eigenvalues --   -0.77003  -0.72052  -0.69520  -0.69105  -0.63616
  Beta  occ. eigenvalues --   -0.60103  -0.58832  -0.55702  -0.52651  -0.51944
  Beta  occ. eigenvalues --   -0.50144  -0.48429  -0.47113  -0.43290  -0.42302
  Beta virt. eigenvalues --    0.03748   0.04469   0.05003   0.06544   0.07083
  Beta virt. eigenvalues --    0.08045   0.08801   0.09919   0.10701   0.11384
  Beta virt. eigenvalues --    0.12607   0.13011   0.13991   0.15372   0.15713

 Mulliken charges and spin densities:
               1          2
     1  C   -1.462738   0.667936
     2  H    0.201446  -0.055274
     3  C    1.705586  -0.694258
     4  C   -0.374417   0.226602
     5  O   -0.284546  -0.072951
     6  O   -0.044560   0.001327
     7  C    0.005210   0.000242
     8  C   -0.629292   0.001812
     9  H    0.178768  -0.000119
    10  H    0.177802   0.000058
    11  H    0.150477   0.000030
    12  H    0.157599  -0.000011
    13  H    0.138597  -0.000000
    14  O   -0.160554   0.960597
    15  H    0.240623  -0.035992
 Sum of Mulliken charges =  -0.00000   1.00000

 Dipole moment (field-independent basis, Debye):
    X=              0.4892    Y=             -0.9568    Z=             -0.5844  Tot=              1.2232
 Quadrupole moment (field-independent basis, Debye-Ang):
   XX=            -29.8768   YY=            -55.4483   ZZ=            -44.7727
   XY=             -2.0731   XZ=             -1.3641   YZ=             -2.2737

 \PMP3-0=-419.2821607\MP4SDQ=-419.2998576\CCSD=-419.3024196\CCSD(T)=-41
 Normal termination of Gaussian 16 at Mon Apr 28 15:09:54 2025.
