 Gaussian 16, Revision A.03,
 Gaussian 16:  ES64L-G16RevA.03 25-Dec-2016

 --------------------------
 # ccsd(t)/6-311++g(d,p) sp
 --------------------------

 -------------------
 Title Card Required
 -------------------
 Symbolic Z-matrix:
 Charge =  0 Multiplicity = 2

                         Standard orientation:
 ---------------------------------------------------------------------
 Center     Atomic      Atomic             Coordinates (Angstroms)
 Number     Number       Type             X           Y           Z
 ---------------------------------------------------------------------
      1          6           0       -2.331691   -1.200267   -0.000003
      2          1           0       -3.170129   -1.859413   -0.000005
      3          6           0       -1.215603   -0.725939   -0.000006
      4          6           0       -0.092294    0.197646   -0.000004
      5          8           0       -0.250143    1.390173   -0.000009
      6          8           0        1.079739   -0.422524    0.000001
      7          6           0        2.240644    0.435345    0.000002
      8          6           0        3.455895   -0.461671    0.000005
      9          1           0        2.196267    1.074555   -0.883917
     10          1           0        2.196264    1.074555    0.883920
     11          1           0        3.464882   -1.097230    0.886204
     12          1           0        3.464884   -1.097230   -0.886197
     13          1           0        4.360767    0.148249    0.000005
     14          8           0       -3.572362    0.425577    0.000011
     15          1           0       -2.912511    1.140028    0.000015
 ---------------------------------------------------------------------

 SCF Done:  E(UHF) =  -417.986679555     A.U. after   34 cycles
 E2 =    -0.1251870906D+01 EUMP2 =    -0.41923855046113D+03
 CCSD(T)= -0.41935505494D+03

 The electronic state is 2-A.
 Alpha  occ. eigenvalues --  -20.62288 -20.61400 -20.57211 -11.42036 -11.30455
 Alpha  occ. eigenvalues --  -11.26961 -11.26500 -11.23484  -1.49341  -1.39406
 Alpha  occ. eigenvalues --   -1.37068  -1.09383  -1.05045  -0.92067  -0.84036
 Alpha  occ. eigenvalues --   -0.78349  -0.73185  -0.70438  -0.70378  -0.65580
 Alpha  occ. eigenvalues --   -0.64146  -0.61242  -0.59763  -0.56509  -0.54487
 Alpha  occ. eigenvalues --   -0.53296  -0.52876  -0.50197  -0.48274  -0.43126
 Alpha  occ. eigenvalues --   -0.41914
 Alpha virt. eigenvalues --    0.03792   0.04712   0.05927   0.06223   0.07136
 Alpha virt. eigenvalues --    0.08129   0.08956   0.09486   0.11529   0.12282
 Alpha virt. eigenvalues --    0.12616   0.12910   0.14302   0.15591   0.16321

  Beta  occ. eigenvalues --  -20.62271 -20.57563 -20.56753 -11.42372 -11.30450
  Beta  occ. eigenvalues --  -11.28663 -11.24512 -11.23484  -1.49099  -1.38623
  Beta  occ. eigenvalues --   -1.23137  -1.07599  -1.04976  -0.92688  -0.83933
  Beta  occ. eigenvalues --   -0.78163  -0.72918  -0.70255  -0.69782  -0.61901
  Beta  occ. eigenvalues --   -0.60581  -0.59403  -0.56394  -0.52808  -0.52777
  Beta  occ. eigenvalues --   -0.50355  -0.48776  -0.47299  -0.44042  -0.42540
  Beta virt. eigenvalues --    0.03794   0.04651   0.05633   0.06213   0.06819
  Beta virt. eigenvalues --    0.07199   0.08682   0.09466   0.09799   0.12213
  Beta virt. eigenvalues --    0.12416   0.12779   0.13325   0.14779   0.15215

 Mulliken charges and spin densities:
               1          2
     1  C   -2.128683  -0.814060
     2  H    0.202127   0.072143
     3  C    2.412127   0.917469
     4  C   -0.281053  -0.145061
     5  O   -0.344494   0.084451
     6  O   -0.085121   0.001427
     7  C    0.001407  -0.000565
     8  C   -0.628865   0.001978
     9  H    0.181543   0.000078
    10  H    0.181543   0.000078
    11  H    0.154381   0.000029
    12  H    0.154381   0.000029
    13  H    0.143068   0.000002
    14  O   -0.236996   0.916202
    15  H    0.274637  -0.034199
 Sum of Mulliken charges =  -0.00000   1.00000

 Dipole moment (field-independent basis, Debye):
    X=              2.5180    Y=             -0.9343    Z=              0.0000  Tot=              2.6858
 Quadrupole moment (field-independent basis, Debye-Ang):
   XX=            -44.2448   YY=            -48.0943   ZZ=            -47.6275
   XY=              4.6480   XZ=              0.0000   YZ=              0.0001

 7\PMP3-0=-419.2821316\MP4SDQ=-419.2956023\CCSD=-419.3015977\CCSD(T)=-4
 Normal termination of Gaussian 16 at Wed Apr 23 05:46:41 2025.
