 Gaussian 16, Revision A.03,
 Gaussian 16:  ES64L-G16RevA.03 25-Dec-2016

 --------------------------
 # ccsd(t)/6-311++g(d,p) sp
 --------------------------

 -------------------
 Title Card Required
 -------------------
 Symbolic Z-matrix:
 Charge =  0 Multiplicity = 2

                         Standard orientation:
 ---------------------------------------------------------------------
 Center     Atomic      Atomic             Coordinates (Angstroms)
 Number     Number       Type             X           Y           Z
 ---------------------------------------------------------------------
      1          6           0       -2.319623   -1.219285   -0.000004
      2          1           0       -3.172024   -1.859796   -0.000005
      3          6           0       -1.215369   -0.725868   -0.000005
      4          6           0       -0.092479    0.197626   -0.000005
      5          8           0       -0.250887    1.390188   -0.000009
      6          8           0        1.080099   -0.421684    0.000001
      7          6           0        2.240305    0.436960    0.000002
      8          6           0        3.456243   -0.459171    0.000005
      9          1           0        2.195561    1.076158   -0.883909
     10          1           0        2.195558    1.076159    0.883912
     11          1           0        3.465615   -1.094790    0.886170
     12          1           0        3.465618   -1.094791   -0.886160
     13          1           0        4.360743    0.151286    0.000006
     14          8           0       -3.580543    0.434073    0.000012
     15          1           0       -2.914884    1.143578    0.000010
 ---------------------------------------------------------------------

 SCF Done:  E(UHF) =  -417.987950606     A.U. after   34 cycles
 E2 =    -0.1252928321D+01 EUMP2 =    -0.41924087892688D+03
 CCSD(T)= -0.41935529355D+03

 The electronic state is 2-A.
 Alpha  occ. eigenvalues --  -20.62287 -20.61501 -20.57195 -11.42064 -11.30448
 Alpha  occ. eigenvalues --  -11.26858 -11.26380 -11.23478  -1.49328  -1.39373
 Alpha  occ. eigenvalues --   -1.37166  -1.09285  -1.05026  -0.92091  -0.84028
 Alpha  occ. eigenvalues --   -0.78320  -0.73214  -0.70398  -0.70367  -0.65769
 Alpha  occ. eigenvalues --   -0.64257  -0.61206  -0.59755  -0.56503  -0.54551
 Alpha  occ. eigenvalues --   -0.53279  -0.52865  -0.50113  -0.48238  -0.43077
 Alpha  occ. eigenvalues --   -0.41886
 Alpha virt. eigenvalues --    0.03794   0.04702   0.05931   0.06229   0.07140
 Alpha virt. eigenvalues --    0.08143   0.08918   0.09492   0.11548   0.12279
 Alpha virt. eigenvalues --    0.12610   0.12923   0.14291   0.15581   0.16294

  Beta  occ. eigenvalues --  -20.62271 -20.57603 -20.56769 -11.42378 -11.30444
  Beta  occ. eigenvalues --  -11.28430 -11.24542 -11.23477  -1.49103  -1.38645
  Beta  occ. eigenvalues --   -1.22908  -1.07650  -1.04970  -0.92676  -0.83938
  Beta  occ. eigenvalues --   -0.78154  -0.72957  -0.70253  -0.69799  -0.61934
  Beta  occ. eigenvalues --   -0.60591  -0.59421  -0.56397  -0.52802  -0.52779
  Beta  occ. eigenvalues --   -0.50257  -0.48815  -0.47332  -0.43841  -0.42569
  Beta virt. eigenvalues --    0.03796   0.04643   0.05670   0.06220   0.06863
  Beta virt. eigenvalues --    0.07219   0.08676   0.09473   0.09903   0.12234
  Beta virt. eigenvalues --    0.12416   0.12774   0.13310   0.14815   0.15232

 Mulliken charges and spin densities:
               1          2
     1  C   -2.218055  -0.751717
     2  H    0.199676   0.067838
     3  C    2.487589   0.845454
     4  C   -0.265558  -0.139916
     5  O   -0.344718   0.078488
     6  O   -0.083160   0.001322
     7  C    0.003603  -0.000195
     8  C   -0.631152   0.001672
     9  H    0.181539   0.000072
    10  H    0.181539   0.000072
    11  H    0.154412   0.000027
    12  H    0.154412   0.000027
    13  H    0.143143   0.000010
    14  O   -0.237784   0.931369
    15  H    0.274514  -0.034520
 Sum of Mulliken charges =  -0.00000   1.00000

 Dipole moment (field-independent basis, Debye):
    X=              2.4817    Y=             -0.9027    Z=              0.0000  Tot=              2.6408
 Quadrupole moment (field-independent basis, Debye-Ang):
   XX=            -44.0312   YY=            -48.1136   ZZ=            -47.6403
   XY=              4.6131   XZ=              0.0000   YZ=              0.0001

 3-0=-419.2823006\MP4SDQ=-419.2970813\CCSD=-419.3020938\CCSD(T)=-419.35
 Normal termination of Gaussian 16 at Wed Apr 23 10:31:38 2025.
