 Gaussian 16, Revision A.03,
 Gaussian 16:  ES64L-G16RevA.03 25-Dec-2016

 --------------------------
 # ccsd(t)/6-311++g(d,p) sp
 --------------------------

 -------------------
 Title Card Required
 -------------------
 Symbolic Z-matrix:
 Charge =  0 Multiplicity = 2

                         Standard orientation:
 ---------------------------------------------------------------------
 Center     Atomic      Atomic             Coordinates (Angstroms)
 Number     Number       Type             X           Y           Z
 ---------------------------------------------------------------------
      1          6           0        2.599081   -0.087292   -1.150239
      2          1           0        3.500446   -0.318599   -1.668025
      3          6           0        1.579280    0.139279   -0.553627
      4          6           0        0.322606    0.626304    0.015298
      5          8           0        0.245152    1.628538    0.668156
      6          8           0       -0.693539   -0.154722   -0.328553
      7          6           0       -1.985335    0.259857    0.156481
      8          6           0       -2.989607   -0.759016   -0.328352
      9          1           0       -1.943104    0.313997    1.246104
     10          1           0       -2.192340    1.261877   -0.225423
     11          1           0       -2.998490   -0.802818   -1.418066
     12          1           0       -2.746772   -1.749197    0.058623
     13          1           0       -3.987577   -0.484263    0.017242
     14          8           0        1.778747   -1.279146    1.118292
     15          1           0        2.568803   -0.853145    1.489010
 ---------------------------------------------------------------------

 SCF Done:  E(UHF) =  -417.989085801     A.U. after   41 cycles
 E2 =    -0.1258455457D+01 EUMP2 =    -0.41924754125772D+03
 CCSD(T)= -0.41935583785D+03

 The electronic state is 2-A.
 Alpha  occ. eigenvalues --  -20.62877 -20.61076 -20.55626 -11.41353 -11.29517
 Alpha  occ. eigenvalues --  -11.26732 -11.25819 -11.22713  -1.48087  -1.38550
 Alpha  occ. eigenvalues --   -1.37691  -1.07830  -1.04511  -0.92001  -0.83218
 Alpha  occ. eigenvalues --   -0.77182  -0.72748  -0.69823  -0.68825  -0.67473
 Alpha  occ. eigenvalues --   -0.65944  -0.59521  -0.58655  -0.55668  -0.55227
 Alpha  occ. eigenvalues --   -0.51909  -0.51521  -0.47723  -0.46291  -0.42852
 Alpha  occ. eigenvalues --   -0.42162
 Alpha virt. eigenvalues --    0.03685   0.04488   0.05922   0.06559   0.07091
 Alpha virt. eigenvalues --    0.08139   0.09883   0.10040   0.10959   0.11926
 Alpha virt. eigenvalues --    0.12899   0.13759   0.14892   0.15235   0.16620

  Beta  occ. eigenvalues --  -20.61083 -20.58829 -20.55960 -11.41095 -11.29518
  Beta  occ. eigenvalues --  -11.27041 -11.25286 -11.22713  -1.48224  -1.38235
  Beta  occ. eigenvalues --   -1.23553  -1.07897  -1.03971  -0.91286  -0.83060
  Beta  occ. eigenvalues --   -0.77018  -0.72107  -0.69503  -0.69107  -0.63567
  Beta  occ. eigenvalues --   -0.60104  -0.58840  -0.55702  -0.52634  -0.51945
  Beta  occ. eigenvalues --   -0.50165  -0.48422  -0.47097  -0.43176  -0.42302
  Beta virt. eigenvalues --    0.03744   0.04468   0.05041   0.06544   0.07080
  Beta virt. eigenvalues --    0.08061   0.08860   0.09918   0.10657   0.11287
  Beta virt. eigenvalues --    0.12581   0.13003   0.13967   0.15362   0.15698

 Mulliken charges and spin densities:
               1          2
     1  C   -1.655589   0.597369
     2  H    0.198362  -0.050662
     3  C    1.897387  -0.641168
     4  C   -0.371200   0.226767
     5  O   -0.283296  -0.069285
     6  O   -0.042879   0.001269
     7  C    0.010335   0.000175
     8  C   -0.634142   0.001925
     9  H    0.178765  -0.000102
    10  H    0.177703   0.000020
    11  H    0.150511   0.000023
    12  H    0.157642  -0.000009
    13  H    0.138738   0.000001
    14  O   -0.162014   0.970138
    15  H    0.239677  -0.036461
 Sum of Mulliken charges =  -0.00000   1.00000

 Dipole moment (field-independent basis, Debye):
    X=              0.4915    Y=             -0.9495    Z=             -0.5844  Tot=              1.2185
 Quadrupole moment (field-independent basis, Debye-Ang):
   XX=            -29.8321   YY=            -55.3800   ZZ=            -44.8925
   XY=             -2.0742   XZ=             -1.3542   YZ=             -2.4315

 PMP3-0=-419.2828577\MP4SDQ=-419.3012204\CCSD=-419.3031502\CCSD(T)=-419
 Normal termination of Gaussian 16 at Mon Apr 28 10:36:25 2025.
