 Gaussian 16, Revision A.03,
 Gaussian 16:  ES64L-G16RevA.03 25-Dec-2016

 --------------------------
 # ccsd(t)/6-311++g(d,p) sp
 --------------------------

 -------------------
 Title Card Required
 -------------------
 Symbolic Z-matrix:
 Charge =  0 Multiplicity = 2

                         Standard orientation:
 ---------------------------------------------------------------------
 Center     Atomic      Atomic             Coordinates (Angstroms)
 Number     Number       Type             X           Y           Z
 ---------------------------------------------------------------------
      1          6           0       -2.419330   -1.067151   -0.000004
      2          1           0       -3.127727   -1.875399   -0.000008
      3          6           0       -1.208752   -0.735944   -0.000005
      4          6           0       -0.093076    0.198806   -0.000005
      5          8           0       -0.245846    1.391731   -0.000009
      6          8           0        1.077314   -0.426591    0.000001
      7          6           0        2.242373    0.425843    0.000002
      8          6           0        3.453255   -0.476936    0.000005
      9          1           0        2.200858    1.065132   -0.883993
     10          1           0        2.200854    1.065134    0.883994
     11          1           0        3.459316   -1.112472    0.886257
     12          1           0        3.459319   -1.112475   -0.886244
     13          1           0        4.360985    0.128663    0.000006
     14          8           0       -3.520430    0.368546    0.000012
     15          1           0       -2.888730    1.104218    0.000004
 ---------------------------------------------------------------------

 SCF Done:  E(UHF) =  -417.987671122     A.U. after   31 cycles
 E2 =    -0.1251688296D+01 EUMP2 =    -0.41923935941771D+03
 CCSD(T)= -0.41936523598D+03

 The electronic state is 2-A.
 Alpha  occ. eigenvalues --  -20.62382 -20.60092 -20.57515 -11.41959 -11.30568
 Alpha  occ. eigenvalues --  -11.29372 -11.28144 -11.23593  -1.49519  -1.39725
 Alpha  occ. eigenvalues --   -1.35398  -1.10408  -1.05265  -0.92200  -0.84354
 Alpha  occ. eigenvalues --   -0.78690  -0.72760  -0.70890  -0.70553  -0.63807
 Alpha  occ. eigenvalues --   -0.62395  -0.61600  -0.59876  -0.56585  -0.53990
 Alpha  occ. eigenvalues --   -0.53023  -0.52888  -0.50890  -0.48599  -0.43635
 Alpha  occ. eigenvalues --   -0.42535
 Alpha virt. eigenvalues --    0.03725   0.04768   0.05872   0.06129   0.07101
 Alpha virt. eigenvalues --    0.08125   0.08957   0.09388   0.11326   0.12304
 Alpha virt. eigenvalues --    0.12529   0.12797   0.14314   0.15549   0.16358

  Beta  occ. eigenvalues --  -20.62363 -20.57224 -20.56837 -11.42409 -11.31765
  Beta  occ. eigenvalues --  -11.30565 -11.25092 -11.23593  -1.49153  -1.38577
  Beta  occ. eigenvalues --   -1.25951  -1.07299  -1.04829  -0.92906  -0.84041
  Beta  occ. eigenvalues --   -0.78318  -0.72411  -0.70354  -0.69805  -0.61521
  Beta  occ. eigenvalues --   -0.60612  -0.59363  -0.56451  -0.53009  -0.52911
  Beta  occ. eigenvalues --   -0.51369  -0.48961  -0.47176  -0.46734  -0.41992
  Beta virt. eigenvalues --    0.03720   0.04745   0.05160   0.06105   0.06423
  Beta virt. eigenvalues --    0.07112   0.08325   0.09162   0.09373   0.12002
  Beta virt. eigenvalues --    0.12400   0.12717   0.13158   0.14567   0.15029

 Mulliken charges and spin densities:
               1          2
     1  C   -1.510924  -1.109519
     2  H    0.216837   0.087640
     3  C    1.797994   1.394150
     4  C   -0.259830  -0.155420
     5  O   -0.339414   0.124774
     6  O   -0.095344   0.001738
     7  C   -0.012874  -0.004399
     8  C   -0.610324   0.004125
     9  H    0.181902   0.000186
    10  H    0.181902   0.000186
    11  H    0.154072   0.000043
    12  H    0.154072   0.000043
    13  H    0.142685  -0.000090
    14  O   -0.271089   0.683738
    15  H    0.270334  -0.027195
 Sum of Mulliken charges =  -0.00000   1.00000

 Dipole moment (field-independent basis, Debye):
    X=              3.0569    Y=             -1.3569    Z=             -0.0000  Tot=              3.3445
 Quadrupole moment (field-independent basis, Debye-Ang):
   XX=            -47.5778   YY=            -47.8777   ZZ=            -47.5372
   XY=              5.4702   XZ=              0.0001   YZ=              0.0000

 7\PMP3-0=-419.2934001\MP4SDQ=-419.2996981\CCSD=-419.3102001\CCSD(T)=-4
 Normal termination of Gaussian 16 at Wed Apr 23 23:46:41 2025.
