 Gaussian 16, Revision A.03,
 Gaussian 16:  ES64L-G16RevA.03 25-Dec-2016

 --------------------------
 # ccsd(t)/6-311++g(d,p) sp
 --------------------------

 -------------------
 Title Card Required
 -------------------
 Symbolic Z-matrix:
 Charge =  0 Multiplicity = 2

                         Standard orientation:
 ---------------------------------------------------------------------
 Center     Atomic      Atomic             Coordinates (Angstroms)
 Number     Number       Type             X           Y           Z
 ---------------------------------------------------------------------
      1          6           0       -2.431485   -1.048211   -0.000004
      2          1           0       -3.119667   -1.875437   -0.000008
      3          6           0       -1.207475   -0.738526   -0.000005
      4          6           0       -0.093624    0.198909   -0.000005
      5          8           0       -0.245343    1.392120   -0.000009
      6          8           0        1.077012   -0.426991    0.000001
      7          6           0        2.242488    0.424686    0.000002
      8          6           0        3.452905   -0.478765    0.000005
      9          1           0        2.201444    1.064043   -0.883982
     10          1           0        2.201440    1.064046    0.883984
     11          1           0        3.458601   -1.114314    0.886254
     12          1           0        3.458604   -1.114317   -0.886241
     13          1           0        4.360997    0.126301    0.000006
     14          8           0       -3.513233    0.360146    0.000012
     15          1           0       -2.885754    1.098927    0.000004
 ---------------------------------------------------------------------

 SCF Done:  E(UHF) =  -417.990332963     A.U. after   30 cycles
 E2 =    -0.1253972829D+01 EUMP2 =    -0.41924430579131D+03
 CCSD(T)= -0.41936904853D+03

 The electronic state is 2-A.
 Alpha  occ. eigenvalues --  -20.62395 -20.59827 -20.57564 -11.41959 -11.30582
 Alpha  occ. eigenvalues --  -11.29989 -11.28409 -11.23609  -1.49534  -1.39755
 Alpha  occ. eigenvalues --   -1.35044  -1.10565  -1.05300  -0.92263  -0.84432
 Alpha  occ. eigenvalues --   -0.78755  -0.72730  -0.70954  -0.70573  -0.63603
 Alpha  occ. eigenvalues --   -0.62047  -0.61641  -0.59859  -0.56582  -0.53994
 Alpha  occ. eigenvalues --   -0.53038  -0.52704  -0.50938  -0.48633  -0.43671
 Alpha  occ. eigenvalues --   -0.42594
 Alpha virt. eigenvalues --    0.03712   0.04767   0.05864   0.06115   0.07097
 Alpha virt. eigenvalues --    0.08133   0.08923   0.09371   0.11296   0.12310
 Alpha virt. eigenvalues --    0.12494   0.12788   0.14315   0.15523   0.16347

  Beta  occ. eigenvalues --  -20.62376 -20.57217 -20.56865 -11.42413 -11.32363
  Beta  occ. eigenvalues --  -11.30579 -11.25246 -11.23608  -1.49154  -1.38572
  Beta  occ. eigenvalues --   -1.26633  -1.07260  -1.04757  -0.92929  -0.84064
  Beta  occ. eigenvalues --   -0.78347  -0.72347  -0.70365  -0.69815  -0.61486
  Beta  occ. eigenvalues --   -0.60620  -0.59353  -0.56460  -0.53112  -0.52922
  Beta  occ. eigenvalues --   -0.51574  -0.49225  -0.47216  -0.47172  -0.41829
  Beta virt. eigenvalues --    0.03703   0.04739   0.05095   0.06087   0.06378
  Beta virt. eigenvalues --    0.07106   0.08243   0.09102   0.09359   0.11967
  Beta virt. eigenvalues --    0.12398   0.12712   0.13109   0.14548   0.15000

 Mulliken charges and spin densities:
               1          2
     1  C   -1.431159  -1.100780
     2  H    0.218534   0.087175
     3  C    1.713464   1.438947
     4  C   -0.243021  -0.152184
     5  O   -0.338956   0.128654
     6  O   -0.096640   0.001720
     7  C   -0.014505  -0.005060
     8  C   -0.607907   0.004357
     9  H    0.181966   0.000209
    10  H    0.181967   0.000209
    11  H    0.154002   0.000046
    12  H    0.154002   0.000046
    13  H    0.142636  -0.000107
    14  O   -0.284068   0.621832
    15  H    0.269686  -0.025065
 Sum of Mulliken charges =  -0.00000   1.00000

 Dipole moment (field-independent basis, Debye):
    X=              3.1422    Y=             -1.4303    Z=             -0.0000  Tot=              3.4525
 Quadrupole moment (field-independent basis, Debye-Ang):
   XX=            -48.1623   YY=            -47.8571   ZZ=            -47.5237
   XY=              5.6333   XZ=              0.0001   YZ=              0.0000

 MP3-0=-419.2969102\MP4SDQ=-419.3040924\CCSD=-419.3140132\CCSD(T)=-419.
 Normal termination of Gaussian 16 at Wed Apr 23 01:56:00 2025.
