 Gaussian 16, Revision A.03,
 Gaussian 16:  ES64L-G16RevA.03 25-Dec-2016

 --------------------------
 # ccsd(t)/6-311++g(d,p) sp
 --------------------------

 -------------------
 Title Card Required
 -------------------
 Symbolic Z-matrix:
 Charge =  0 Multiplicity = 2

                         Standard orientation:
 ---------------------------------------------------------------------
 Center     Atomic      Atomic             Coordinates (Angstroms)
 Number     Number       Type             X           Y           Z
 ---------------------------------------------------------------------
      1          6           0        2.586436   -0.244108   -1.125067
      2          1           0        3.474598   -0.525142   -1.643176
      3          6           0        1.610082   -0.053409   -0.390491
      4          6           0        0.326440    0.610686   -0.053500
      5          8           0        0.254424    1.706265    0.422927
      6          8           0       -0.692850   -0.196460   -0.307226
      7          6           0       -1.985287    0.286245    0.112504
      8          6           0       -2.991272   -0.788897   -0.223524
      9          1           0       -1.940350    0.491908    1.183845
     10          1           0       -2.189789    1.224857   -0.406483
     11          1           0       -3.000643   -0.985804   -1.296209
     12          1           0       -2.750235   -1.714847    0.299504
     13          1           0       -3.988531   -0.465736    0.079601
     14          8           0        1.759395   -1.042079    1.173170
     15          1           0        2.548804   -0.630143    1.552413
 ---------------------------------------------------------------------

 SCF Done:  E(UHF) =  -417.978378079     A.U. after   30 cycles
 E2 =    -0.1256298274D+01 EUMP2 =    -0.41923467635285D+03
 CCSD(T)= -0.41935711451D+03

 The electronic state is 2-A.
 Alpha  occ. eigenvalues --  -20.61204 -20.61109 -20.55621 -11.41180 -11.29548
 Alpha  occ. eigenvalues --  -11.28076 -11.27659 -11.22733  -1.48169  -1.37764
 Alpha  occ. eigenvalues --   -1.36942  -1.08335  -1.04844  -0.92071  -0.83370
 Alpha  occ. eigenvalues --   -0.77508  -0.72846  -0.69967  -0.68773  -0.66861
 Alpha  occ. eigenvalues --   -0.63510  -0.59236  -0.58482  -0.55661  -0.53796
 Alpha  occ. eigenvalues --   -0.51942  -0.51225  -0.47774  -0.46214  -0.43564
 Alpha  occ. eigenvalues --   -0.42151
 Alpha virt. eigenvalues --    0.03666   0.04487   0.05963   0.06551   0.07092
 Alpha virt. eigenvalues --    0.08129   0.09943   0.10639   0.11233   0.12335
 Alpha virt. eigenvalues --    0.12916   0.13848   0.14624   0.15272   0.16708

  Beta  occ. eigenvalues --  -20.61115 -20.57943 -20.56000 -11.40802 -11.30229
  Beta  occ. eigenvalues --  -11.29550 -11.25041 -11.22734  -1.48310  -1.38357
  Beta  occ. eigenvalues --   -1.26098  -1.07737  -1.03757  -0.90579  -0.82718
  Beta  occ. eigenvalues --   -0.76980  -0.71627  -0.69769  -0.69066  -0.64218
  Beta  occ. eigenvalues --   -0.60168  -0.58650  -0.55750  -0.52791  -0.52002
  Beta  occ. eigenvalues --   -0.49776  -0.48556  -0.47197  -0.45745  -0.42339
  Beta virt. eigenvalues --    0.03761   0.04394   0.04534   0.06531   0.07071
  Beta virt. eigenvalues --    0.07667   0.08308   0.09885   0.10584   0.12262
  Beta virt. eigenvalues --    0.12740   0.13074   0.14092   0.15429   0.16284

 Mulliken charges and spin densities:
               1          2
     1  C   -0.175746   1.360436
     2  H    0.231575  -0.100237
     3  C    0.399332  -1.116792
     4  C   -0.333600   0.205565
     5  O   -0.299197  -0.077247
     6  O   -0.062068   0.003305
     7  C   -0.032318   0.000185
     8  C   -0.594467   0.000454
     9  H    0.180902   0.000011
    10  H    0.178192   0.000288
    11  H    0.150250   0.000079
    12  H    0.158575  -0.000100
    13  H    0.137764   0.000007
    14  O   -0.192071   0.751252
    15  H    0.252877  -0.027205
 Sum of Mulliken charges =  -0.00000   1.00000

 Dipole moment (field-independent basis, Debye):
    X=              0.4480    Y=             -0.8092    Z=             -0.9634  Tot=              1.3355
 Quadrupole moment (field-independent basis, Debye-Ang):
   XX=            -30.2155   YY=            -56.0181   ZZ=            -44.5651
   XY=             -1.7459   XZ=             -2.0794   YZ=             -0.6169

 0=-419.2845162\MP4SDQ=-419.2937134\CCSD=-419.3022826\CCSD(T)=-419.3571
 Normal termination of Gaussian 16 at Thu Apr 24 11:38:14 2025.
