 Gaussian 16, Revision A.03,
 Gaussian 16:  ES64L-G16RevA.03 25-Dec-2016

 --------------------------
 # ccsd(t)/6-311++g(d,p) sp
 --------------------------

 -------------------
 Title Card Required
 -------------------
 Symbolic Z-matrix:
 Charge =  0 Multiplicity = 2

                         Standard orientation:
 ---------------------------------------------------------------------
 Center     Atomic      Atomic             Coordinates (Angstroms)
 Number     Number       Type             X           Y           Z
 ---------------------------------------------------------------------
      1          6           0       -2.251698   -1.329561   -0.000005
      2          1           0       -3.143135   -1.912008   -0.000005
      3          6           0       -1.208119   -0.734053   -0.000005
      4          6           0       -0.093935    0.198437   -0.000005
      5          8           0       -0.257152    1.390658   -0.000008
      6          8           0        1.082108   -0.415074    0.000001
      7          6           0        2.238066    0.448387    0.000002
      8          6           0        3.458068   -0.442342    0.000005
      9          1           0        2.190743    1.087529   -0.883855
     10          1           0        2.190740    1.087530    0.883858
     11          1           0        3.470180   -1.077954    0.886140
     12          1           0        3.470183   -1.077956   -0.886129
     13          1           0        4.359879    0.172111    0.000006
     14          8           0       -3.633230    0.488939    0.000012
     15          1           0       -2.926692    1.159357    0.000008
 ---------------------------------------------------------------------

 SCF Done:  E(UHF) =  -417.995832309     A.U. after   34 cycles
 E2 =    -0.1257249949D+01 EUMP2 =    -0.41925308225746D+03
 CCSD(T)= -0.41935869196D+03

 The electronic state is 2-A.
 Alpha  occ. eigenvalues --  -20.62342 -20.61819 -20.57212 -11.42279 -11.30467
 Alpha  occ. eigenvalues --  -11.26772 -11.26160 -11.23486  -1.49348  -1.39296
 Alpha  occ. eigenvalues --   -1.37316  -1.08939  -1.04978  -0.92294  -0.84063
 Alpha  occ. eigenvalues --   -0.78241  -0.73157  -0.70382  -0.70306  -0.66387
 Alpha  occ. eigenvalues --   -0.64575  -0.61105  -0.59773  -0.56509  -0.54641
 Alpha  occ. eigenvalues --   -0.53218  -0.52869  -0.49814  -0.48124  -0.42951
 Alpha  occ. eigenvalues --   -0.42041
 Alpha virt. eigenvalues --    0.03776   0.04670   0.05926   0.06232   0.07147
 Alpha virt. eigenvalues --    0.08231   0.08638   0.09495   0.11596   0.12241
 Alpha virt. eigenvalues --    0.12544   0.12964   0.14186   0.15508   0.16102

  Beta  occ. eigenvalues --  -20.62329 -20.57748 -20.56948 -11.42479 -11.30463
  Beta  occ. eigenvalues --  -11.27722 -11.25030 -11.23485  -1.49206  -1.38842
  Beta  occ. eigenvalues --   -1.21983  -1.07945  -1.04941  -0.92684  -0.84019
  Beta  occ. eigenvalues --   -0.78159  -0.73040  -0.70307  -0.69959  -0.62033
  Beta  occ. eigenvalues --   -0.60711  -0.59564  -0.56442  -0.52870  -0.52832
  Beta  occ. eigenvalues --   -0.49792  -0.49079  -0.47547  -0.43245  -0.42699
  Beta virt. eigenvalues --    0.03779   0.04645   0.05770   0.06227   0.06977
  Beta virt. eigenvalues --    0.07365   0.08505   0.09483   0.10392   0.12305
  Beta virt. eigenvalues --    0.12358   0.12602   0.13198   0.14938   0.15288

 Mulliken charges and spin densities:
               1          2
     1  C   -2.587301  -0.450440
     2  H    0.190203   0.043250
     3  C    2.812513   0.513690
     4  C   -0.218706  -0.106009
     5  O   -0.341029   0.049281
     6  O   -0.069680   0.000825
     7  C    0.015109   0.001002
     8  C   -0.641261   0.000437
     9  H    0.181683   0.000052
    10  H    0.181684   0.000052
    11  H    0.154581   0.000015
    12  H    0.154581   0.000015
    13  H    0.143575   0.000027
    14  O   -0.245259   0.983327
    15  H    0.269307  -0.035526
 Sum of Mulliken charges =  -0.00000   1.00000

 Dipole moment (field-independent basis, Debye):
    X=              2.4724    Y=             -0.8472    Z=             -0.0000  Tot=              2.6135
 Quadrupole moment (field-independent basis, Debye-Ang):
   XX=            -43.9857   YY=            -48.0076   ZZ=            -47.7056
   XY=              4.7320   XZ=              0.0000   YZ=              0.0000

 6\PMP3-0=-419.2862906\MP4SDQ=-419.3055869\CCSD=-419.3064982\CCSD(T)=-4
 Normal termination of Gaussian 16 at Wed Apr 23 08:36:39 2025.
