 Gaussian 16, Revision A.03,
 Gaussian 16:  ES64L-G16RevA.03 25-Dec-2016

 --------------------------
 # freq 6-311++g(d,p) m062x
 --------------------------

 -------------------
 Title Card Required
 -------------------
 Symbolic Z-matrix:
 Charge =  0 Multiplicity = 2

                         Standard orientation:
 ---------------------------------------------------------------------
 Center     Atomic      Atomic             Coordinates (Angstroms)
 Number     Number       Type             X           Y           Z
 ---------------------------------------------------------------------
      1          6           0       -1.850986   -0.210233    0.813946
      2          1           0       -2.554759   -0.545920    1.554462
      3          6           0       -0.827532    0.479442    0.579745
      4          6           0        0.298134    1.200066   -0.003089
      5          8           0        0.354844    2.396624    0.049056
      6          8           0        1.250247    0.472873   -0.585772
      7          6           0        1.180073   -0.969383   -0.599479
      8          6           0        1.748428   -1.546241    0.681626
      9          1           0        0.150334   -1.288329   -0.777899
     10          1           0        1.784870   -1.249446   -1.460355
     11          1           0        2.767670   -1.190784    0.838679
     12          1           0        1.141952   -1.265773    1.545029
     13          1           0        1.764181   -2.635980    0.618701
     14          8           0       -2.330616   -1.028468   -0.699292
     15          1           0       -2.538743   -0.273909   -1.267053
 ---------------------------------------------------------------------

 SCF Done:  E(UM062X) =  -420.210533586     A.U. after   19 cycles

 The electronic state is 2-A.
 Alpha  occ. eigenvalues --  -19.68555 -19.65714 -19.63592 -10.71384 -10.63970
 Alpha  occ. eigenvalues --  -10.61291 -10.61234 -10.54692  -1.25749  -1.17299
 Alpha  occ. eigenvalues --   -1.12063  -0.92309  -0.88731  -0.78513  -0.74994
 Alpha  occ. eigenvalues --   -0.64799  -0.63077  -0.58944  -0.57590  -0.55312
 Alpha  occ. eigenvalues --   -0.53585  -0.51055  -0.48876  -0.47692  -0.46281
 Alpha  occ. eigenvalues --   -0.42886  -0.41986  -0.39651  -0.38951  -0.37503
 Alpha  occ. eigenvalues --   -0.32914
 Alpha virt. eigenvalues --   -0.01943  -0.00801   0.00526   0.00581   0.02061
 Alpha virt. eigenvalues --    0.02386   0.03929   0.04272   0.05595   0.05956
 Alpha virt. eigenvalues --    0.06547   0.07859   0.08235   0.08919   0.09343

  Beta  occ. eigenvalues --  -19.68550 -19.64999 -19.63363 -10.71455 -10.64127
  Beta  occ. eigenvalues --  -10.61230 -10.60761 -10.54691  -1.25549  -1.16840
  Beta  occ. eigenvalues --   -1.09519  -0.90052  -0.88706  -0.78174  -0.74658
  Beta  occ. eigenvalues --   -0.64454  -0.62588  -0.58587  -0.56844  -0.53794
  Beta  occ. eigenvalues --   -0.53287  -0.49800  -0.47453  -0.46285  -0.44295
  Beta  occ. eigenvalues --   -0.42665  -0.40384  -0.38675  -0.37776  -0.36563
  Beta virt. eigenvalues --   -0.11463  -0.00909  -0.00642   0.00633   0.00965
  Beta virt. eigenvalues --    0.02396   0.02516   0.04287   0.04757   0.05878
  Beta virt. eigenvalues --    0.06169   0.06447   0.08019   0.08394   0.08983

 Mulliken charges and spin densities:
               1          2
     1  C   -0.433911  -0.212813
     2  H    0.252704   0.022109
     3  C    0.671578   0.747612
     4  C   -0.197435  -0.029893
     5  O   -0.245750   0.113717
     6  O   -0.040126   0.007909
     7  C   -0.361337  -0.015995
     8  C   -0.437996   0.006776
     9  H    0.200704   0.007891
    10  H    0.205917  -0.000134
    11  H    0.191495   0.000151
    12  H    0.133335  -0.000298
    13  H    0.166257  -0.000527
    14  O   -0.350853   0.357236
    15  H    0.245420  -0.003742
 Sum of Mulliken charges =  -0.00000   1.00000

 Dipole moment (field-independent basis, Debye):
    X=             -0.6159    Y=             -2.7951    Z=              0.9408  Tot=              3.0128
 Quadrupole moment (field-independent basis, Debye-Ang):
   XX=            -45.3090   YY=            -57.6668   ZZ=            -43.7940
   XY=             -7.4769   XZ=             -1.6677   YZ=             -1.5775

  Exact polarizability:  80.246   9.188  79.449   0.834   4.320  61.568
 Approx polarizability:  88.105  16.660  97.644  -0.364   6.370  73.808

 ******    1 imaginary frequencies (negative Signs) ******

                      1                      2                      3
                      A                      A                      A
 Frequencies --   -625.0610                77.5914                96.7540
 Red. masses --     11.5903                 3.8550                 5.2612
 Frc consts  --      2.6680                 0.0137                 0.0290
 IR Inten    --      7.3621                 1.5807                 1.1562

                      4                      5                      6
                      A                      A                      A
 Frequencies --    132.4788               151.3832               218.6820
 Red. masses --      5.6829                 4.1428                 1.1355
 Frc consts  --      0.0588                 0.0559                 0.0320
 IR Inten    --      5.5013                 4.2495                 1.8240

                      7                      8                      9
                      A                      A                      A
 Frequencies --    230.2612               271.6161               355.5678
 Red. masses --      1.1011                 3.1771                 2.8811
 Frc consts  --      0.0344                 0.1381                 0.2146
 IR Inten    --     93.6899                10.9644                 4.7544

                     10                     11                     12
                      A                      A                      A
 Frequencies --    375.9034               412.4293               560.1147
 Red. masses --      5.6869                 3.5671                 5.3068
 Frc consts  --      0.4735                 0.3575                 0.9809
 IR Inten    --      1.5361                 4.2619                22.3266

                     13                     14                     15
                      A                      A                      A
 Frequencies --    612.1377               728.6256               750.0229
 Red. masses --      6.8214                11.5963                 1.3147
 Frc consts  --      1.5060                 3.6273                 0.4357
 IR Inten    --      1.6959                19.5326                30.3654

                     16                     17                     18
                      A                      A                      A
 Frequencies --    756.5658               818.7100               948.7131
 Red. masses --      4.4456                 1.1452                 2.2177
 Frc consts  --      1.4992                 0.4523                 1.1761
 IR Inten    --      2.1259                 4.3871                 8.0694

                     19                     20                     21
                      A                      A                      A
 Frequencies --    972.4448              1042.2268              1101.5479
 Red. masses --      1.1522                 1.1223                 3.7973
 Frc consts  --      0.6420                 0.7183                 2.7147
 IR Inten    --     55.5471                19.2363                51.3613

                     22                     23                     24
                      A                      A                      A
 Frequencies --   1126.2736              1178.1386              1259.0390
 Red. masses --      2.4002                 1.9269                 2.9050
 Frc consts  --      1.7938                 1.5758                 2.7131
 IR Inten    --     36.5263                69.0529               331.8096

                     25                     26                     27
                      A                      A                      A
 Frequencies --   1357.2161              1406.8723              1436.6207
 Red. masses --      1.2572                 1.2548                 1.3467
 Frc consts  --      1.3644                 1.4633                 1.6376
 IR Inten    --    103.7412                18.3379                16.2702

                     28                     29                     30
                      A                      A                      A
 Frequencies --   1492.2949              1502.0061              1536.7643
 Red. masses --      1.0403                 1.0490                 1.0937
 Frc consts  --      1.3649                 1.3943                 1.5218
 IR Inten    --      4.2889                 2.1985                 9.2451

                     31                     32                     33
                      A                      A                      A
 Frequencies --   1813.1529              1903.9428              3071.6647
 Red. masses --     12.8723                 7.3791                 1.0357
 Frc consts  --     24.9331                15.7602                 5.7573
 IR Inten    --    453.8644                66.0540                 6.8890

                     34                     35                     36
                      A                      A                      A
 Frequencies --   3095.0124              3141.6560              3152.8446
 Red. masses --      1.0641                 1.1033                 1.1014
 Frc consts  --      6.0056                 6.4162                 6.4504
 IR Inten    --     10.3907                 4.1731                11.8241

                     37                     38                     39
                      A                      A                      A
 Frequencies --   3165.6250              3335.8652              3844.4432
 Red. masses --      1.1059                 1.1198                 1.0679
 Frc consts  --      6.5293                 7.3420                 9.2992
 IR Inten    --     16.8557                25.1978                70.1717

 - Thermochemistry -
 -------------------
 Temperature   298.150 Kelvin.  Pressure   1.00000 Atm.
 Atom     1 has atomic number  6 and mass  12.00000

 Molecular mass:   115.03952 amu.
 Principal axes and moments of inertia in atomic units:
                           1         2         3
     Eigenvalues --   821.052391046.856521543.17320
           X            0.98762  -0.15661   0.00937
           Y            0.15675   0.98749  -0.01713
           Z           -0.00657   0.01839   0.99981
 This molecule is an asymmetric top.
 Rotational symmetry number  1.
 Warning -- assumption of classical behavior for rotation
           may cause significant error
 Rotational temperatures (Kelvin)      0.10549     0.08274     0.05613
 Rotational constants (GHZ):           2.19808     1.72396     1.16950
    1 imaginary frequencies ignored.
 Zero-point vibrational energy     295676.3 (Joules/Mol)
                                   70.66832 (Kcal/Mol)
 Warning -- explicit consideration of  12 degrees of freedom as
           vibrations may cause significant error
 Vibrational temperatures:    111.64   139.21   190.61   217.81   314.63
          (Kelvin)            331.29   390.79   511.58   540.84   593.39
                              805.88   880.73  1048.33  1079.12  1088.53
                             1177.94  1364.99  1399.13  1499.53  1584.88
                             1620.46  1695.08  1811.48  1952.73  2024.18
                             2066.98  2147.08  2161.05  2211.06  2608.72
                             2739.35  4419.44  4453.03  4520.14  4536.24
                             4554.63  4799.57  5531.30

 Zero-point correction=                           0.112617 (Hartree/Particle)
 Thermal correction to Energy=                    0.121706
 Thermal correction to Enthalpy=                  0.122651
 Thermal correction to Gibbs Free Energy=         0.077858
 Sum of electronic and zero-point Energies=           -419.3580896
 Sum of electronic and thermal Energies=              -420.088827
 Sum of electronic and thermal Enthalpies=            -420.087883
 Sum of electronic and thermal Free Energies=         -420.132676

                     E (Thermal)             CV                S
                      KCal/Mol        Cal/Mol-Kelvin    Cal/Mol-Kelvin
 Total                   76.372             31.224             94.274
 Electronic               0.000              0.000              1.377
 Translational            0.889              2.981             40.136
 Rotational               0.889              2.981             28.674
 Vibrational             74.594             25.263             24.086
 Vibration     1          0.599              1.964              3.951
 Vibration     2          0.603              1.951              3.519
 Vibration     3          0.613              1.921              2.910
 Vibration     4          0.619              1.901              2.655
 Vibration     5          0.646              1.813              1.970
 Vibration     6          0.652              1.795              1.877
 Vibration     7          0.675              1.726              1.586
 Vibration     8          0.731              1.564              1.141
 Vibration     9          0.747              1.521              1.056
 Vibration    10          0.776              1.443              0.918
 Vibration    11          0.916              1.118              0.524
 Vibration    12          0.971              1.006              0.429

 Normal termination of Gaussian 16 at Fri Mar 28 23:52:50 2025.
