 Gaussian 16, Revision A.03,
 Gaussian 16:  ES64L-G16RevA.03 25-Dec-2016

 --------------------------
 # freq 6-311++g(d,p) m062x
 --------------------------

 -------------------
 Title Card Required
 -------------------
 Symbolic Z-matrix:
 Charge =  0 Multiplicity = 2

                         Standard orientation:
 ---------------------------------------------------------------------
 Center     Atomic      Atomic             Coordinates (Angstroms)
 Number     Number       Type             X           Y           Z
 ---------------------------------------------------------------------
      1          6           0       -1.777914   -0.037275    1.051825
      2          1           0       -2.596027   -0.476733    1.573285
      3          6           0       -0.818066    0.506403    0.566773
      4          6           0        0.324760    1.195880   -0.039877
      5          8           0        0.407768    2.388398   -0.024566
      6          8           0        1.251807    0.430280   -0.614284
      7          6           0        1.154639   -1.009521   -0.583312
      8          6           0        1.725280   -1.561310    0.707667
      9          1           0        0.117511   -1.313667   -0.738672
     10          1           0        1.743504   -1.326841   -1.442435
     11          1           0        2.753437   -1.223029    0.843227
     12          1           0        1.133425   -1.243188    1.567735
     13          1           0        1.718319   -2.652569    0.675203
     14          8           0       -2.402498   -1.076084   -0.785971
     15          1           0       -2.578982   -0.269782   -1.298234
 ---------------------------------------------------------------------

 SCF Done:  E(UM062X) =  -420.199927744     A.U. after   23 cycles

 The electronic state is 2-A.
 Alpha  occ. eigenvalues --  -19.68366 -19.68361 -19.63137 -10.71112 -10.61053
 Alpha  occ. eigenvalues --  -10.59291 -10.58655 -10.54442  -1.25441  -1.16912
 Alpha  occ. eigenvalues --   -1.14199  -0.90664  -0.88513  -0.77680  -0.74125
 Alpha  occ. eigenvalues --   -0.64441  -0.62461  -0.58496  -0.57088  -0.56272
 Alpha  occ. eigenvalues --   -0.53243  -0.51279  -0.49542  -0.47381  -0.46061
 Alpha  occ. eigenvalues --   -0.43947  -0.42148  -0.39860  -0.38620  -0.37458
 Alpha  occ. eigenvalues --   -0.35771
 Alpha virt. eigenvalues --   -0.02265  -0.00865   0.00479   0.00793   0.02162
 Alpha virt. eigenvalues --    0.02336   0.03784   0.04377   0.05636   0.06010
 Alpha virt. eigenvalues --    0.06660   0.07844   0.08572   0.09006   0.09418

  Beta  occ. eigenvalues --  -19.68359 -19.66830 -19.63084 -10.71130 -10.61054
  Beta  occ. eigenvalues --  -10.59304 -10.58513 -10.54442  -1.25397  -1.16807
  Beta  occ. eigenvalues --   -1.07114  -0.90024  -0.88505  -0.77596  -0.74016
  Beta  occ. eigenvalues --   -0.64316  -0.62287  -0.58393  -0.56895  -0.53416
  Beta  occ. eigenvalues --   -0.53084  -0.49681  -0.47299  -0.46039  -0.42578
  Beta  occ. eigenvalues --   -0.40588  -0.40256  -0.38986  -0.37622  -0.36804
  Beta virt. eigenvalues --   -0.10420  -0.01590  -0.00615   0.00644   0.01094
  Beta virt. eigenvalues --    0.02341   0.02440   0.04050   0.04518   0.05854
  Beta virt. eigenvalues --    0.06131   0.06720   0.07944   0.08842   0.09117

 Mulliken charges and spin densities:
               1          2
     1  C   -1.571839  -0.016264
     2  H    0.224056   0.009870
     3  C    1.613870   0.135883
     4  C   -0.049003  -0.018026
     5  O   -0.245708   0.024964
     6  O   -0.038804   0.000699
     7  C   -0.368731   0.002155
     8  C   -0.432270   0.000844
     9  H    0.205913  -0.000005
    10  H    0.202881   0.000506
    11  H    0.189181  -0.000184
    12  H    0.133909  -0.000957
    13  H    0.163988   0.000053
    14  O   -0.267640   0.876602
    15  H    0.240196  -0.016140
 Sum of Mulliken charges =  -0.00000   1.00000

 Dipole moment (field-independent basis, Debye):
    X=             -1.2148    Y=             -3.2256    Z=              0.4055  Tot=              3.4705
 Quadrupole moment (field-independent basis, Debye-Ang):
   XX=            -43.2382   YY=            -56.9897   ZZ=            -43.9039
   XY=             -6.2927   XZ=             -0.1899   YZ=             -1.0884

  Exact polarizability:  79.389   7.879  78.099  -1.561   2.857  61.625
 Approx polarizability:  87.794  14.381  93.339  -7.651  -0.012  70.761

 ******    1 imaginary frequencies (negative Signs) ******

                      1                      2                      3
                      A                      A                      A
 Frequencies --    -48.5754                62.9146                76.7694
 Red. masses --      5.9843                 9.5544                 4.0066
 Frc consts  --      0.0083                 0.0223                 0.0139
 IR Inten    --      5.6823                 6.7543                 0.9800

                      4                      5                      6
                      A                      A                      A
 Frequencies --    105.8771               122.3736               179.4685
 Red. masses --      3.5614                11.2185                 2.6923
 Frc consts  --      0.0235                 0.0990                 0.0511
 IR Inten    --      0.2582                11.6847                 1.7374

                      7                      8                      9
                      A                      A                      A
 Frequencies --    228.2810               229.7727               306.5152
 Red. masses --      1.2468                 1.2994                 2.7922
 Frc consts  --      0.0383                 0.0404                 0.1546
 IR Inten    --     14.1262                57.9545                20.6819

                     10                     11                     12
                      A                      A                      A
 Frequencies --    361.8108               408.6763               555.3045
 Red. masses --      2.8313                 3.6968                 5.1493
 Frc consts  --      0.2184                 0.3638                 0.9355
 IR Inten    --      2.5934                 3.4492                15.0928

                     13                     14                     15
                      A                      A                      A
 Frequencies --    588.5824               631.6719               745.4469
 Red. masses --      1.0597                 6.1677                 1.3027
 Frc consts  --      0.2163                 1.4500                 0.4265
 IR Inten    --    110.5898                 1.8344                35.9651

                     16                     17                     18
                      A                      A                      A
 Frequencies --    755.4172               765.5833               791.9148
 Red. masses --      5.3750                 6.4366                 1.1991
 Frc consts  --      1.8072                 2.2228                 0.4431
 IR Inten    --      2.3950                 9.6955                71.4260

                     19                     20                     21
                      A                      A                      A
 Frequencies --    817.1066               951.1262              1103.8604
 Red. masses --      1.1499                 2.2685                 3.7553
 Frc consts  --      0.4523                 1.2091                 2.6960
 IR Inten    --      4.9355                11.4470                56.1110

                     22                     23                     24
                      A                      A                      A
 Frequencies --   1128.6190              1180.0279              1263.3780
 Red. masses --      2.4729                 1.8947                 2.8848
 Frc consts  --      1.8559                 1.5544                 2.7129
 IR Inten    --     45.9424                60.9020               353.7829

                     25                     26                     27
                      A                      A                      A
 Frequencies --   1357.8844              1406.9312              1436.6946
 Red. masses --      1.2692                 1.2606                 1.3542
 Frc consts  --      1.3788                 1.4702                 1.6469
 IR Inten    --    113.9794                21.8138                16.8654

                     28                     29                     30
                      A                      A                      A
 Frequencies --   1492.5704              1503.0565              1535.0584
 Red. masses --      1.0406                 1.0475                 1.0964
 Frc consts  --      1.3659                 1.3943                 1.5221
 IR Inten    --      3.8821                 2.2666                11.5411

                     31                     32                     33
                      A                      A                      A
 Frequencies --   1856.7315              2205.3768              3072.6555
 Red. masses --     12.9550                 5.9284                 1.0354
 Frc consts  --     26.3138                16.9884                 5.7596
 IR Inten    --    504.5100                52.1280                 7.6821

                     34                     35                     36
                      A                      A                      A
 Frequencies --   3101.5106              3144.4700              3152.1282
 Red. masses --      1.0624                 1.1042                 1.1014
 Frc consts  --      6.0213                 6.4328                 6.4477
 IR Inten    --      9.9697                 2.4820                12.5105

                     37                     38                     39
                      A                      A                      A
 Frequencies --   3167.3648              3483.8618              3798.0826
 Red. masses --      1.1066                 1.1623                 1.0674
 Frc consts  --      6.5412                 8.3116                 9.0718
 IR Inten    --     17.3374                72.9994                41.5900

 - Thermochemistry -
 -------------------
 Temperature   298.150 Kelvin.  Pressure   1.00000 Atm.
 Atom     1 has atomic number  6 and mass  12.00000

 Molecular mass:   115.03952 amu.
 Principal axes and moments of inertia in atomic units:
                           1         2         3
     Eigenvalues --   856.490221080.753301554.52789
           X            0.98711  -0.15969   0.01092
           Y            0.15987   0.98697  -0.01832
           Z           -0.00785   0.01983   0.99977
 This molecule is an asymmetric top.
 Rotational symmetry number  1.
 Warning -- assumption of classical behavior for rotation
           may cause significant error
 Rotational temperatures (Kelvin)      0.10113     0.08014     0.05572
 Rotational constants (GHZ):           2.10714     1.66989     1.16096
    1 imaginary frequencies ignored.
 Zero-point vibrational energy     293532.9 (Joules/Mol)
                                   70.15606 (Kcal/Mol)
 Warning -- explicit consideration of  12 degrees of freedom as
           vibrations may cause significant error
 Vibrational temperatures:     90.52   110.45   152.33   176.07   258.22
          (Kelvin)            328.45   330.59   441.01   520.56   587.99
                              798.96   846.84   908.83  1072.53  1086.88
                             1101.50  1139.39  1175.63  1368.46  1588.21
                             1623.83  1697.80  1817.72  1953.69  2024.26
                             2067.08  2147.48  2162.56  2208.61  2671.42
                             3173.05  4420.87  4462.38  4524.19  4535.21
                             4557.13  5012.50  5464.59

 Zero-point correction=                           0.111801 (Hartree/Particle)
 Thermal correction to Energy=                    0.121414
 Thermal correction to Enthalpy=                  0.122358
 Thermal correction to Gibbs Free Energy=         0.076036
 Sum of electronic and zero-point Energies=           -419.3485657
 Sum of electronic and thermal Energies=              -420.078514
 Sum of electronic and thermal Enthalpies=            -420.077570
 Sum of electronic and thermal Free Energies=         -420.123891

                     E (Thermal)             CV                S
                      KCal/Mol        Cal/Mol-Kelvin    Cal/Mol-Kelvin
 Total                   76.188             32.430             97.491
 Electronic               0.000              0.000              1.377
 Translational            0.889              2.981             40.136
 Rotational               0.889              2.981             28.755
 Vibrational             74.411             26.469             27.223
 Vibration     1          0.597              1.972              4.364
 Vibration     2          0.599              1.965              3.972
 Vibration     3          0.605              1.945              3.343
 Vibration     4          0.610              1.930              3.063
 Vibration     5          0.629              1.868              2.334
 Vibration     6          0.651              1.798              1.892
 Vibration     7          0.652              1.796              1.881
 Vibration     8          0.697              1.661              1.381
 Vibration     9          0.736              1.551              1.114
 Vibration    10          0.773              1.451              0.931
 Vibration    11          0.911              1.128              0.533
 Vibration    12          0.946              1.056              0.470

 Normal termination of Gaussian 16 at Fri Mar 28 19:27:02 2025.
