 Gaussian 16, Revision A.03,
 Gaussian 16:  ES64L-G16RevA.03 25-Dec-2016

 --------------------------
 # ccsd(t)/6-311++g(d,p) sp
 --------------------------

 -------------------
 Title Card Required
 -------------------
 Symbolic Z-matrix:
 Charge =  0 Multiplicity = 2

                         Standard orientation:
 ---------------------------------------------------------------------
 Center     Atomic      Atomic             Coordinates (Angstroms)
 Number     Number       Type             X           Y           Z
 ---------------------------------------------------------------------
      1          6           0       -1.783816   -0.053257    1.033129
      2          1           0       -2.597695   -0.490469    1.563434
      3          6           0       -0.820480    0.502206    0.565811
      4          6           0        0.321822    1.196643   -0.035916
      5          8           0        0.401663    2.389392   -0.016485
      6          8           0        1.251579    0.435151   -0.611166
      7          6           0        1.157680   -1.005099   -0.585048
      8          6           0        1.728076   -1.559399    0.704955
      9          1           0        0.121478   -1.311110   -0.742842
     10          1           0        1.748519   -1.318161   -1.444363
     11          1           0        2.755255   -1.219084    0.842813
     12          1           0        1.134465   -1.245327    1.565327
     13          1           0        1.723731   -2.650565    0.669244
     14          8           0       -2.394708   -1.072115   -0.778929
     15          1           0       -2.573710   -0.271276   -1.298556
 ---------------------------------------------------------------------

 SCF Done:  E(UHF) =  -417.976808254     A.U. after   40 cycles
 E2 =    -0.1260771788D+01 EUMP2 =    -0.41923758004203D+03
 CCSD(T)= -0.41934807328D+03

 The electronic state is 2-A.
 Alpha  occ. eigenvalues --  -20.64249 -20.61070 -20.56079 -11.41367 -11.30261
 Alpha  occ. eigenvalues --  -11.27603 -11.27188 -11.23316  -1.47807  -1.39932
 Alpha  occ. eigenvalues --   -1.38724  -1.08668  -1.05003  -0.91503  -0.87405
 Alpha  occ. eigenvalues --   -0.75965  -0.73505  -0.69939  -0.68868  -0.67431
 Alpha  occ. eigenvalues --   -0.66232  -0.63440  -0.58838  -0.56967  -0.56005
 Alpha  occ. eigenvalues --   -0.54828  -0.50986  -0.48599  -0.46954  -0.43801
 Alpha  occ. eigenvalues --   -0.42606
 Alpha virt. eigenvalues --    0.03445   0.04550   0.04956   0.06613   0.06940
 Alpha virt. eigenvalues --    0.08094   0.09565   0.10253   0.10898   0.11835
 Alpha virt. eigenvalues --    0.13237   0.14085   0.14373   0.15225   0.15564

  Beta  occ. eigenvalues --  -20.61131 -20.60235 -20.55466 -11.41744 -11.30255
  Beta  occ. eigenvalues --  -11.28609 -11.25934 -11.23316  -1.47604  -1.37815
  Beta  occ. eigenvalues --   -1.25135  -1.07300  -1.04998  -0.91818  -0.87552
  Beta  occ. eigenvalues --   -0.75767  -0.73472  -0.69288  -0.66625  -0.64881
  Beta  occ. eigenvalues --   -0.63133  -0.58315  -0.55243  -0.54750  -0.52412
  Beta  occ. eigenvalues --   -0.50514  -0.47583  -0.46332  -0.43529  -0.43375
  Beta virt. eigenvalues --    0.03206   0.04454   0.04550   0.06399   0.06668
  Beta virt. eigenvalues --    0.07339   0.08330   0.09945   0.10468   0.11773
  Beta virt. eigenvalues --    0.12077   0.13427   0.14112   0.14623   0.15263

 Mulliken charges and spin densities:
               1          2
     1  C   -1.895185  -0.591325
     2  H    0.249456   0.051849
     3  C    1.942455   0.645562
     4  C    0.049730  -0.150014
     5  O   -0.329085   0.129964
     6  O   -0.149343  -0.002326
     7  C   -0.250459   0.001784
     8  C   -0.438913   0.003348
     9  H    0.190766  -0.002270
    10  H    0.177545   0.000293
    11  H    0.171236  -0.000291
    12  H    0.118983  -0.002516
    13  H    0.134740   0.000243
    14  O   -0.209616   0.946632
    15  H    0.237691  -0.030934
 Sum of Mulliken charges =  -0.00000   1.00000

 Dipole moment (field-independent basis, Debye):
    X=             -1.7446    Y=             -3.8259    Z=              0.1011  Tot=              4.2061
 Quadrupole moment (field-independent basis, Debye-Ang):
   XX=            -42.4323   YY=            -58.0921   ZZ=            -43.7195
   XY=             -5.9352   XZ=              0.6294   YZ=             -0.8454

 =-419.2742381\MP4SDQ=-419.2914268\CCSD=-419.2943756\CCSD(T)=-419.34807
 Normal termination of Gaussian 16 at Sun May 11 18:10:48 2025.
