 Gaussian 16, Revision A.03,
 Gaussian 16:  ES64L-G16RevA.03 25-Dec-2016

 --------------------------
 # freq 6-311++g(d,p) m062x
 --------------------------

 -------------------
 Title Card Required
 -------------------
 Symbolic Z-matrix:
 Charge =  0 Multiplicity = 2

                         Standard orientation:
 ---------------------------------------------------------------------
 Center     Atomic      Atomic             Coordinates (Angstroms)
 Number     Number       Type             X           Y           Z
 ---------------------------------------------------------------------
      1          6           0       -1.866026   -0.247781    0.753448
      2          1           0       -2.530952   -0.552388    1.547036
      3          6           0       -0.828548    0.475383    0.588459
      4          6           0        0.291054    1.200183    0.003520
      5          8           0        0.344612    2.397910    0.062061
      6          8           0        1.249947    0.480678   -0.581023
      7          6           0        1.184773   -0.961006   -0.602672
      8          6           0        1.753167   -1.543015    0.676230
      9          1           0        0.156825   -1.283657   -0.784829
     10          1           0        1.791745   -1.235145   -1.464021
     11          1           0        2.770642   -1.184014    0.836614
     12          1           0        1.144449   -1.269313    1.540237
     13          1           0        1.773631   -2.632367    0.607777
     14          8           0       -2.317066   -1.017157   -0.673696
     15          1           0       -2.532811   -0.277143   -1.255460
 ---------------------------------------------------------------------

 SCF Done:  E(UM062X) =  -420.223408849     A.U. after   19 cycles

 The electronic state is 2-A.
 Alpha  occ. eigenvalues --  -19.68355 -19.66037 -19.63347 -10.71084 -10.64461
 Alpha  occ. eigenvalues --  -10.61275 -10.61196 -10.54640  -1.25507  -1.17058
 Alpha  occ. eigenvalues --   -1.13109  -0.92003  -0.88634  -0.78413  -0.74939
 Alpha  occ. eigenvalues --   -0.64745  -0.62845  -0.58877  -0.57608  -0.56113
 Alpha  occ. eigenvalues --   -0.53456  -0.51220  -0.49093  -0.47610  -0.46200
 Alpha  occ. eigenvalues --   -0.42887  -0.42117  -0.39550  -0.38840  -0.37055
 Alpha  occ. eigenvalues --   -0.32712
 Alpha virt. eigenvalues --   -0.01660  -0.00835   0.00408   0.00568   0.02352
 Alpha virt. eigenvalues --    0.02468   0.04268   0.04451   0.05750   0.06012
 Alpha virt. eigenvalues --    0.06663   0.07850   0.08214   0.08960   0.09358

  Beta  occ. eigenvalues --  -19.68347 -19.65572 -19.63091 -10.71159 -10.64611
  Beta  occ. eigenvalues --  -10.61191 -10.60656 -10.54639  -1.25278  -1.16538
  Beta  occ. eigenvalues --   -1.11460  -0.89497  -0.88595  -0.78017  -0.74539
  Beta  occ. eigenvalues --   -0.64325  -0.62264  -0.58441  -0.56624  -0.55141
  Beta  occ. eigenvalues --   -0.53139  -0.49726  -0.47513  -0.46465  -0.45901
  Beta  occ. eigenvalues --   -0.42625  -0.40752  -0.38626  -0.37712  -0.36052
  Beta virt. eigenvalues --   -0.10759  -0.00877  -0.00462   0.00620   0.00867
  Beta virt. eigenvalues --    0.02448   0.02607   0.04320   0.04961   0.05970
  Beta virt. eigenvalues --    0.06153   0.06874   0.08059   0.08424   0.08970

 Mulliken charges and spin densities:
               1          2
     1  C   -0.350020  -0.186199
     2  H    0.239893   0.024903
     3  C    0.590803   0.841285
     4  C   -0.199484  -0.033314
     5  O   -0.249395   0.128065
     6  O   -0.043886   0.009570
     7  C   -0.344854  -0.017443
     8  C   -0.443121   0.006849
     9  H    0.189803   0.008355
    10  H    0.206795  -0.000629
    11  H    0.191154   0.000204
    12  H    0.136198   0.000857
    13  H    0.165587  -0.000689
    14  O   -0.346804   0.219322
    15  H    0.257332  -0.001136
 Sum of Mulliken charges =  -0.00000   1.00000

 Dipole moment (field-independent basis, Debye):
    X=             -0.7360    Y=             -2.9069    Z=              0.7789  Tot=              3.0981
 Quadrupole moment (field-independent basis, Debye-Ang):
   XX=            -45.1919   YY=            -57.8705   ZZ=            -43.8423
   XY=             -7.3724   XZ=             -1.2699   YZ=             -1.5032

  Exact polarizability:  78.494   7.732  78.137  -0.658   2.862  59.685
 Approx polarizability:  85.767  14.476  95.449  -1.517   4.808  71.774

 ******    1 imaginary frequencies (negative Signs) ******

                      1                      2                      3
                      A                      A                      A
 Frequencies --   -341.4255                77.4078                98.3683
 Red. masses --     10.4457                 3.8645                 4.9202
 Frc consts  --      0.7174                 0.0136                 0.0281
 IR Inten    --     49.6250                 2.1947                 0.9821

                      4                      5                      6
                      A                      A                      A
 Frequencies --    136.3405               157.0602               203.1223
 Red. masses --      5.8677                 3.9661                 1.0964
 Frc consts  --      0.0643                 0.0576                 0.0267
 IR Inten    --      5.5010                 3.1549               104.9447

                      7                      8                      9
                      A                      A                      A
 Frequencies --    219.5346               299.0335               359.4479
 Red. masses --      1.1493                 2.9776                 2.7444
 Frc consts  --      0.0326                 0.1569                 0.2089
 IR Inten    --      2.1771                 8.5757                 4.5454

                     10                     11                     12
                      A                      A                      A
 Frequencies --    400.9155               423.5979               566.9986
 Red. masses --      5.3022                 4.2947                 5.1050
 Frc consts  --      0.5021                 0.4540                 0.9670
 IR Inten    --      2.2425                 4.0875                23.9665

                     13                     14                     15
                      A                      A                      A
 Frequencies --    610.8356               724.5118               757.6615
 Red. masses --      7.1977                11.4246                 4.3763
 Frc consts  --      1.5823                 3.5333                 1.4802
 IR Inten    --      2.9725                21.1556                 2.2817

                     16                     17                     18
                      A                      A                      A
 Frequencies --    772.2740               818.4481               948.5137
 Red. masses --      1.3379                 1.1498                 2.2491
 Frc consts  --      0.4701                 0.4538                 1.1922
 IR Inten    --     25.5117                 4.1402                 7.4830

                     19                     20                     21
                      A                      A                      A
 Frequencies --   1056.5180              1096.9695              1123.1883
 Red. masses --      1.1535                 3.0582                 1.7737
 Frc consts  --      0.7586                 2.1682                 1.3184
 IR Inten    --     30.6560                56.0761                28.3197

                     22                     23                     24
                      A                      A                      A
 Frequencies --   1135.5716              1178.5435              1258.0451
 Red. masses --      1.5373                 1.8499                 2.8784
 Frc consts  --      1.1680                 1.5139                 2.6840
 IR Inten    --     34.9088                61.6780               327.6077

                     25                     26                     27
                      A                      A                      A
 Frequencies --   1355.8947              1406.3629              1435.5952
 Red. masses --      1.2512                 1.2542                 1.3474
 Frc consts  --      1.3553                 1.4615                 1.6361
 IR Inten    --    101.9131                16.9580                16.7284

                     28                     29                     30
                      A                      A                      A
 Frequencies --   1492.1710              1501.9089              1536.1792
 Red. masses --      1.0403                 1.0487                 1.0936
 Frc consts  --      1.3647                 1.3937                 1.5205
 IR Inten    --      4.2344                 2.0914                 9.2642

                     31                     32                     33
                      A                      A                      A
 Frequencies --   1800.6274              1856.4513              3071.4527
 Red. masses --     12.8413                 8.2040                 1.0357
 Frc consts  --     24.5306                16.6587                 5.7564
 IR Inten    --    449.4418                74.3406                 6.9130

                     34                     35                     36
                      A                      A                      A
 Frequencies --   3094.9878              3141.1135              3152.5053
 Red. masses --      1.0639                 1.1034                 1.1013
 Frc consts  --      6.0041                 6.4141                 6.4488
 IR Inten    --     10.2591                 3.8302                12.6141

                     37                     38                     39
                      A                      A                      A
 Frequencies --   3164.9240              3286.0726              3856.1501
 Red. masses --      1.1059                 1.1096                 1.0678
 Frc consts  --      6.5265                 7.0592                 9.3549
 IR Inten    --     17.4923                12.3419                71.7483

 - Thermochemistry -
 -------------------
 Temperature   298.150 Kelvin.  Pressure   1.00000 Atm.
 Atom     1 has atomic number  6 and mass  12.00000

 Molecular mass:   115.03952 amu.
 Principal axes and moments of inertia in atomic units:
                           1         2         3
     Eigenvalues --   813.523111039.774361541.03075
           X            0.98768  -0.15623   0.00917
           Y            0.15637   0.98756  -0.01677
           Z           -0.00644   0.01800   0.99982
 This molecule is an asymmetric top.
 Rotational symmetry number  1.
 Warning -- assumption of classical behavior for rotation
           may cause significant error
 Rotational temperatures (Kelvin)      0.10647     0.08330     0.05621
 Rotational constants (GHZ):           2.21843     1.73570     1.17113
    1 imaginary frequencies ignored.
 Zero-point vibrational energy     296526.2 (Joules/Mol)
                                   70.87146 (Kcal/Mol)
 Warning -- explicit consideration of  12 degrees of freedom as
           vibrations may cause significant error
 Vibrational temperatures:    111.37   141.53   196.16   225.97   292.25
          (Kelvin)            315.86   430.24   517.17   576.83   609.46
                              815.78   878.86  1042.41  1090.11  1111.13
                             1177.56  1364.70  1520.09  1578.29  1616.02
                             1633.83  1695.66  1810.05  1950.83  2023.44
                             2065.50  2146.90  2160.91  2210.22  2590.70
                             2671.02  4419.14  4453.00  4519.36  4535.75
                             4553.62  4727.93  5548.14

 Zero-point correction=                           0.112941 (Hartree/Particle)
 Thermal correction to Energy=                    0.121946
 Thermal correction to Enthalpy=                  0.122890
 Thermal correction to Gibbs Free Energy=         0.078262
 Sum of electronic and zero-point Energies=           -419.3697938
 Sum of electronic and thermal Energies=              -420.101463
 Sum of electronic and thermal Enthalpies=            -420.100519
 Sum of electronic and thermal Free Energies=         -420.145147

                     E (Thermal)             CV                S
                      KCal/Mol        Cal/Mol-Kelvin    Cal/Mol-Kelvin
 Total                   76.522             30.913             93.928
 Electronic               0.000              0.000              1.377
 Translational            0.889              2.981             40.136
 Rotational               0.889              2.981             28.657
 Vibrational             74.745             24.951             23.758
 Vibration     1          0.599              1.964              3.956
 Vibration     2          0.604              1.950              3.486
 Vibration     3          0.614              1.917              2.855
 Vibration     4          0.621              1.895              2.585
 Vibration     5          0.639              1.835              2.105
 Vibration     6          0.647              1.811              1.963
 Vibration     7          0.692              1.676              1.422
 Vibration     8          0.734              1.556              1.124
 Vibration     9          0.767              1.468              0.959
 Vibration    10          0.786              1.419              0.880
 Vibration    11          0.923              1.103              0.510
 Vibration    12          0.970              1.009              0.431

 Normal termination of Gaussian 16 at Sat Mar 29 00:29:45 2025.
