 Gaussian 16, Revision A.03,
 Gaussian 16:  ES64L-G16RevA.03 25-Dec-2016

 --------------------------
 # ccsd(t)/6-311++g(d,p) sp
 --------------------------

 -------------------
 Title Card Required
 -------------------
 Symbolic Z-matrix:
 Charge =  0 Multiplicity = 2

                         Standard orientation:
 ---------------------------------------------------------------------
 Center     Atomic      Atomic             Coordinates (Angstroms)
 Number     Number       Type             X           Y           Z
 ---------------------------------------------------------------------
      1          6           0       -1.808127   -0.114444    0.954970
      2          1           0       -2.593935   -0.525099    1.547675
      3          6           0       -0.826624    0.489558    0.566600
      4          6           0        0.312176    1.198924   -0.021922
      5          8           0        0.380852    2.392685    0.011734
      6          8           0        1.250741    0.451875   -0.600180
      7          6           0        1.167742   -0.989865   -0.591101
      8          6           0        1.737361   -1.553160    0.695324
      9          1           0        0.134455   -1.301601   -0.757631
     10          1           0        1.765113   -1.288124   -1.451080
     11          1           0        2.761160   -1.206173    0.841400
     12          1           0        1.137904   -1.253477    1.556918
     13          1           0        1.741760   -2.643848    0.648085
     14          8           0       -2.367114   -1.056206   -0.750957
     15          1           0       -2.557460   -0.274593   -1.293364
 ---------------------------------------------------------------------

 SCF Done:  E(UHF) =  -417.971285532     A.U. after   39 cycles
 E2 =    -0.1257657457D+01 EUMP2 =    -0.41922894298871D+03
 CCSD(T)= -0.41934698622D+03

 The electronic state is 2-A.
 Alpha  occ. eigenvalues --  -20.63689 -20.61034 -20.56369 -11.41253 -11.30277
 Alpha  occ. eigenvalues --  -11.28062 -11.27558 -11.23363  -1.47896  -1.39428
 Alpha  occ. eigenvalues --   -1.38943  -1.09127  -1.05033  -0.91508  -0.87470
 Alpha  occ. eigenvalues --   -0.76025  -0.73607  -0.70116  -0.68372  -0.67253
 Alpha  occ. eigenvalues --   -0.65728  -0.63539  -0.59014  -0.56597  -0.56016
 Alpha  occ. eigenvalues --   -0.54883  -0.51053  -0.48819  -0.47185  -0.44071
 Alpha  occ. eigenvalues --   -0.42748
 Alpha virt. eigenvalues --    0.03511   0.04571   0.04967   0.06631   0.06935
 Alpha virt. eigenvalues --    0.08197   0.09546   0.10536   0.10945   0.11958
 Alpha virt. eigenvalues --    0.13265   0.14080   0.14419   0.15196   0.15540

  Beta  occ. eigenvalues --  -20.61114 -20.59878 -20.55536 -11.41766 -11.30268
  Beta  occ. eigenvalues --  -11.29405 -11.25900 -11.23363  -1.47603  -1.37706
  Beta  occ. eigenvalues --   -1.25801  -1.07122  -1.05023  -0.91907  -0.87619
  Beta  occ. eigenvalues --   -0.75730  -0.73496  -0.69283  -0.66638  -0.64853
  Beta  occ. eigenvalues --   -0.63136  -0.58300  -0.55157  -0.54758  -0.52272
  Beta  occ. eigenvalues --   -0.50466  -0.47463  -0.46516  -0.43786  -0.43609
  Beta virt. eigenvalues --    0.03160   0.04271   0.04565   0.06118   0.06666
  Beta virt. eigenvalues --    0.07182   0.08445   0.10011   0.10604   0.12056
  Beta virt. eigenvalues --    0.12199   0.13466   0.14149   0.14552   0.15235

 Mulliken charges and spin densities:
               1          2
     1  C   -1.183411  -0.843125
     2  H    0.275197   0.062819
     3  C    1.322392   0.943657
     4  C   -0.063572  -0.196314
     5  O   -0.321744   0.177236
     6  O   -0.150065  -0.002614
     7  C   -0.253344  -0.000838
     8  C   -0.437159   0.004983
     9  H    0.190887  -0.001293
    10  H    0.177269   0.000287
    11  H    0.172622  -0.000357
    12  H    0.117192  -0.002929
    13  H    0.134899   0.000313
    14  O   -0.218414   0.886594
    15  H    0.237252  -0.028419
 Sum of Mulliken charges =  -0.00000   1.00000

 Dipole moment (field-independent basis, Debye):
    X=             -1.5710    Y=             -3.7173    Z=              0.1734  Tot=              4.0394
 Quadrupole moment (field-independent basis, Debye-Ang):
   XX=            -42.9374   YY=            -58.0981   ZZ=            -43.6557
   XY=             -6.0863   XZ=              0.3696   YZ=             -0.9611

 9.2923465\CCSD(T)=-419.3469862\S2=1.017487\S2-1=0.944394\S2A=0.798386\
 Normal termination of Gaussian 16 at Sun May 11 21:02:48 2025.
