 Gaussian 16, Revision A.03,
 Gaussian 16:  ES64L-G16RevA.03 25-Dec-2016

 --------------------------
 # ccsd(t)/6-311++g(d,p) sp
 --------------------------

 -------------------
 Title Card Required
 -------------------
 Symbolic Z-matrix:
 Charge =  0 Multiplicity = 2

                         Standard orientation:
 ---------------------------------------------------------------------
 Center     Atomic      Atomic             Coordinates (Angstroms)
 Number     Number       Type             X           Y           Z
 ---------------------------------------------------------------------
      1          6           0       -1.850986   -0.210233    0.813946
      2          1           0       -2.554759   -0.545920    1.554462
      3          6           0       -0.827532    0.479442    0.579745
      4          6           0        0.298134    1.200066   -0.003089
      5          8           0        0.354844    2.396624    0.049056
      6          8           0        1.250247    0.472873   -0.585772
      7          6           0        1.180073   -0.969383   -0.599479
      8          6           0        1.748428   -1.546241    0.681626
      9          1           0        0.150334   -1.288329   -0.777899
     10          1           0        1.784870   -1.249446   -1.460355
     11          1           0        2.767670   -1.190784    0.838679
     12          1           0        1.141952   -1.265773    1.545029
     13          1           0        1.764181   -2.635980    0.618701
     14          8           0       -2.330616   -1.028468   -0.699292
     15          1           0       -2.538743   -0.273909   -1.267053
 ---------------------------------------------------------------------

 SCF Done:  E(UHF) =  -417.973013305     A.U. after   30 cycles
 E2 =    -0.1260248904D+01 EUMP2 =    -0.41923326220909D+03
 CCSD(T)= -0.41935808956D+03

 The electronic state is 2-A.
 Alpha  occ. eigenvalues --  -20.61487 -20.61089 -20.57318 -11.41202 -11.30521
 Alpha  occ. eigenvalues --  -11.30401 -11.29712 -11.23557  -1.48250  -1.39530
 Alpha  occ. eigenvalues --   -1.36937  -1.10547  -1.05181  -0.91922  -0.88035
 Alpha  occ. eigenvalues --   -0.76218  -0.73778  -0.70660  -0.67621  -0.66676
 Alpha  occ. eigenvalues --   -0.64081  -0.62662  -0.59325  -0.56857  -0.55142
 Alpha  occ. eigenvalues --   -0.54000  -0.51350  -0.49406  -0.47737  -0.44819
 Alpha  occ. eigenvalues --   -0.43378
 Alpha virt. eigenvalues --    0.03589   0.04584   0.05087   0.06667   0.06908
 Alpha virt. eigenvalues --    0.08215   0.09509   0.10682   0.10956   0.12134
 Alpha virt. eigenvalues --    0.13026   0.14095   0.14537   0.15105   0.15839

  Beta  occ. eigenvalues --  -20.61202 -20.58797 -20.56077 -11.41948 -11.32780
  Beta  occ. eigenvalues --  -11.30384 -11.26718 -11.23556  -1.47732  -1.37688
  Beta  occ. eigenvalues --   -1.28414  -1.06526  -1.05154  -0.92336  -0.87986
  Beta  occ. eigenvalues --   -0.75649  -0.73457  -0.69489  -0.66795  -0.64802
  Beta  occ. eigenvalues --   -0.63317  -0.58443  -0.55169  -0.54900  -0.51946
  Beta  occ. eigenvalues --   -0.50661  -0.48925  -0.47374  -0.44762  -0.43606
  Beta virt. eigenvalues --    0.02908   0.03690   0.04587   0.05652   0.06690
  Beta virt. eigenvalues --    0.07064   0.08527   0.10095   0.10590   0.12073
  Beta virt. eigenvalues --    0.12480   0.13193   0.14233   0.14469   0.15255

 Mulliken charges and spin densities:
               1          2
     1  C   -0.614080  -1.048733
     2  H    0.266099   0.074408
     3  C    0.909272   1.391799
     4  C   -0.159611  -0.261748
     5  O   -0.306298   0.267929
     6  O   -0.153075  -0.002102
     7  C   -0.249975  -0.011990
     8  C   -0.433262   0.010865
     9  H    0.190658   0.000447
    10  H    0.179083  -0.000394
    11  H    0.173905  -0.000469
    12  H    0.116101  -0.003428
    13  H    0.136557   0.000358
    14  O   -0.297682   0.601660
    15  H    0.242306  -0.018601
 Sum of Mulliken charges =  -0.00000   1.00000

 Dipole moment (field-independent basis, Debye):
    X=             -1.0215    Y=             -3.1846    Z=              0.6684  Tot=              3.4106
 Quadrupole moment (field-independent basis, Debye-Ang):
   XX=            -44.8726   YY=            -58.3249   ZZ=            -43.6199
   XY=             -7.2696   XZ=             -0.7819   YZ=             -1.3323

 3-0=-419.2862081\MP4SDQ=-419.2928507\CCSD=-419.3024302\CCSD(T)=-419.35
 Normal termination of Gaussian 16 at Sun May 11 21:52:09 2025.
