 Gaussian 16, Revision A.03,
 Gaussian 16:  ES64L-G16RevA.03 25-Dec-2016

 --------------------------
 # freq 6-311++g(d,p) m062x
 --------------------------

 -------------------
 Title Card Required
 -------------------
 Symbolic Z-matrix:
 Charge =  0 Multiplicity = 2

                         Standard orientation:
 ---------------------------------------------------------------------
 Center     Atomic      Atomic             Coordinates (Angstroms)
 Number     Number       Type             X           Y           Z
 ---------------------------------------------------------------------
      1          6           0       -1.747604    0.046383    1.138421
      2          1           0       -2.575810   -0.381109    1.654031
      3          6           0       -0.800513    0.532978    0.579970
      4          6           0        0.343141    1.191208   -0.061096
      5          8           0        0.444136    2.382203   -0.071451
      6          8           0        1.251868    0.401435   -0.632425
      7          6           0        1.134770   -1.035466   -0.573311
      8          6           0        1.708642   -1.572976    0.722302
      9          1           0        0.091856   -1.327288   -0.713779
     10          1           0        1.710643   -1.377400   -1.431829
     11          1           0        2.742584   -1.247067    0.843462
     12          1           0        1.128524   -1.231847    1.581450
     13          1           0        1.686167   -2.664438    0.708432
     14          8           0       -2.445341   -1.093894   -0.819753
     15          1           0       -2.619890   -0.261553   -1.290455
 ---------------------------------------------------------------------

 SCF Done:  E(UM062X) =  -420.202416551     A.U. after   24 cycles

 The electronic state is 2-A.
 Alpha  occ. eigenvalues --  -19.69076 -19.68297 -19.63032 -10.71025 -10.61034
 Alpha  occ. eigenvalues --  -10.58810 -10.58324 -10.54399  -1.25363  -1.16814
 Alpha  occ. eigenvalues --   -1.14676  -0.90325  -0.88467  -0.77555  -0.73965
 Alpha  occ. eigenvalues --   -0.64324  -0.62202  -0.58407  -0.56992  -0.56729
 Alpha  occ. eigenvalues --   -0.53166  -0.51380  -0.49585  -0.47308  -0.46015
 Alpha  occ. eigenvalues --   -0.44375  -0.42151  -0.39811  -0.38667  -0.37478
 Alpha  occ. eigenvalues --   -0.36200
 Alpha virt. eigenvalues --   -0.02344  -0.00917   0.00453   0.00809   0.02211
 Alpha virt. eigenvalues --    0.02335   0.03769   0.04374   0.05661   0.05981
 Alpha virt. eigenvalues --    0.06693   0.07825   0.08575   0.08978   0.09596

  Beta  occ. eigenvalues --  -19.68295 -19.67498 -19.63002 -10.71035 -10.61035
  Beta  occ. eigenvalues --  -10.58803 -10.58238 -10.54398  -1.25337  -1.16754
  Beta  occ. eigenvalues --   -1.07012  -0.89912  -0.88461  -0.77504  -0.73896
  Beta  occ. eigenvalues --   -0.64243  -0.62081  -0.58335  -0.56863  -0.53678
  Beta  occ. eigenvalues --   -0.53082  -0.49646  -0.47253  -0.45996  -0.42587
  Beta  occ. eigenvalues --   -0.40643  -0.40108  -0.39076  -0.37642  -0.36678
  Beta virt. eigenvalues --   -0.10221  -0.01953  -0.00644   0.00619   0.01062
  Beta virt. eigenvalues --    0.02334   0.02432   0.03941   0.04500   0.05843
  Beta virt. eigenvalues --    0.06081   0.06759   0.07925   0.08885   0.09071

 Mulliken charges and spin densities:
               1          2
     1  C   -1.805783  -0.000958
     2  H    0.218861   0.006758
     3  C    1.734814   0.075225
     4  C    0.052501  -0.008800
     5  O   -0.247260   0.013948
     6  O   -0.039716  -0.000433
     7  C   -0.360393   0.006189
     8  C   -0.432886  -0.000580
     9  H    0.203240  -0.002403
    10  H    0.203381   0.000501
    11  H    0.187902  -0.000204
    12  H    0.136191  -0.000531
    13  H    0.163428   0.000103
    14  O   -0.257542   0.928070
    15  H    0.243263  -0.016887
 Sum of Mulliken charges =  -0.00000   1.00000

 Dipole moment (field-independent basis, Debye):
    X=             -1.3723    Y=             -3.2310    Z=              0.4145  Tot=              3.5348
 Quadrupole moment (field-independent basis, Debye-Ang):
   XX=            -43.0023   YY=            -56.9573   ZZ=            -43.8528
   XY=             -6.4864   XZ=              0.0715   YZ=             -0.8261

  Exact polarizability:  76.788   5.389  76.128  -4.707   0.575  60.301
 Approx polarizability:  86.013  11.935  90.564 -10.827  -2.369  70.610

 ******    1 imaginary frequencies (negative Signs) ******

                      1                      2                      3
                      A                      A                      A
 Frequencies --    -27.5008                57.6136                77.0942
 Red. masses --      6.2980                10.1659                 3.9593
 Frc consts  --      0.0028                 0.0199                 0.0139
 IR Inten    --      5.9763                 6.6056                 0.5423

                      4                      5                      6
                      A                      A                      A
 Frequencies --    109.3215               171.3719               217.1415
 Red. masses --      3.4330                 3.0051                 3.4858
 Frc consts  --      0.0242                 0.0520                 0.0968
 IR Inten    --      0.4083                 3.8837                 5.2841

                      7                      8                      9
                      A                      A                      A
 Frequencies --    221.1769               229.5970               298.8624
 Red. masses --      1.2698                 1.4007                 3.1186
 Frc consts  --      0.0366                 0.0435                 0.1641
 IR Inten    --     75.3173                 1.0737                15.3237

                     10                     11                     12
                      A                      A                      A
 Frequencies --    359.7396               408.2961               497.9171
 Red. masses --      2.8286                 3.7044                 1.0518
 Frc consts  --      0.2157                 0.3638                 0.1536
 IR Inten    --      2.6531                 3.5541               131.6424

                     13                     14                     15
                      A                      A                      A
 Frequencies --    556.5490               632.0195               740.3987
 Red. masses --      5.1356                 5.9657                 1.2780
 Frc consts  --      0.9372                 1.4040                 0.4128
 IR Inten    --     14.7542                 1.4727                38.4593

                     16                     17                     18
                      A                      A                      A
 Frequencies --    755.9880               768.1609               786.6377
 Red. masses --      5.2664                 9.7117                 1.2384
 Frc consts  --      1.7734                 3.3764                 0.4515
 IR Inten    --      1.7076                18.0366                52.8328

                     19                     20                     21
                      A                      A                      A
 Frequencies --    816.6161               951.2589              1104.7432
 Red. masses --      1.1496                 2.2689                 3.6639
 Frc consts  --      0.4517                 1.2097                 2.6346
 IR Inten    --      4.6276                11.0105                53.4325

                     22                     23                     24
                      A                      A                      A
 Frequencies --   1129.3997              1180.5073              1264.5709
 Red. masses --      2.5077                 1.8855                 2.8884
 Frc consts  --      1.8846                 1.5482                 2.7214
 IR Inten    --     47.8070                56.9064               357.3135

                     25                     26                     27
                      A                      A                      A
 Frequencies --   1357.8823              1407.0971              1436.6059
 Red. masses --      1.2706                 1.2624                 1.3562
 Frc consts  --      1.3804                 1.4726                 1.6491
 IR Inten    --    116.2829                22.1542                17.0934

                     28                     29                     30
                      A                      A                      A
 Frequencies --   1492.5536              1503.1616              1533.9246
 Red. masses --      1.0408                 1.0473                 1.0972
 Frc consts  --      1.3661                 1.3942                 1.5210
 IR Inten    --      3.7982                 2.0750                12.3474

                     31                     32                     33
                      A                      A                      A
 Frequencies --   1858.8888              2228.3439              3072.6879
 Red. masses --     12.9571                 5.8191                 1.0354
 Frc consts  --     26.3795                17.0243                 5.7596
 IR Inten    --    501.8589                49.8206                 7.8057

                     34                     35                     36
                      A                      A                      A
 Frequencies --   3100.0743              3144.5323              3151.8286
 Red. masses --      1.0627                 1.1042                 1.1014
 Frc consts  --      6.0173                 6.4328                 6.4462
 IR Inten    --      8.9195                 1.6965                13.1056

                     37                     38                     39
                      A                      A                      A
 Frequencies --   3166.9388              3486.9240              3792.7090
 Red. masses --      1.1064                 1.1663                 1.0672
 Frc consts  --      6.5378                 8.3548                 9.0451
 IR Inten    --     18.2358                71.2371                34.2374

 - Thermochemistry -
 -------------------
 Temperature   298.150 Kelvin.  Pressure   1.00000 Atm.
 Atom     1 has atomic number  6 and mass  12.00000

 Molecular mass:   115.03952 amu.
 Principal axes and moments of inertia in atomic units:
                           1         2         3
     Eigenvalues --   875.433181099.200751562.21936
           X            0.98641  -0.16393   0.01103
           Y            0.16411   0.98627  -0.01866
           Z           -0.00782   0.02022   0.99977
 This molecule is an asymmetric top.
 Rotational symmetry number  1.
 Warning -- assumption of classical behavior for rotation
           may cause significant error
 Rotational temperatures (Kelvin)      0.09894     0.07880     0.05544
 Rotational constants (GHZ):           2.06154     1.64187     1.15524
    1 imaginary frequencies ignored.
 Zero-point vibrational energy     293498.6 (Joules/Mol)
                                   70.14785 (Kcal/Mol)
 Warning -- explicit consideration of  12 degrees of freedom as
           vibrations may cause significant error
 Vibrational temperatures:     82.89   110.92   157.29   246.57   312.42
          (Kelvin)            318.22   330.34   430.00   517.59   587.45
                              716.39   800.75   909.34  1065.27  1087.70
                             1105.21  1131.80  1174.93  1368.65  1589.48
                             1624.95  1698.49  1819.44  1953.69  2024.50
                             2066.96  2147.45  2162.71  2206.98  2674.53
                             3206.09  4420.91  4460.32  4524.28  4534.78
                             4556.52  5016.91  5456.86

 Zero-point correction=                           0.111788 (Hartree/Particle)
 Thermal correction to Energy=                    0.121343
 Thermal correction to Enthalpy=                  0.122287
 Thermal correction to Gibbs Free Energy=         0.076222
 Sum of electronic and zero-point Energies=           -419.3509087
 Sum of electronic and thermal Energies=              -420.081074
 Sum of electronic and thermal Enthalpies=            -420.080130
 Sum of electronic and thermal Free Energies=         -420.126195

                     E (Thermal)             CV                S
                      KCal/Mol        Cal/Mol-Kelvin    Cal/Mol-Kelvin
 Total                   76.144             32.561             96.953
 Electronic               0.000              0.000              1.377
 Translational            0.889              2.981             40.136
 Rotational               0.889              2.981             28.799
 Vibrational             74.366             26.599             26.641
 Vibration     1          0.596              1.974              4.537
 Vibration     2          0.599              1.964              3.964
 Vibration     3          0.606              1.942              3.281
 Vibration     4          0.626              1.878              2.420
 Vibration     5          0.646              1.815              1.983
 Vibration     6          0.648              1.809              1.949
 Vibration     7          0.652              1.796              1.882
 Vibration     8          0.692              1.676              1.423
 Vibration     9          0.734              1.555              1.123
 Vibration    10          0.773              1.452              0.933
 Vibration    11          0.853              1.255              0.663
 Vibration    12          0.912              1.125              0.531

 Normal termination of Gaussian 16 at Fri Mar 28 18:23:20 2025.
