 Gaussian 16, Revision A.03,
 Gaussian 16:  ES64L-G16RevA.03 25-Dec-2016

 --------------------------
 # ccsd(t)/6-311++g(d,p) sp
 --------------------------

 -------------------
 Title Card Required
 -------------------
 Symbolic Z-matrix:
 Charge =  0 Multiplicity = 2

                         Standard orientation:
 ---------------------------------------------------------------------
 Center     Atomic      Atomic             Coordinates (Angstroms)
 Number     Number       Type             X           Y           Z
 ---------------------------------------------------------------------
      1          6           0       -1.760071    0.012252    1.105150
      2          1           0       -2.586036   -0.424097    1.616555
      3          6           0       -0.808687    0.521331    0.573088
      4          6           0        0.335074    1.193228   -0.052435
      5          8           0        0.428473    2.384937   -0.051451
      6          8           0        1.252179    0.413862   -0.624657
      7          6           0        1.143787   -1.024353   -0.577568
      8          6           0        1.715777   -1.567913    0.716330
      9          1           0        0.103417   -1.321709   -0.724666
     10          1           0        1.725592   -1.355787   -1.436196
     11          1           0        2.747227   -1.236640    0.843987
     12          1           0        1.130252   -1.236527    1.575657
     13          1           0        1.699954   -2.659357    0.694540
     14          8           0       -2.427552   -1.087299   -0.806672
     15          1           0       -2.600491   -0.265151   -1.295022
 ---------------------------------------------------------------------

 SCF Done:  E(UHF) =  -417.981775631     A.U. after   40 cycles
 E2 =    -0.1262554304D+01 EUMP2 =    -0.41924432993481D+03
 CCSD(T)= -0.41935005131D+03

 The electronic state is 2-A.
 Alpha  occ. eigenvalues --  -20.64521 -20.61134 -20.55957 -11.41495 -11.30282
 Alpha  occ. eigenvalues --  -11.27508 -11.27128 -11.23309  -1.47802  -1.40060
 Alpha  occ. eigenvalues --   -1.38616  -1.08405  -1.05011  -0.91552  -0.87421
 Alpha  occ. eigenvalues --   -0.75886  -0.73391  -0.69856  -0.69120  -0.67506
 Alpha  occ. eigenvalues --   -0.66401  -0.63403  -0.58758  -0.57169  -0.55918
 Alpha  occ. eigenvalues --   -0.54824  -0.50977  -0.48500  -0.46832  -0.43666
 Alpha  occ. eigenvalues --   -0.42661
 Alpha virt. eigenvalues --    0.03428   0.04551   0.04970   0.06598   0.06946
 Alpha virt. eigenvalues --    0.07956   0.09589   0.09991   0.10845   0.11743
 Alpha virt. eigenvalues --    0.13138   0.14099   0.14337   0.15166   0.15717

  Beta  occ. eigenvalues --  -20.61180 -20.60431 -20.55506 -11.41772 -11.30278
  Beta  occ. eigenvalues --  -11.28273 -11.26167 -11.23309  -1.47658  -1.37948
  Beta  occ. eigenvalues --   -1.24714  -1.07420  -1.05008  -0.91798  -0.87549
  Beta  occ. eigenvalues --   -0.75772  -0.73419  -0.69345  -0.66656  -0.64856
  Beta  occ. eigenvalues --   -0.63173  -0.58371  -0.55342  -0.54774  -0.52452
  Beta  occ. eigenvalues --   -0.50564  -0.47748  -0.46346  -0.43474  -0.43209
  Beta virt. eigenvalues --    0.03269   0.04522   0.04565   0.06479   0.06722
  Beta virt. eigenvalues --    0.07490   0.08209   0.09855   0.10317   0.11517
  Beta virt. eigenvalues --    0.11973   0.13276   0.14118   0.14639   0.15366

 Mulliken charges and spin densities:
               1          2
     1  C   -2.419096  -0.404261
     2  H    0.236393   0.041142
     3  C    2.326507   0.438750
     4  C    0.198675  -0.114388
     5  O   -0.333486   0.095537
     6  O   -0.146905  -0.001879
     7  C   -0.245474   0.002915
     8  C   -0.441032   0.002424
     9  H    0.190832  -0.003180
    10  H    0.178478   0.000180
    11  H    0.169814  -0.000246
    12  H    0.122176  -0.001999
    13  H    0.134778   0.000214
    14  O   -0.209052   0.977204
    15  H    0.237391  -0.032413
 Sum of Mulliken charges =  -0.00000   1.00000

 Dipole moment (field-independent basis, Debye):
    X=             -1.8279    Y=             -3.8106    Z=              0.1605  Tot=              4.2294
 Quadrupole moment (field-independent basis, Debye-Ang):
   XX=            -42.2947   YY=            -58.1209   ZZ=            -43.7228
   XY=             -6.1322   XZ=              0.6737   YZ=             -0.7130

 1\PMP3-0=-419.2767568\MP4SDQ=-419.2962052\CCSD=-419.2969468\CCSD(T)=-4
 Normal termination of Gaussian 16 at Sun May 11 09:54:55 2025.
