 Gaussian 16, Revision A.03,
 Gaussian 16:  ES64L-G16RevA.03 25-Dec-2016

 --------------------------
 # freq 6-311++g(d,p) m062x
 --------------------------

 -------------------
 Title Card Required
 -------------------
 Symbolic Z-matrix:
 Charge =  0 Multiplicity = 2

                         Standard orientation:
 ---------------------------------------------------------------------
 Center     Atomic      Atomic             Coordinates (Angstroms)
 Number     Number       Type             X           Y           Z
 ---------------------------------------------------------------------
      1          6           0       -1.861418   -0.235472    0.773600
      2          1           0       -2.538982   -0.549866    1.550855
      3          6           0       -0.827952    0.476919    0.585441
      4          6           0        0.293541    1.200131    0.001368
      5          8           0        0.348081    2.397504    0.057851
      6          8           0        1.250086    0.478068   -0.582543
      7          6           0        1.183189   -0.963842   -0.601620
      8          6           0        1.751512   -1.544179    0.678022
      9          1           0        0.154606   -1.285175   -0.782605
     10          1           0        1.789476   -1.239902   -1.462801
     11          1           0        2.769581   -1.186399    0.837371
     12          1           0        1.143517   -1.268268    1.541839
     13          1           0        1.770361   -2.633662    0.611365
     14          8           0       -2.321541   -1.020876   -0.682527
     15          1           0       -2.534806   -0.275637   -1.259142
 ---------------------------------------------------------------------

 SCF Done:  E(UM062X) =  -420.218844917     A.U. after   19 cycles

 The electronic state is 2-A.
 Alpha  occ. eigenvalues --  -19.68427 -19.65892 -19.63439 -10.71194 -10.64365
 Alpha  occ. eigenvalues --  -10.61322 -10.61212 -10.54662  -1.25598  -1.17149
 Alpha  occ. eigenvalues --   -1.12660  -0.92141  -0.88672  -0.78464  -0.74970
 Alpha  occ. eigenvalues --   -0.64757  -0.62921  -0.58898  -0.57572  -0.55852
 Alpha  occ. eigenvalues --   -0.53508  -0.51145  -0.48993  -0.47643  -0.46230
 Alpha  occ. eigenvalues --   -0.42877  -0.42065  -0.39590  -0.38887  -0.37223
 Alpha  occ. eigenvalues --   -0.32743
 Alpha virt. eigenvalues --   -0.01751  -0.00824   0.00451   0.00562   0.02286
 Alpha virt. eigenvalues --    0.02423   0.04222   0.04309   0.05685   0.05985
 Alpha virt. eigenvalues --    0.06611   0.07854   0.08217   0.08943   0.09353

  Beta  occ. eigenvalues --  -19.68420 -19.65353 -19.63190 -10.71269 -10.64519
  Beta  occ. eigenvalues --  -10.61207 -10.60731 -10.54662  -1.25377  -1.16645
  Beta  occ. eigenvalues --   -1.10753  -0.89696  -0.88639  -0.78085  -0.74591
  Beta  occ. eigenvalues --   -0.64362  -0.62363  -0.58493  -0.56689  -0.54670
  Beta  occ. eigenvalues --   -0.53204  -0.49745  -0.47446  -0.46306  -0.45509
  Beta  occ. eigenvalues --   -0.42638  -0.40584  -0.38672  -0.37753  -0.36248
  Beta virt. eigenvalues --   -0.11001  -0.00872  -0.00544   0.00628   0.00893
  Beta virt. eigenvalues --    0.02433   0.02576   0.04309   0.04903   0.05943
  Beta virt. eigenvalues --    0.06159   0.06694   0.08043   0.08399   0.08969

 Mulliken charges and spin densities:
               1          2
     1  C   -0.373972  -0.196291
     2  H    0.244441   0.024011
     3  C    0.615422   0.815916
     4  C   -0.198818  -0.032615
     5  O   -0.248166   0.124425
     6  O   -0.042667   0.009073
     7  C   -0.350553  -0.017178
     8  C   -0.441339   0.006878
     9  H    0.193602   0.008312
    10  H    0.206541  -0.000471
    11  H    0.191300   0.000192
    12  H    0.135155   0.000459
    13  H    0.165871  -0.000644
    14  O   -0.349993   0.259702
    15  H    0.253174  -0.001770
 Sum of Mulliken charges =  -0.00000   1.00000

 Dipole moment (field-independent basis, Debye):
    X=             -0.6857    Y=             -2.8596    Z=              0.8481  Tot=              3.0605
 Quadrupole moment (field-independent basis, Debye-Ang):
   XX=            -45.2677   YY=            -57.8106   ZZ=            -43.8210
   XY=             -7.4350   XZ=             -1.4381   YZ=             -1.5353

  Exact polarizability:  79.024   8.169  78.533  -0.217   3.296  60.271
 Approx polarizability:  86.490  15.164  96.164  -1.130   5.349  72.512

 ******    1 imaginary frequencies (negative Signs) ******

                      1                      2                      3
                      A                      A                      A
 Frequencies --   -463.3240                77.4416                97.8109
 Red. masses --     11.5408                 3.8616                 5.0386
 Frc consts  --      1.4597                 0.0136                 0.0284
 IR Inten    --     37.7840                 1.9074                 1.0488

                      4                      5                      6
                      A                      A                      A
 Frequencies --    135.2794               155.6598               211.5110
 Red. masses --      5.7265                 4.1235                 1.0782
 Frc consts  --      0.0617                 0.0589                 0.0284
 IR Inten    --      5.1017                 3.5969                96.3485

                      7                      8                      9
                      A                      A                      A
 Frequencies --    219.6741               291.4999               358.2184
 Red. masses --      1.1505                 3.0492                 2.7558
 Frc consts  --      0.0327                 0.1527                 0.2083
 IR Inten    --      6.4752                 8.9013                 4.3321

                     10                     11                     12
                      A                      A                      A
 Frequencies --    394.5455               417.7029               564.5808
 Red. masses --      6.1373                 3.7994                 5.1940
 Frc consts  --      0.5629                 0.3906                 0.9755
 IR Inten    --      2.1765                 4.3855                23.6912

                     13                     14                     15
                      A                      A                      A
 Frequencies --    610.4108               725.1712               757.3172
 Red. masses --      7.0539                11.4864                 4.3248
 Frc consts  --      1.5486                 3.5589                 1.4614
 IR Inten    --      2.3600                20.7473                 1.8784

                     16                     17                     18
                      A                      A                      A
 Frequencies --    764.4800               818.5798               948.6314
 Red. masses --      1.3360                 1.1483                 2.2468
 Frc consts  --      0.4600                 0.4534                 1.1913
 IR Inten    --     27.2116                 4.1695                 7.8177

                     19                     20                     21
                      A                      A                      A
 Frequencies --   1030.1802              1091.5732              1110.8391
 Red. masses --      1.1483                 1.8295                 1.6734
 Frc consts  --      0.7180                 1.2843                 1.2166
 IR Inten    --     36.4149                49.3515                25.1137

                     22                     23                     24
                      A                      A                      A
 Frequencies --   1127.4505              1178.0305              1258.3182
 Red. masses --      2.4062                 1.9044                 2.8954
 Frc consts  --      1.8021                 1.5571                 2.7011
 IR Inten    --     36.8524                67.0346               329.0080

                     25                     26                     27
                      A                      A                      A
 Frequencies --   1356.3808              1406.5549              1435.9538
 Red. masses --      1.2535                 1.2544                 1.3471
 Frc consts  --      1.3587                 1.4622                 1.6365
 IR Inten    --    102.5614                17.4034                16.5531

                     28                     29                     30
                      A                      A                      A
 Frequencies --   1492.2159              1501.9271              1536.4121
 Red. masses --      1.0403                 1.0488                 1.0936
 Frc consts  --      1.3648                 1.3939                 1.5210
 IR Inten    --      4.2562                 2.1188                 9.2450

                     31                     32                     33
                      A                      A                      A
 Frequencies --   1804.2055              1870.0845              3071.5120
 Red. masses --     12.8441                 7.9154                 1.0357
 Frc consts  --     24.6335                16.3096                 5.7567
 IR Inten    --    450.4140                71.4026                 6.8957

                     34                     35                     36
                      A                      A                      A
 Frequencies --   3094.8114              3141.2624              3152.6405
 Red. masses --      1.0640                 1.1033                 1.1013
 Frc consts  --      6.0042                 6.4145                 6.4494
 IR Inten    --     10.2270                 3.9748                12.3366

                     37                     38                     39
                      A                      A                      A
 Frequencies --   3165.1415              3301.5157              3852.8514
 Red. masses --      1.1058                 1.1128                 1.0678
 Frc consts  --      6.5273                 7.1464                 9.3393
 IR Inten    --     17.2635                15.8781                70.5664

 - Thermochemistry -
 -------------------
 Temperature   298.150 Kelvin.  Pressure   1.00000 Atm.
 Atom     1 has atomic number  6 and mass  12.00000

 Molecular mass:   115.03952 amu.
 Principal axes and moments of inertia in atomic units:
                           1         2         3
     Eigenvalues --   816.021501042.141561541.77931
           X            0.98765  -0.15637   0.00922
           Y            0.15651   0.98753  -0.01689
           Z           -0.00646   0.01813   0.99981
 This molecule is an asymmetric top.
 Rotational symmetry number  1.
 Warning -- assumption of classical behavior for rotation
           may cause significant error
 Rotational temperatures (Kelvin)      0.10614     0.08311     0.05618
 Rotational constants (GHZ):           2.21163     1.73176     1.17056
    1 imaginary frequencies ignored.
 Zero-point vibrational energy     296245.5 (Joules/Mol)
                                   70.80437 (Kcal/Mol)
 Warning -- explicit consideration of  12 degrees of freedom as
           vibrations may cause significant error
 Vibrational temperatures:    111.42   140.73   194.64   223.96   304.32
          (Kelvin)            316.06   419.40   515.40   567.66   600.98
                              812.31   878.25  1043.36  1089.61  1099.92
                             1177.75  1364.87  1482.20  1570.53  1598.25
                             1622.15  1694.92  1810.44  1951.53  2023.72
                             2066.02  2146.97  2160.94  2210.55  2595.85
                             2690.63  4419.22  4452.74  4519.58  4535.95
                             4553.93  4750.14  5543.39

 Zero-point correction=                           0.112834 (Hartree/Particle)
 Thermal correction to Energy=                    0.121863
 Thermal correction to Enthalpy=                  0.122807
 Thermal correction to Gibbs Free Energy=         0.078136
 Sum of electronic and zero-point Energies=           -419.3656211
 Sum of electronic and thermal Energies=              -420.096982
 Sum of electronic and thermal Enthalpies=            -420.096038
 Sum of electronic and thermal Free Energies=         -420.140709

                     E (Thermal)             CV                S
                      KCal/Mol        Cal/Mol-Kelvin    Cal/Mol-Kelvin
 Total                   76.470             31.011             94.019
 Electronic               0.000              0.000              1.377
 Translational            0.889              2.981             40.136
 Rotational               0.889              2.981             28.663
 Vibrational             74.693             25.049             23.844
 Vibration     1          0.599              1.964              3.955
 Vibration     2          0.603              1.951              3.497
 Vibration     3          0.613              1.918              2.870
 Vibration     4          0.620              1.896              2.602
 Vibration     5          0.643              1.823              2.031
 Vibration     6          0.647              1.811              1.962
 Vibration     7          0.687              1.690              1.465
 Vibration     8          0.733              1.558              1.130
 Vibration     9          0.762              1.482              0.983
 Vibration    10          0.781              1.432              0.900
 Vibration    11          0.920              1.108              0.515
 Vibration    12          0.969              1.010              0.432

 Normal termination of Gaussian 16 at Sat Mar 29 00:17:28 2025.
