 Gaussian 16, Revision A.03,
 Gaussian 16:  ES64L-G16RevA.03 25-Dec-2016

 --------------------------
 # ccsd(t)/6-311++g(d,p) sp
 --------------------------

 -------------------
 Title Card Required
 -------------------
 Symbolic Z-matrix:
 Charge =  0 Multiplicity = 2

                         Standard orientation:
 ---------------------------------------------------------------------
 Center     Atomic      Atomic             Coordinates (Angstroms)
 Number     Number       Type             X           Y           Z
 ---------------------------------------------------------------------
      1          6           0       -1.866026   -0.247781    0.753448
      2          1           0       -2.530952   -0.552388    1.547036
      3          6           0       -0.828548    0.475383    0.588459
      4          6           0        0.291054    1.200183    0.003520
      5          8           0        0.344612    2.397910    0.062061
      6          8           0        1.249947    0.480678   -0.581023
      7          6           0        1.184773   -0.961006   -0.602672
      8          6           0        1.753167   -1.543015    0.676230
      9          1           0        0.156825   -1.283657   -0.784829
     10          1           0        1.791745   -1.235145   -1.464021
     11          1           0        2.770642   -1.184014    0.836614
     12          1           0        1.144449   -1.269313    1.540237
     13          1           0        1.773631   -2.632367    0.607777
     14          8           0       -2.317066   -1.017157   -0.673696
     15          1           0       -2.532811   -0.277143   -1.255460
 ---------------------------------------------------------------------

 SCF Done:  E(UHF) =  -417.984303972     A.U. after   30 cycles
 E2 =    -0.1266343019D+01 EUMP2 =    -0.41925064699095D+03
 CCSD(T)= -0.41936979383D+03

 The electronic state is 2-A.
 Alpha  occ. eigenvalues --  -20.61068 -20.60490 -20.57542 -11.41120 -11.32205
 Alpha  occ. eigenvalues --  -11.30430 -11.30244 -11.23604  -1.48277  -1.39614
 Alpha  occ. eigenvalues --   -1.35970  -1.10946  -1.05201  -0.92143  -0.88277
 Alpha  occ. eigenvalues --   -0.76377  -0.73874  -0.70783  -0.67744  -0.66449
 Alpha  occ. eigenvalues --   -0.64112  -0.61811  -0.59100  -0.56971  -0.55163
 Alpha  occ. eigenvalues --   -0.53143  -0.51382  -0.49470  -0.47840  -0.44804
 Alpha  occ. eigenvalues --   -0.43222
 Alpha virt. eigenvalues --    0.03591   0.04582   0.05105   0.06677   0.06886
 Alpha virt. eigenvalues --    0.08224   0.09496   0.10652   0.10954   0.12177
 Alpha virt. eigenvalues --    0.12937   0.14095   0.14606   0.15101   0.15942

  Beta  occ. eigenvalues --  -20.61184 -20.58749 -20.56201 -11.41911 -11.34258
  Beta  occ. eigenvalues --  -11.30411 -11.26989 -11.23602  -1.47681  -1.37619
  Beta  occ. eigenvalues --   -1.30879  -1.06008  -1.05161  -0.92378  -0.88040
  Beta  occ. eigenvalues --   -0.75619  -0.73375  -0.69525  -0.66771  -0.65362
  Beta  occ. eigenvalues --   -0.63356  -0.58487  -0.55309  -0.54920  -0.52915
  Beta  occ. eigenvalues --   -0.51709  -0.50069  -0.47366  -0.44856  -0.43253
  Beta virt. eigenvalues --    0.02829   0.03610   0.04607   0.05566   0.06687
  Beta virt. eigenvalues --    0.07043   0.08554   0.10104   0.10557   0.11993
  Beta virt. eigenvalues --    0.12560   0.13127   0.14179   0.14536   0.15157

 Mulliken charges and spin densities:
               1          2
     1  C   -0.502031  -0.958361
     2  H    0.250366   0.075078
     3  C    0.856273   1.495040
     4  C   -0.173574  -0.262655
     5  O   -0.302623   0.291452
     6  O   -0.154949  -0.001309
     7  C   -0.242998  -0.017882
     8  C   -0.433495   0.013897
     9  H    0.186796   0.001022
    10  H    0.179772  -0.000796
    11  H    0.174052  -0.000428
    12  H    0.117225  -0.003289
    13  H    0.136950   0.000223
    14  O   -0.341972   0.380114
    15  H    0.250210  -0.012105
 Sum of Mulliken charges =  -0.00000   1.00000

 Dipole moment (field-independent basis, Debye):
    X=             -0.8892    Y=             -3.0322    Z=              0.8071  Tot=              3.2614
 Quadrupole moment (field-independent basis, Debye-Ang):
   XX=            -45.4495   YY=            -58.4987   ZZ=            -43.6925
   XY=             -7.6725   XZ=             -1.0929   YZ=             -1.4683

 MP3-0=-419.2971575\MP4SDQ=-419.3077727\CCSD=-419.3146732\CCSD(T)=-419.
 Normal termination of Gaussian 16 at Sun May 11 06:27:11 2025.
