 Gaussian 16, Revision A.03,
 Gaussian 16:  ES64L-G16RevA.03 25-Dec-2016

 --------------------------
 # ccsd(t)/6-311++g(d,p) sp
 --------------------------

 -------------------
 Title Card Required
 -------------------
 Symbolic Z-matrix:
 Charge =  0 Multiplicity = 2

                         Standard orientation:
 ---------------------------------------------------------------------
 Center     Atomic      Atomic             Coordinates (Angstroms)
 Number     Number       Type             X           Y           Z
 ---------------------------------------------------------------------
      1          6           0       -1.766102   -0.004529    1.087861
      2          1           0       -2.590160   -0.443484    1.600028
      3          6           0       -0.812208    0.515967    0.570403
      4          6           0        0.331369    1.194170   -0.048170
      5          8           0        0.421145    2.386178   -0.042045
      6          8           0        1.252136    0.419653   -0.621021
      7          6           0        1.147742   -1.019138   -0.579567
      8          6           0        1.719138   -1.565550    0.713381
      9          1           0        0.108533   -1.318968   -0.729615
     10          1           0        1.732124   -1.345636   -1.438331
     11          1           0        2.749425   -1.231780    0.843882
     12          1           0        1.131289   -1.238778    1.572908
     13          1           0        1.706443   -2.656951    0.687873
     14          8           0       -2.418912   -1.083731   -0.799900
     15          1           0       -2.592238   -0.266720   -1.296460
 ---------------------------------------------------------------------

 SCF Done:  E(UHF) =  -417.980658213     A.U. after   38 cycles
 E2 =    -0.1262218755D+01 EUMP2 =    -0.41924287696833D+03
 CCSD(T)= -0.41934957250D+03

 The electronic state is 2-A.
 Alpha  occ. eigenvalues --  -20.64469 -20.61119 -20.55979 -11.41464 -11.30275
 Alpha  occ. eigenvalues --  -11.27514 -11.27132 -11.23309  -1.47800  -1.40047
 Alpha  occ. eigenvalues --   -1.38637  -1.08459  -1.05007  -0.91539  -0.87415
 Alpha  occ. eigenvalues --   -0.75905  -0.73419  -0.69872  -0.69076  -0.67499
 Alpha  occ. eigenvalues --   -0.66372  -0.63409  -0.58772  -0.57134  -0.55938
 Alpha  occ. eigenvalues --   -0.54823  -0.50977  -0.48520  -0.46856  -0.43692
 Alpha  occ. eigenvalues --   -0.42638
 Alpha virt. eigenvalues --    0.03430   0.04550   0.04966   0.06601   0.06944
 Alpha virt. eigenvalues --    0.07989   0.09583   0.10049   0.10857   0.11761
 Alpha virt. eigenvalues --    0.13160   0.14097   0.14345   0.15182   0.15684

  Beta  occ. eigenvalues --  -20.61167 -20.60391 -20.55492 -11.41763 -11.30271
  Beta  occ. eigenvalues --  -11.28335 -11.26103 -11.23309  -1.47643  -1.37915
  Beta  occ. eigenvalues --   -1.24803  -1.07393  -1.05005  -0.91801  -0.87549
  Beta  occ. eigenvalues --   -0.75773  -0.73434  -0.69330  -0.66648  -0.64864
  Beta  occ. eigenvalues --   -0.63162  -0.58355  -0.55319  -0.54767  -0.52448
  Beta  occ. eigenvalues --   -0.50552  -0.47708  -0.46335  -0.43484  -0.43238
  Beta virt. eigenvalues --    0.03252   0.04512   0.04559   0.06472   0.06706
  Beta virt. eigenvalues --    0.07460   0.08236   0.09878   0.10351   0.11574
  Beta virt. eigenvalues --    0.11996   0.13309   0.14117   0.14637   0.15360

 Mulliken charges and spin densities:
               1          2
     1  C   -2.338108  -0.442857
     2  H    0.237284   0.043828
     3  C    2.278031   0.480990
     4  C    0.166102  -0.122651
     5  O   -0.332684   0.103180
     6  O   -0.147682  -0.001985
     7  C   -0.246458   0.002699
     8  C   -0.440478   0.002617
     9  H    0.190765  -0.002963
    10  H    0.178289   0.000210
    11  H    0.170112  -0.000258
    12  H    0.121386  -0.002128
    13  H    0.134766   0.000220
    14  O   -0.208854   0.971162
    15  H    0.237529  -0.032063
 Sum of Mulliken charges =  -0.00000   1.00000

 Dipole moment (field-independent basis, Debye):
    X=             -1.8101    Y=             -3.8215    Z=              0.1368  Tot=              4.2307
 Quadrupole moment (field-independent basis, Debye-Ang):
   XX=            -42.3147   YY=            -58.1138   ZZ=            -43.7275
   XY=             -6.0620   XZ=              0.6736   YZ=             -0.7511

 PMP3-0=-419.2761257\MP4SDQ=-419.2951498\CCSD=-419.2963455\CCSD(T)=-419
 Normal termination of Gaussian 16 at Sun May 11 03:07:00 2025.
