 Gaussian 16, Revision A.03,
 Gaussian 16:  ES64L-G16RevA.03 25-Dec-2016

 --------------------------
 # freq 6-311++g(d,p) m062x
 --------------------------

 -------------------
 Title Card Required
 -------------------
 Symbolic Z-matrix:
 Charge =  0 Multiplicity = 2

                         Standard orientation:
 ---------------------------------------------------------------------
 Center     Atomic      Atomic             Coordinates (Angstroms)
 Number     Number       Type             X           Y           Z
 ---------------------------------------------------------------------
      1          6           0       -1.845266   -0.197311    0.834125
      2          1           0       -2.562292   -0.544122    1.554586
      3          6           0       -0.827604    0.480537    0.577130
      4          6           0        0.300267    1.200034   -0.005425
      5          8           0        0.358195    2.396151    0.044429
      6          8           0        1.250291    0.470241   -0.587501
      7          6           0        1.178514   -0.972121   -0.598382
      8          6           0        1.746962   -1.547173    0.683451
      9          1           0        0.148251   -1.289981   -0.775395
     10          1           0        1.782495   -1.254309   -1.459120
     11          1           0        2.766794   -1.192836    0.839230
     12          1           0        1.141297   -1.264329    1.546628
     13          1           0        1.761213   -2.637042    0.622481
     14          8           0       -2.335259   -1.032342   -0.707255
     15          1           0       -2.540810   -0.273581   -1.271193
 ---------------------------------------------------------------------

 SCF Done:  E(UM062X) =  -420.206989710     A.U. after   20 cycles

 The electronic state is 2-A.
 Alpha  occ. eigenvalues --  -19.68603 -19.65714 -19.63641 -10.71454 -10.63659
 Alpha  occ. eigenvalues --  -10.61237 -10.61196 -10.54696  -1.25801  -1.17348
 Alpha  occ. eigenvalues --   -1.11930  -0.92321  -0.88748  -0.78503  -0.74980
 Alpha  occ. eigenvalues --   -0.64816  -0.63128  -0.58955  -0.57602  -0.55107
 Alpha  occ. eigenvalues --   -0.53604  -0.51029  -0.48876  -0.47706  -0.46298
 Alpha  occ. eigenvalues --   -0.42895  -0.41960  -0.39693  -0.38963  -0.37609
 Alpha  occ. eigenvalues --   -0.33066
 Alpha virt. eigenvalues --   -0.02039  -0.00790   0.00540   0.00621   0.01950
 Alpha virt. eigenvalues --    0.02376   0.03822   0.04271   0.05571   0.05950
 Alpha virt. eigenvalues --    0.06532   0.07861   0.08252   0.08915   0.09336

  Beta  occ. eigenvalues --  -19.68599 -19.64898 -19.63426 -10.71522 -10.63813
  Beta  occ. eigenvalues --  -10.61233 -10.60701 -10.54696  -1.25615  -1.16919
  Beta  occ. eigenvalues --   -1.09012  -0.90194  -0.88725  -0.78187  -0.74665
  Beta  occ. eigenvalues --   -0.64496  -0.62679  -0.58621  -0.56912  -0.53525
  Beta  occ. eigenvalues --   -0.53217  -0.49826  -0.47468  -0.46292  -0.43691
  Beta  occ. eigenvalues --   -0.42673  -0.40347  -0.38656  -0.37750  -0.36680
  Beta virt. eigenvalues --   -0.11666  -0.00951  -0.00652   0.00635   0.01003
  Beta virt. eigenvalues --    0.02374   0.02492   0.04275   0.04680   0.05847
  Beta virt. eigenvalues --    0.06168   0.06403   0.08012   0.08410   0.08997

 Mulliken charges and spin densities:
               1          2
     1  C   -0.471787  -0.216483
     2  H    0.256063   0.021181
     3  C    0.704172   0.703129
     4  C   -0.196315  -0.027720
     5  O   -0.244691   0.106628
     6  O   -0.038902   0.007255
     7  C   -0.366110  -0.014990
     8  C   -0.436534   0.006598
     9  H    0.203790   0.007481
    10  H    0.205545   0.000035
    11  H    0.191528   0.000120
    12  H    0.132617  -0.000620
    13  H    0.166330  -0.000457
    14  O   -0.347679   0.412937
    15  H    0.241973  -0.005094
 Sum of Mulliken charges =  -0.00000   1.00000

 Dipole moment (field-independent basis, Debye):
    X=             -0.6040    Y=             -2.7843    Z=              0.9572  Tot=              3.0056
 Quadrupole moment (field-independent basis, Debye-Ang):
   XX=            -45.2568   YY=            -57.5845   ZZ=            -43.7894
   XY=             -7.4450   XZ=             -1.7114   YZ=             -1.5830

  Exact polarizability:  80.947   9.776  79.973   1.441   4.907  62.278
 Approx polarizability:  88.940  17.399  98.326  -0.077   6.749  74.274

 ******    1 imaginary frequencies (negative Signs) ******

                      1                      2                      3
                      A                      A                      A
 Frequencies --   -680.3019                77.6286                96.2231
 Red. masses --     11.3480                 3.8436                 5.3846
 Frc consts  --      3.0944                 0.0136                 0.0294
 IR Inten    --      0.1946                 1.4867                 1.2049

                      4                      5                      6
                      A                      A                      A
 Frequencies --    130.5262               148.0274               218.2580
 Red. masses --      5.8809                 4.0246                 1.1496
 Frc consts  --      0.0590                 0.0520                 0.0323
 IR Inten    --      5.9417                 4.5125                 0.8601

                      7                      8                      9
                      A                      A                      A
 Frequencies --    237.0642               260.5289               352.6019
 Red. masses --      1.1297                 3.0359                 3.2524
 Frc consts  --      0.0374                 0.1214                 0.2382
 IR Inten    --     85.8617                16.7487                 5.4664

                     10                     11                     12
                      A                      A                      A
 Frequencies --    367.3164               411.2666               558.2655
 Red. masses --      4.3558                 3.5728                 5.3257
 Frc consts  --      0.3463                 0.3560                 0.9779
 IR Inten    --      0.6228                 4.1606                21.3831

                     13                     14                     15
                      A                      A                      A
 Frequencies --    614.0841               731.3992               744.0099
 Red. masses --      6.7249                11.4810                 1.3062
 Frc consts  --      1.4941                 3.6186                 0.4260
 IR Inten    --      1.5126                18.6965                33.2066

                     16                     17                     18
                      A                      A                      A
 Frequencies --    756.0139               818.6931               941.6610
 Red. masses --      4.5157                 1.1437                 1.1604
 Frc consts  --      1.5207                 0.4517                 0.6063
 IR Inten    --      1.6328                 4.5817                59.1174

                     19                     20                     21
                      A                      A                      A
 Frequencies --    949.0839              1009.5538              1101.1067
 Red. masses --      2.1760                 1.1156                 3.9183
 Frc consts  --      1.1548                 0.6699                 2.7990
 IR Inten    --     18.4823                15.7542                54.2664

                     22                     23                     24
                      A                      A                      A
 Frequencies --   1126.2215              1178.3449              1259.4181
 Red. masses --      2.3912                 1.9270                 2.9050
 Frc consts  --      1.7870                 1.5764                 2.7148
 IR Inten    --     36.9980                68.9240               333.6832

                     25                     26                     27
                      A                      A                      A
 Frequencies --   1357.5403              1406.9908              1436.9024
 Red. masses --      1.2586                 1.2550                 1.3467
 Frc consts  --      1.3666                 1.4638                 1.6382
 IR Inten    --    104.3215                18.8283                16.1814

                     28                     29                     30
                      A                      A                      A
 Frequencies --   1492.3291              1502.0707              1536.8601
 Red. masses --      1.0403                 1.0490                 1.0938
 Frc consts  --      1.3650                 1.3945                 1.5221
 IR Inten    --      4.2949                 2.2513                 9.2875

                     31                     32                     33
                      A                      A                      A
 Frequencies --   1818.3392              1925.0700              3071.7580
 Red. masses --     12.8927                 7.1471                 1.0356
 Frc consts  --     25.1156                15.6053                 5.7575
 IR Inten    --    456.9485                65.0271                 6.9045

                     34                     35                     36
                      A                      A                      A
 Frequencies --   3095.4397              3141.9057              3152.8912
 Red. masses --      1.0641                 1.1034                 1.1014
 Frc consts  --      6.0071                 6.4175                 6.4507
 IR Inten    --     10.5799                 4.2089                11.6043

                     37                     38                     39
                      A                      A                      A
 Frequencies --   3165.8803              3354.6271              3839.2910
 Red. masses --      1.1059                 1.1236                 1.0679
 Frc consts  --      6.5307                 7.4498                 9.2744
 IR Inten    --     16.6963                31.1498                70.6641

 - Thermochemistry -
 -------------------
 Temperature   298.150 Kelvin.  Pressure   1.00000 Atm.
 Atom     1 has atomic number  6 and mass  12.00000

 Molecular mass:   115.03952 amu.
 Principal axes and moments of inertia in atomic units:
                           1         2         3
     Eigenvalues --   823.601001049.228431543.84343
           X            0.98760  -0.15671   0.00948
           Y            0.15685   0.98747  -0.01724
           Z           -0.00666   0.01851   0.99981
 This molecule is an asymmetric top.
 Rotational symmetry number  1.
 Warning -- assumption of classical behavior for rotation
           may cause significant error
 Rotational temperatures (Kelvin)      0.10516     0.08255     0.05610
 Rotational constants (GHZ):           2.19128     1.72007     1.16899
    1 imaginary frequencies ignored.
 Zero-point vibrational energy     295389.0 (Joules/Mol)
                                   70.59968 (Kcal/Mol)
 Warning -- explicit consideration of  12 degrees of freedom as
           vibrations may cause significant error
 Vibrational temperatures:    111.69   138.44   187.80   212.98   314.02
          (Kelvin)            341.08   374.84   507.32   528.49   591.72
                              803.22   883.53  1052.32  1070.46  1087.74
                             1177.92  1354.84  1365.52  1452.52  1584.25
                             1620.38  1695.38  1812.02  1953.20  2024.35
                             2067.38  2147.13  2161.14  2211.20  2616.18
                             2769.75  4419.57  4453.65  4520.50  4536.31
                             4555.00  4826.56  5523.88

 Zero-point correction=                           0.112508 (Hartree/Particle)
 Thermal correction to Energy=                    0.121637
 Thermal correction to Enthalpy=                  0.122581
 Thermal correction to Gibbs Free Energy=         0.077698
 Sum of electronic and zero-point Energies=           -419.354955
 Sum of electronic and thermal Energies=              -420.085353
 Sum of electronic and thermal Enthalpies=            -420.084409
 Sum of electronic and thermal Free Energies=         -420.129292

                     E (Thermal)             CV                S
                      KCal/Mol        Cal/Mol-Kelvin    Cal/Mol-Kelvin
 Total                   76.328             31.341             94.465
 Electronic               0.000              0.000              1.377
 Translational            0.889              2.981             40.136
 Rotational               0.889              2.981             28.680
 Vibrational             74.551             25.379             24.272
 Vibration     1          0.599              1.964              3.950
 Vibration     2          0.603              1.952              3.529
 Vibration     3          0.612              1.923              2.938
 Vibration     4          0.617              1.905              2.697
 Vibration     5          0.646              1.813              1.973
 Vibration     6          0.656              1.784              1.825
 Vibration     7          0.669              1.745              1.658
 Vibration     8          0.729              1.570              1.155
 Vibration     9          0.740              1.539              1.091
 Vibration    10          0.775              1.446              0.922
 Vibration    11          0.914              1.122              0.527
 Vibration    12          0.973              1.002              0.426

 Normal termination of Gaussian 16 at Fri Mar 28 23:40:31 2025.
