 Gaussian 16, Revision A.03,
 Gaussian 16:  ES64L-G16RevA.03 25-Dec-2016

 --------------------------
 # freq 6-311++g(d,p) m062x
 --------------------------

 -------------------
 Title Card Required
 -------------------
 Symbolic Z-matrix:
 Charge =  0 Multiplicity = 2

                         Standard orientation:
 ---------------------------------------------------------------------
 Center     Atomic      Atomic             Coordinates (Angstroms)
 Number     Number       Type             X           Y           Z
 ---------------------------------------------------------------------
      1          6           0       -1.856390   -0.222952    0.793769
      2          1           0       -2.546949   -0.547769    1.553296
      3          6           0       -0.827626    0.478258    0.582527
      4          6           0        0.295898    1.200095   -0.000831
      5          8           0        0.351485    2.397075    0.053522
      6          8           0        1.250182    0.475473   -0.584123
      7          6           0        1.181626   -0.966631   -0.600556
      8          6           0        1.749937   -1.545250    0.679819
      9          1           0        0.152447   -1.286730   -0.780298
     10          1           0        1.787189   -1.244659   -1.461581
     11          1           0        2.768594   -1.188650    0.838060
     12          1           0        1.142687   -1.267088    1.543435
     13          1           0        1.767218   -2.634861    0.615002
     14          8           0       -2.326054   -1.024645   -0.691056
     15          1           0       -2.536762   -0.274577   -1.263023
 ---------------------------------------------------------------------

 SCF Done:  E(UM062X) =  -420.214517521     A.U. after   19 cycles

 The electronic state is 2-A.
 Alpha  occ. eigenvalues --  -19.68495 -19.65779 -19.63523 -10.71296 -10.64204
 Alpha  occ. eigenvalues --  -10.61331 -10.61225 -10.54680  -1.25680  -1.17231
 Alpha  occ. eigenvalues --   -1.12308  -0.92246  -0.88705  -0.78499  -0.74989
 Alpha  occ. eigenvalues --   -0.64777  -0.63004  -0.58923  -0.57574  -0.55571
 Alpha  occ. eigenvalues --   -0.53552  -0.51092  -0.48917  -0.47671  -0.46258
 Alpha  occ. eigenvalues --   -0.42879  -0.42021  -0.39620  -0.38925  -0.37373
 Alpha  occ. eigenvalues --   -0.32808
 Alpha virt. eigenvalues --   -0.01846  -0.00812   0.00494   0.00563   0.02181
 Alpha virt. eigenvalues --    0.02400   0.04072   0.04278   0.05632   0.05967
 Alpha virt. eigenvalues --    0.06572   0.07857   0.08224   0.08929   0.09348

  Beta  occ. eigenvalues --  -19.68489 -19.65156 -19.63282 -10.71369 -10.64361
  Beta  occ. eigenvalues --  -10.61221 -10.60768 -10.54680  -1.25469  -1.16747
  Beta  occ. eigenvalues --   -1.10103  -0.89884  -0.88676  -0.78139  -0.74632
  Beta  occ. eigenvalues --   -0.64407  -0.62477  -0.58543  -0.56767  -0.54207
  Beta  occ. eigenvalues --   -0.53258  -0.49772  -0.47440  -0.46281  -0.44920
  Beta  occ. eigenvalues --   -0.42652  -0.40460  -0.38685  -0.37777  -0.36419
  Beta virt. eigenvalues --   -0.11238  -0.00881  -0.00607   0.00631   0.00928
  Beta virt. eigenvalues --    0.02415   0.02545   0.04298   0.04834   0.05912
  Beta virt. eigenvalues --    0.06165   0.06545   0.08030   0.08389   0.08973

 Mulliken charges and spin densities:
               1          2
     1  C   -0.401623  -0.205595
     2  H    0.248765   0.023063
     3  C    0.642190   0.784989
     4  C   -0.198195  -0.031504
     5  O   -0.246931   0.119653
     6  O   -0.041400   0.008517
     7  C   -0.356092  -0.016710
     8  C   -0.439615   0.006861
     9  H    0.197268   0.008164
    10  H    0.206250  -0.000305
    11  H    0.191416   0.000175
    12  H    0.134191   0.000068
    13  H    0.166099  -0.000589
    14  O   -0.351503   0.305846
    15  H    0.249182  -0.002633
 Sum of Mulliken charges =  -0.00000   1.00000

 Dipole moment (field-independent basis, Debye):
    X=             -0.6443    Y=             -2.8212    Z=              0.9033  Tot=              3.0316
 Quadrupole moment (field-independent basis, Debye-Ang):
   XX=            -45.3099   YY=            -57.7425   ZZ=            -43.8046
   XY=             -7.4719   XZ=             -1.5738   YZ=             -1.5608

  Exact polarizability:  79.606   8.652  78.969   0.279   3.781  60.897
 Approx polarizability:  87.277  15.902  96.908  -0.732   5.885  73.205

 ******    1 imaginary frequencies (negative Signs) ******

                      1                      2                      3
                      A                      A                      A
 Frequencies --   -554.0846                77.5203                97.2756
 Red. masses --     11.7056                 3.8606                 5.1492
 Frc consts  --      2.1174                 0.0137                 0.0287
 IR Inten    --     21.9568                 1.7131                 1.1046

                      4                      5                      6
                      A                      A                      A
 Frequencies --    134.0665               153.8063               218.2126
 Red. masses --      5.6545                 4.1713                 1.1088
 Frc consts  --      0.0599                 0.0581                 0.0311
 IR Inten    --      5.1932                 3.9611                20.9349

                      7                      8                      9
                      A                      A                      A
 Frequencies --    222.3435               282.2639               357.0385
 Red. masses --      1.1170                 3.1259                 2.7857
 Frc consts  --      0.0325                 0.1467                 0.2092
 IR Inten    --     78.6244                 9.5137                 4.3636

                     10                     11                     12
                      A                      A                      A
 Frequencies --    385.7254               414.3229               562.2489
 Red. masses --      6.3210                 3.6069                 5.2630
 Frc consts  --      0.5541                 0.3648                 0.9803
 IR Inten    --      2.0666                 4.3629                23.1185

                     13                     14                     15
                      A                      A                      A
 Frequencies --    610.8901               726.5341               756.4334
 Red. masses --      6.9297                11.5492                 2.0782
 Frc consts  --      1.5237                 3.5918                 0.7006
 IR Inten    --      1.9604                20.2130                12.0565

                     16                     17                     18
                      A                      A                      A
 Frequencies --    757.6351               818.6712               948.7219
 Red. masses --      1.9929                 1.1468                 2.2410
 Frc consts  --      0.6740                 0.4529                 1.1884
 IR Inten    --     18.5645                 4.2528                 8.1320

                     19                     20                     21
                      A                      A                      A
 Frequencies --   1002.2909              1071.6560              1103.1531
 Red. masses --      1.1477                 1.1823                 3.2405
 Frc consts  --      0.6793                 0.8000                 2.3234
 IR Inten    --     44.5628                26.9980                44.6275

                     22                     23                     24
                      A                      A                      A
 Frequencies --   1126.5186              1177.9993              1258.6676
 Red. masses --      2.4179                 1.9218                 2.9026
 Frc consts  --      1.8079                 1.5713                 2.7093
 IR Inten    --     36.3774                68.6796               330.3077

                     25                     26                     27
                      A                      A                      A
 Frequencies --   1356.8262              1406.7256              1436.3000
 Red. masses --      1.2555                 1.2546                 1.3468
 Frc consts  --      1.3618                 1.4628                 1.6370
 IR Inten    --    103.1675                17.8638                16.3972

                     28                     29                     30
                      A                      A                      A
 Frequencies --   1492.2569              1501.9583              1536.6122
 Red. masses --      1.0403                 1.0489                 1.0936
 Frc consts  --      1.3648                 1.3941                 1.5214
 IR Inten    --      4.2750                 2.1542                 9.2357

                     31                     32                     33
                      A                      A                      A
 Frequencies --   1808.4061              1885.7853              3071.5859
 Red. masses --     12.8549                 7.6369                 1.0357
 Frc consts  --     24.7692                16.0012                 5.7570
 IR Inten    --    451.7972                68.4293                 6.8870

                     34                     35                     36
                      A                      A                      A
 Frequencies --   3094.8078              3141.4453              3152.7579
 Red. masses --      1.0641                 1.1033                 1.1014
 Frc consts  --      6.0047                 6.4152                 6.4500
 IR Inten    --     10.2711                 4.0881                12.0729

                     37                     38                     39
                      A                      A                      A
 Frequencies --   3165.3753              3317.9881              3848.9788
 Red. masses --      1.1058                 1.1162                 1.0679
 Frc consts  --      6.5282                 7.2402                 9.3209
 IR Inten    --     17.0501                20.1334                70.0513

 - Thermochemistry -
 -------------------
 Temperature   298.150 Kelvin.  Pressure   1.00000 Atm.
 Atom     1 has atomic number  6 and mass  12.00000

 Molecular mass:   115.03952 amu.
 Principal axes and moments of inertia in atomic units:
                           1         2         3
     Eigenvalues --   818.529191044.499321542.48989
           X            0.98763  -0.15650   0.00929
           Y            0.15664   0.98751  -0.01701
           Z           -0.00651   0.01826   0.99981
 This molecule is an asymmetric top.
 Rotational symmetry number  1.
 Warning -- assumption of classical behavior for rotation
           may cause significant error
 Rotational temperatures (Kelvin)      0.10582     0.08292     0.05615
 Rotational constants (GHZ):           2.20486     1.72785     1.17002
    1 imaginary frequencies ignored.
 Zero-point vibrational energy     295966.9 (Joules/Mol)
                                   70.73779 (Kcal/Mol)
 Warning -- explicit consideration of  12 degrees of freedom as
           vibrations may cause significant error
 Vibrational temperatures:    111.53   139.96   192.89   221.29   313.96
          (Kelvin)            319.90   406.11   513.70   554.97   596.12
                              808.95   878.93  1045.32  1088.34  1090.07
                             1177.89  1365.00  1442.07  1541.87  1587.19
                             1620.81  1694.88  1810.94  1952.17  2023.96
                             2066.52  2147.02  2160.98  2210.84  2601.89
                             2713.22  4419.33  4452.74  4519.84  4536.12
                             4554.27  4773.84  5537.82

 Zero-point correction=                           0.112728 (Hartree/Particle)
 Thermal correction to Energy=                    0.121784
 Thermal correction to Enthalpy=                  0.122728
 Thermal correction to Gibbs Free Energy=         0.078005
 Sum of electronic and zero-point Energies=           -419.3616789
 Sum of electronic and thermal Energies=              -420.092734
 Sum of electronic and thermal Enthalpies=            -420.091789
 Sum of electronic and thermal Free Energies=         -420.136512

                     E (Thermal)             CV                S
                      KCal/Mol        Cal/Mol-Kelvin    Cal/Mol-Kelvin
 Total                   76.421             31.113             94.127
 Electronic               0.000              0.000              1.377
 Translational            0.889              2.981             40.136
 Rotational               0.889              2.981             28.668
 Vibrational             74.643             25.152             23.946
 Vibration     1          0.599              1.964              3.953
 Vibration     2          0.603              1.951              3.508
 Vibration     3          0.613              1.919              2.887
 Vibration     4          0.619              1.898              2.625
 Vibration     5          0.646              1.813              1.974
 Vibration     6          0.648              1.807              1.940
 Vibration     7          0.681              1.706              1.520
 Vibration     8          0.732              1.561              1.135
 Vibration     9          0.754              1.501              1.017
 Vibration    10          0.778              1.439              0.911
 Vibration    11          0.918              1.113              0.519
 Vibration    12          0.970              1.009              0.431

 Normal termination of Gaussian 16 at Sat Mar 29 00:05:09 2025.
