 Gaussian 16, Revision A.03,
 Gaussian 16:  ES64L-G16RevA.03 25-Dec-2016

 --------------------------
 # freq 6-311++g(d,p) m062x
 --------------------------

 -------------------
 Title Card Required
 -------------------
 Symbolic Z-matrix:
 Charge =  0 Multiplicity = 2

                         Standard orientation:
 ---------------------------------------------------------------------
 Center     Atomic      Atomic             Coordinates (Angstroms)
 Number     Number       Type             X           Y           Z
 ---------------------------------------------------------------------
      1          6           0       -1.766102   -0.004529    1.087861
      2          1           0       -2.590160   -0.443484    1.600028
      3          6           0       -0.812208    0.515967    0.570403
      4          6           0        0.331369    1.194170   -0.048170
      5          8           0        0.421145    2.386178   -0.042045
      6          8           0        1.252136    0.419653   -0.621021
      7          6           0        1.147742   -1.019138   -0.579567
      8          6           0        1.719138   -1.565550    0.713381
      9          1           0        0.108533   -1.318968   -0.729615
     10          1           0        1.732124   -1.345636   -1.438331
     11          1           0        2.749425   -1.231780    0.843882
     12          1           0        1.131289   -1.238778    1.572908
     13          1           0        1.706443   -2.656951    0.687873
     14          8           0       -2.418912   -1.083731   -0.799900
     15          1           0       -2.592238   -0.266720   -1.296460
 ---------------------------------------------------------------------

 SCF Done:  E(UM062X) =  -420.201078350     A.U. after   24 cycles

 The electronic state is 2-A.
 Alpha  occ. eigenvalues --  -19.68698 -19.68327 -19.63083 -10.71066 -10.61043
 Alpha  occ. eigenvalues --  -10.59038 -10.58480 -10.54420  -1.25400  -1.16862
 Alpha  occ. eigenvalues --   -1.14437  -0.90499  -0.88490  -0.77617  -0.74048
 Alpha  occ. eigenvalues --   -0.64386  -0.62342  -0.58452  -0.57038  -0.56496
 Alpha  occ. eigenvalues --   -0.53204  -0.51335  -0.49562  -0.47346  -0.46037
 Alpha  occ. eigenvalues --   -0.44153  -0.42150  -0.39829  -0.38629  -0.37456
 Alpha  occ. eigenvalues --   -0.35990
 Alpha virt. eigenvalues --   -0.02297  -0.00888   0.00466   0.00802   0.02191
 Alpha virt. eigenvalues --    0.02334   0.03783   0.04376   0.05646   0.05998
 Alpha virt. eigenvalues --    0.06673   0.07834   0.08579   0.08994   0.09504

  Beta  occ. eigenvalues --  -19.68326 -19.67139 -19.63042 -10.71080 -10.61043
  Beta  occ. eigenvalues --  -10.59039 -10.58365 -10.54420  -1.25365  -1.16780
  Beta  occ. eigenvalues --   -1.07059  -0.89967  -0.88483  -0.77549  -0.73958
  Beta  occ. eigenvalues --   -0.64281  -0.62191  -0.58365  -0.56879  -0.53532
  Beta  occ. eigenvalues --   -0.53091  -0.49661  -0.47278  -0.46016  -0.42582
  Beta  occ. eigenvalues --   -0.40589  -0.40186  -0.39041  -0.37637  -0.36742
  Beta virt. eigenvalues --   -0.10267  -0.01757  -0.00625   0.00634   0.01080
  Beta virt. eigenvalues --    0.02340   0.02435   0.04003   0.04509   0.05848
  Beta virt. eigenvalues --    0.06109   0.06737   0.07932   0.08873   0.09094

 Mulliken charges and spin densities:
               1          2
     1  C   -1.737814  -0.006359
     2  H    0.218994   0.008382
     3  C    1.724053   0.104361
     4  C    0.003868  -0.014328
     5  O   -0.246440   0.019490
     6  O   -0.039437   0.000166
     7  C   -0.364912   0.003997
     8  C   -0.432390   0.000186
     9  H    0.204720  -0.001056
    10  H    0.203169   0.000504
    11  H    0.188563  -0.000196
    12  H    0.134917  -0.000778
    13  H    0.163721   0.000079
    14  O   -0.262790   0.901872
    15  H    0.241778  -0.016320
 Sum of Mulliken charges =  -0.00000   1.00000

 Dipole moment (field-independent basis, Debye):
    X=             -1.2849    Y=             -3.2413    Z=              0.3874  Tot=              3.5081
 Quadrupole moment (field-independent basis, Debye-Ang):
   XX=            -43.1200   YY=            -56.9740   ZZ=            -43.8897
   XY=             -6.3301   XZ=             -0.0502   YZ=             -0.9879

  Exact polarizability:  78.118   6.686  77.130  -3.057   1.743  60.877
 Approx polarizability:  86.956  13.270  92.061  -9.116  -1.147  70.572

 ******    1 imaginary frequencies (negative Signs) ******

                      1                      2                      3
                      A                      A                      A
 Frequencies --    -43.4869                59.7385                76.9020
 Red. masses --      6.1108                10.1577                 3.9049
 Frc consts  --      0.0068                 0.0214                 0.0136
 IR Inten    --      5.9225                 6.8084                 0.7683

                      4                      5                      6
                      A                      A                      A
 Frequencies --    107.1200               172.1702               211.4154
 Red. masses --      3.5154                 3.1158                 5.2796
 Frc consts  --      0.0238                 0.0544                 0.1390
 IR Inten    --      0.3175                 4.5358                 1.7736

                      7                      8                      9
                      A                      A                      A
 Frequencies --    223.3674               229.4082               305.7070
 Red. masses --      1.2497                 1.2878                 3.0802
 Frc consts  --      0.0367                 0.0399                 0.1696
 IR Inten    --     77.5451                 0.8650                16.1865

                     10                     11                     12
                      A                      A                      A
 Frequencies --    361.1382               408.5258               546.8122
 Red. masses --      2.8303                 3.7011                 1.0543
 Frc consts  --      0.2175                 0.3639                 0.1857
 IR Inten    --      2.6050                 3.4667               120.2049

                     13                     14                     15
                      A                      A                      A
 Frequencies --    555.9256               631.9007               742.8051
 Red. masses --      5.1529                 6.1214                 1.2762
 Frc consts  --      0.9383                 1.4401                 0.4149
 IR Inten    --     13.8721                 1.3391                37.9997

                     16                     17                     18
                      A                      A                      A
 Frequencies --    755.7893               767.0651               787.8003
 Red. masses --      5.2861                 7.9394                 1.2221
 Frc consts  --      1.7790                 2.7523                 0.4469
 IR Inten    --      1.9303                13.0380                63.0962

                     19                     20                     21
                      A                      A                      A
 Frequencies --    816.8945               951.2247              1104.2839
 Red. masses --      1.1499                 2.2686                 3.7163
 Frc consts  --      0.4521                 1.2094                 2.6701
 IR Inten    --      4.7657                11.2039                54.8029

                     22                     23                     24
                      A                      A                      A
 Frequencies --   1128.9668              1180.2671              1263.9272
 Red. masses --      2.4881                 1.8903                 2.8840
 Frc consts  --      1.8684                 1.5515                 2.7145
 IR Inten    --     46.7656                59.1484               355.0535

                     25                     26                     27
                      A                      A                      A
 Frequencies --   1357.8946              1406.9693              1436.6057
 Red. masses --      1.2704                 1.2614                 1.3551
 Frc consts  --      1.3801                 1.4712                 1.6478
 IR Inten    --    115.2294                21.9049                16.9694

                     28                     29                     30
                      A                      A                      A
 Frequencies --   1492.5863              1503.1219              1534.6421
 Red. masses --      1.0407                 1.0474                 1.0967
 Frc consts  --      1.3660                 1.3943                 1.5218
 IR Inten    --      3.8368                 2.1825                11.8948

                     31                     32                     33
                      A                      A                      A
 Frequencies --   1857.9499              2217.9839              3072.6978
 Red. masses --     12.9556                 5.8724                 1.0354
 Frc consts  --     26.3498                17.0210                 5.7597
 IR Inten    --    503.5717                50.7948                 7.7470

                     34                     35                     36
                      A                      A                      A
 Frequencies --   3101.0194              3144.5402              3152.0259
 Red. masses --      1.0625                 1.1042                 1.1014
 Frc consts  --      6.0199                 6.4331                 6.4472
 IR Inten    --      9.4852                 2.1123                12.8243

                     37                     38                     39
                      A                      A                      A
 Frequencies --   3167.2188              3487.0478              3796.5471
 Red. masses --      1.1065                 1.1643                 1.0673
 Frc consts  --      6.5400                 8.3415                 9.0640
 IR Inten    --     17.7120                72.3734                38.0241

 - Thermochemistry -
 -------------------
 Temperature   298.150 Kelvin.  Pressure   1.00000 Atm.
 Atom     1 has atomic number  6 and mass  12.00000

 Molecular mass:   115.03952 amu.
 Principal axes and moments of inertia in atomic units:
                           1         2         3
     Eigenvalues --   863.834341087.995821557.52626
           X            0.98687  -0.16113   0.01100
           Y            0.16131   0.98673  -0.01849
           Z           -0.00787   0.02002   0.99977
 This molecule is an asymmetric top.
 Rotational symmetry number  1.
 Warning -- assumption of classical behavior for rotation
           may cause significant error
 Rotational temperatures (Kelvin)      0.10027     0.07961     0.05561
 Rotational constants (GHZ):           2.08922     1.65878     1.15872
    1 imaginary frequencies ignored.
 Zero-point vibrational energy     293790.9 (Joules/Mol)
                                   70.21771 (Kcal/Mol)
 Warning -- explicit consideration of  12 degrees of freedom as
           vibrations may cause significant error
 Vibrational temperatures:     85.95   110.64   154.12   247.71   304.18
          (Kelvin)            321.38   330.07   439.84   519.60   587.78
                              786.74   799.85   909.16  1068.73  1087.41
                             1103.64  1133.47  1175.33  1368.60  1588.82
                             1624.33  1698.14  1818.51  1953.71  2024.32
                             2066.96  2147.50  2162.66  2208.01  2673.18
                             3191.18  4420.93  4461.68  4524.29  4535.06
                             4556.92  5017.08  5462.38

 Zero-point correction=                           0.111899 (Hartree/Particle)
 Thermal correction to Energy=                    0.121414
 Thermal correction to Enthalpy=                  0.122358
 Thermal correction to Gibbs Free Energy=         0.076382
 Sum of electronic and zero-point Energies=           -419.3495725
 Sum of electronic and thermal Energies=              -420.079664
 Sum of electronic and thermal Enthalpies=            -420.078720
 Sum of electronic and thermal Free Energies=         -420.124696

                     E (Thermal)             CV                S
                      KCal/Mol        Cal/Mol-Kelvin    Cal/Mol-Kelvin
 Total                   76.189             32.440             96.765
 Electronic               0.000              0.000              1.377
 Translational            0.889              2.981             40.136
 Rotational               0.889              2.981             28.772
 Vibrational             74.411             26.479             26.480
 Vibration     1          0.597              1.973              4.466
 Vibration     2          0.599              1.965              3.968
 Vibration     3          0.606              1.944              3.320
 Vibration     4          0.626              1.877              2.412
 Vibration     5          0.643              1.823              2.031
 Vibration     6          0.649              1.805              1.932
 Vibration     7          0.652              1.796              1.884
 Vibration     8          0.696              1.663              1.385
 Vibration     9          0.735              1.552              1.117
 Vibration    10          0.773              1.452              0.932
 Vibration    11          0.902              1.147              0.551
 Vibration    12          0.911              1.127              0.532

 Normal termination of Gaussian 16 at Fri Mar 28 19:01:53 2025.
