 Gaussian 16, Revision A.03,
 Gaussian 16:  ES64L-G16RevA.03 25-Dec-2016

 --------------------------
 # freq 6-311++g(d,p) m062x
 --------------------------

 -------------------
 Title Card Required
 -------------------
 Symbolic Z-matrix:
 Charge =  0 Multiplicity = 2

                         Standard orientation:
 ---------------------------------------------------------------------
 Center     Atomic      Atomic             Coordinates (Angstroms)
 Number     Number       Type             X           Y           Z
 ---------------------------------------------------------------------
      1          6           0       -1.814254   -0.129030    0.934996
      2          1           0       -2.591138   -0.530578    1.547115
      3          6           0       -0.827475    0.487217    0.567505
      4          6           0        0.310132    1.199325   -0.018792
      5          8           0        0.376421    2.393364    0.017999
      6          8           0        1.250584    0.455473   -0.597719
      7          6           0        1.169867   -0.986544   -0.592455
      8          6           0        1.739272   -1.551924    0.693148
      9          1           0        0.137171   -1.299412   -0.760995
     10          1           0        1.768622   -1.281559   -1.452566
     11          1           0        2.762321   -1.203529    0.841099
     12          1           0        1.138559   -1.255473    1.555024
     13          1           0        1.745552   -2.642475    0.643305
     14          8           0       -2.361070   -1.052163   -0.743861
     15          1           0       -2.553816   -0.274622   -1.290750
 ---------------------------------------------------------------------

 SCF Done:  E(UM062X) =  -420.197849823     A.U. after   23 cycles

 The electronic state is 2-A.
 Alpha  occ. eigenvalues --  -19.68593 -19.66721 -19.63516 -10.71433 -10.61246
 Alpha  occ. eigenvalues --  -10.61161 -10.59970 -10.54596  -1.25740  -1.17252
 Alpha  occ. eigenvalues --   -1.12727  -0.91632  -0.88679  -0.78120  -0.74611
 Alpha  occ. eigenvalues --   -0.64717  -0.62967  -0.58787  -0.57420  -0.55176
 Alpha  occ. eigenvalues --   -0.53496  -0.51004  -0.49289  -0.47599  -0.46233
 Alpha  occ. eigenvalues --   -0.43071  -0.42030  -0.40010  -0.38805  -0.37679
 Alpha  occ. eigenvalues --   -0.34448
 Alpha virt. eigenvalues --   -0.02300  -0.00775   0.00546   0.00764   0.01901
 Alpha virt. eigenvalues --    0.02352   0.03705   0.04327   0.05574   0.05986
 Alpha virt. eigenvalues --    0.06573   0.07869   0.08408   0.08974   0.09274

  Beta  occ. eigenvalues --  -19.68591 -19.65409 -19.63392 -10.71474 -10.61330
  Beta  occ. eigenvalues --  -10.61160 -10.59672 -10.54596  -1.25636  -1.17007
  Beta  occ. eigenvalues --   -1.07560  -0.90348  -0.88666  -0.77937  -0.74405
  Beta  occ. eigenvalues --   -0.64514  -0.62691  -0.58589  -0.57023  -0.53400
  Beta  occ. eigenvalues --   -0.52637  -0.49824  -0.47438  -0.46207  -0.42633
  Beta  occ. eigenvalues --   -0.41490  -0.40290  -0.38678  -0.37473  -0.37051
  Beta virt. eigenvalues --   -0.11696  -0.01148  -0.00601   0.00658   0.01117
  Beta virt. eigenvalues --    0.02319   0.02452   0.04189   0.04513   0.05828
  Beta virt. eigenvalues --    0.06161   0.06562   0.07994   0.08605   0.09108

 Mulliken charges and spin densities:
               1          2
     1  C   -0.795395  -0.145013
     2  H    0.256501   0.016227
     3  C    0.969234   0.391990
     4  C   -0.173152  -0.016560
     5  O   -0.242954   0.060020
     6  O   -0.035844   0.003610
     7  C   -0.377190  -0.006313
     8  C   -0.432749   0.003995
     9  H    0.210147   0.003953
    10  H    0.203448   0.000559
    11  H    0.190963  -0.000080
    12  H    0.131601  -0.001289
    13  H    0.165451  -0.000115
    14  O   -0.303626   0.702612
    15  H    0.233565  -0.013595
 Sum of Mulliken charges =  -0.00000   1.00000

 Dipole moment (field-independent basis, Debye):
    X=             -0.8259    Y=             -2.9713    Z=              0.7266  Tot=              3.1684
 Quadrupole moment (field-independent basis, Debye-Ang):
   XX=            -44.2733   YY=            -57.1734   ZZ=            -43.8456
   XY=             -6.8005   XZ=             -1.1424   YZ=             -1.4201

  Exact polarizability:  83.624  11.889  81.686   3.437   6.838  64.792
 Approx polarizability:  90.879  18.469  98.501  -1.719   5.285  73.459

 ******    1 imaginary frequencies (negative Signs) ******

                      1                      2                      3
                      A                      A                      A
 Frequencies --   -637.9098                70.8658                80.8942
 Red. masses --     11.5051                 4.7277                 5.2538
 Frc consts  --      2.7584                 0.0140                 0.0203
 IR Inten    --     88.3832                 4.5414                 1.1653

                      4                      5                      6
                      A                      A                      A
 Frequencies --    101.7622               114.1982               192.8652
 Red. masses --      7.8356                 3.2528                 2.3772
 Frc consts  --      0.0478                 0.0250                 0.0521
 IR Inten    --      6.9600                 2.6349                 1.9943

                      7                      8                      9
                      A                      A                      A
 Frequencies --    227.7323               250.6260               321.1449
 Red. masses --      1.3006                 1.3766                 2.8233
 Frc consts  --      0.0397                 0.0509                 0.1716
 IR Inten    --      1.0123                72.9461                16.3978

                     10                     11                     12
                      A                      A                      A
 Frequencies --    361.8665               409.2094               553.9513
 Red. masses --      2.8503                 3.6580                 5.2437
 Frc consts  --      0.2199                 0.3609                 0.9480
 IR Inten    --      2.4369                 3.6340                16.4956

                     13                     14                     15
                      A                      A                      A
 Frequencies --    626.9483               728.1745               749.9698
 Red. masses --      6.2879                 1.2274                 9.5227
 Frc consts  --      1.4562                 0.3835                 3.1557
 IR Inten    --      0.9403                62.6989                10.9815

                     16                     17                     18
                      A                      A                      A
 Frequencies --    754.2340               804.6765               818.6708
 Red. masses --      4.5316                 1.1977                 1.1515
 Frc consts  --      1.5189                 0.4569                 0.4547
 IR Inten    --     10.2197                91.1921                 5.8010

                     19                     20                     21
                      A                      A                      A
 Frequencies --    842.8571               950.4948              1101.8594
 Red. masses --      1.0985                 2.2710                 3.9056
 Frc consts  --      0.4598                 1.2089                 2.7937
 IR Inten    --     31.2038                11.6080                60.3046

                     22                     23                     24
                      A                      A                      A
 Frequencies --   1127.0801              1179.2234              1261.1931
 Red. masses --      2.4091                 1.9138                 2.8980
 Frc consts  --      1.8031                 1.5680                 2.7159
 IR Inten    --     41.3792                66.9630               347.2833

                     25                     26                     27
                      A                      A                      A
 Frequencies --   1358.0416              1407.1221              1437.3431
 Red. masses --      1.2626                 1.2570                 1.3496
 Frc consts  --      1.3720                 1.4663                 1.6428
 IR Inten    --    108.2614                21.1351                16.3608

                     28                     29                     30
                      A                      A                      A
 Frequencies --   1492.4564              1502.5846              1536.3741
 Red. masses --      1.0403                 1.0484                 1.0949
 Frc consts  --      1.3653                 1.3946                 1.5227
 IR Inten    --      4.1588                 2.4997                10.1627

                     31                     32                     33
                      A                      A                      A
 Frequencies --   1844.3859              2083.3816              3072.2958
 Red. masses --     12.9514                 6.3730                 1.0355
 Frc consts  --     25.9579                16.2980                 5.7588
 IR Inten    --    489.0124                70.9049                 7.2225

                     34                     35                     36
                      A                      A                      A
 Frequencies --   3099.7957              3143.4599              3152.6284
 Red. masses --      1.0631                 1.1039                 1.1015
 Frc consts  --      6.0184                 6.4267                 6.4500
 IR Inten    --     11.4645                 3.7951                11.2277

                     37                     38                     39
                      A                      A                      A
 Frequencies --   3167.1351              3442.3292              3812.6089
 Red. masses --      1.1065                 1.1452                 1.0677
 Frc consts  --      6.5392                 7.9950                 9.1440
 IR Inten    --     16.5314                66.2341                60.2541

 - Thermochemistry -
 -------------------
 Temperature   298.150 Kelvin.  Pressure   1.00000 Atm.
 Atom     1 has atomic number  6 and mass  12.00000

 Molecular mass:   115.03952 amu.
 Principal axes and moments of inertia in atomic units:
                           1         2         3
     Eigenvalues --   837.098331061.870071547.53607
           X            0.98749  -0.15733   0.01022
           Y            0.15749   0.98736  -0.01773
           Z           -0.00730   0.01911   0.99979
 This molecule is an asymmetric top.
 Rotational symmetry number  1.
 Warning -- assumption of classical behavior for rotation
           may cause significant error
 Rotational temperatures (Kelvin)      0.10347     0.08157     0.05597
 Rotational constants (GHZ):           2.15595     1.69959     1.16620
    1 imaginary frequencies ignored.
 Zero-point vibrational energy     294176.3 (Joules/Mol)
                                   70.30983 (Kcal/Mol)
 Warning -- explicit consideration of  11 degrees of freedom as
           vibrations may cause significant error
 Vibrational temperatures:    101.96   116.39   146.41   164.31   277.49
          (Kelvin)            327.66   360.59   462.06   520.65   588.76
                              797.01   902.04  1047.68  1079.04  1085.17
                             1157.75  1177.88  1212.68  1367.55  1585.33
                             1621.62  1696.64  1814.58  1953.92  2024.53
                             2068.02  2147.31  2161.88  2210.50  2653.66
                             2997.52  4420.35  4459.91  4522.74  4535.93
                             4556.80  4952.74  5485.49

 Zero-point correction=                           0.112046 (Hartree/Particle)
 Thermal correction to Energy=                    0.121500
 Thermal correction to Enthalpy=                  0.122445
 Thermal correction to Gibbs Free Energy=         0.076501
 Sum of electronic and zero-point Energies=           -419.3471941
 Sum of electronic and thermal Energies=              -420.076349
 Sum of electronic and thermal Enthalpies=            -420.075405
 Sum of electronic and thermal Free Energies=         -420.121349

                     E (Thermal)             CV                S
                      KCal/Mol        Cal/Mol-Kelvin    Cal/Mol-Kelvin
 Total                   76.243             31.940             96.697
 Electronic               0.000              0.000              1.377
 Translational            0.889              2.981             40.136
 Rotational               0.889              2.981             28.710
 Vibrational             74.465             25.978             26.474
 Vibration     1          0.598              1.968              4.129
 Vibration     2          0.600              1.962              3.869
 Vibration     3          0.604              1.948              3.420
 Vibration     4          0.607              1.938              3.196
 Vibration     5          0.635              1.850              2.200
 Vibration     6          0.651              1.799              1.897
 Vibration     7          0.663              1.762              1.726
 Vibration     8          0.707              1.633              1.304
 Vibration     9          0.736              1.551              1.114
 Vibration    10          0.774              1.450              0.929
 Vibration    11          0.909              1.131              0.536

 Normal termination of Gaussian 16 at Fri Mar 28 20:42:13 2025.
