 Gaussian 16, Revision A.03,
 Gaussian 16:  ES64L-G16RevA.03 25-Dec-2016

 --------------------------
 # ccsd(t)/6-311++g(d,p) sp
 --------------------------

 -------------------
 Title Card Required
 -------------------
 Symbolic Z-matrix:
 Charge =  0 Multiplicity = 2

                         Standard orientation:
 ---------------------------------------------------------------------
 Center     Atomic      Atomic             Coordinates (Angstroms)
 Number     Number       Type             X           Y           Z
 ---------------------------------------------------------------------
      1          6           0       -1.801902   -0.099651    0.974924
      2          1           0       -2.596715   -0.519415    1.548329
      3          6           0       -0.825737    0.491963    0.565681
      4          6           0        0.314264    1.198498   -0.025134
      5          8           0        0.385375    2.391967    0.005313
      6          8           0        1.250893    0.448183   -0.602690
      7          6           0        1.165559   -0.993263   -0.589706
      8          6           0        1.735403   -1.554416    0.697557
      9          1           0        0.131667   -1.303828   -0.754184
     10          1           0        1.761506   -1.294839   -1.449540
     11          1           0        2.759965   -1.208879    0.841713
     12          1           0        1.137241   -1.251429    1.558855
     13          1           0        1.737876   -2.645235    0.652989
     14          8           0       -2.373256   -1.060226   -0.757897
     15          1           0       -2.561157   -0.274547   -1.295891
 ---------------------------------------------------------------------

 SCF Done:  E(UHF) =  -417.972570546     A.U. after   39 cycles
 E2 =    -0.1258538553D+01 EUMP2 =    -0.41923110909919D+03
 CCSD(T)= -0.41934702026D+03

 The electronic state is 2-A.
 Alpha  occ. eigenvalues --  -20.63869 -20.61038 -20.56272 -11.41277 -11.30268
 Alpha  occ. eigenvalues --  -11.27896 -11.27410 -11.23346  -1.47862  -1.39609
 Alpha  occ. eigenvalues --   -1.38874  -1.08985  -1.05020  -0.91495  -0.87437
 Alpha  occ. eigenvalues --   -0.76012  -0.73583  -0.70058  -0.68521  -0.67299
 Alpha  occ. eigenvalues --   -0.65914  -0.63506  -0.58957  -0.56685  -0.56051
 Alpha  occ. eigenvalues --   -0.54862  -0.51028  -0.48748  -0.47114  -0.43985
 Alpha  occ. eigenvalues --   -0.42681
 Alpha virt. eigenvalues --    0.03491   0.04564   0.04960   0.06626   0.06936
 Alpha virt. eigenvalues --    0.08179   0.09550   0.10472   0.10937   0.11926
 Alpha virt. eigenvalues --    0.13273   0.14078   0.14406   0.15212   0.15524

  Beta  occ. eigenvalues --  -20.61113 -20.59989 -20.55500 -11.41753 -11.30259
  Beta  occ. eigenvalues --  -11.29137 -11.25873 -11.23345  -1.47595  -1.37728
  Beta  occ. eigenvalues --   -1.25603  -1.07174  -1.05012  -0.91871  -0.87589
  Beta  occ. eigenvalues --   -0.75742  -0.73492  -0.69276  -0.66627  -0.64868
  Beta  occ. eigenvalues --   -0.63127  -0.58297  -0.55174  -0.54751  -0.52319
  Beta  occ. eigenvalues --   -0.50478  -0.47481  -0.46433  -0.43661  -0.43577
  Beta virt. eigenvalues --    0.03171   0.04333   0.04560   0.06205   0.06663
  Beta virt. eigenvalues --    0.07216   0.08420   0.09998   0.10578   0.11990
  Beta virt. eigenvalues --    0.12168   0.13480   0.14130   0.14574   0.15216

 Mulliken charges and spin densities:
               1          2
     1  C   -1.339879  -0.779268
     2  H    0.270072   0.059968
     3  C    1.460184   0.864432
     4  C   -0.041268  -0.183623
     5  O   -0.323794   0.164012
     6  O   -0.149870  -0.002581
     7  C   -0.253154   0.000052
     8  C   -0.437607   0.004466
     9  H    0.190870  -0.001541
    10  H    0.177197   0.000314
    11  H    0.172331  -0.000335
    12  H    0.117487  -0.002835
    13  H    0.134811   0.000291
    14  O   -0.214753   0.905853
    15  H    0.237373  -0.029205
 Sum of Mulliken charges =  -0.00000   1.00000

 Dipole moment (field-independent basis, Debye):
    X=             -1.6280    Y=             -3.7613    Z=              0.1387  Tot=              4.1009
 Quadrupole moment (field-independent basis, Debye-Ang):
   XX=            -42.7532   YY=            -58.0907   ZZ=            -43.6749
   XY=             -6.0027   XZ=              0.4647   YZ=             -0.9294

 P3-0=-419.2731677\MP4SDQ=-419.2872075\CCSD=-419.2926476\CCSD(T)=-419.3
 Normal termination of Gaussian 16 at Sun May 11 22:50:36 2025.
