 Gaussian 16, Revision A.03,
 Gaussian 16:  ES64L-G16RevA.03 25-Dec-2016

 --------------------------
 # freq 6-311++g(d,p) m062x
 --------------------------

 -------------------
 Title Card Required
 -------------------
 Symbolic Z-matrix:
 Charge =  0 Multiplicity = 2

                         Standard orientation:
 ---------------------------------------------------------------------
 Center     Atomic      Atomic             Coordinates (Angstroms)
 Number     Number       Type             X           Y           Z
 ---------------------------------------------------------------------
      1          6           0       -1.833132   -0.170788    0.874489
      2          1           0       -2.575981   -0.540105    1.552323
      3          6           0       -0.827938    0.482720    0.572551
      4          6           0        0.304311    1.199916   -0.010403
      5          8           0        0.365037    2.395127    0.034591
      6          8           0        1.250356    0.464760   -0.591246
      7          6           0        1.175292   -0.977659   -0.596119
      8          6           0        1.744064   -1.548957    0.687184
      9          1           0        0.144057   -1.293487   -0.770030
     10          1           0        1.777447   -1.264450   -1.456599
     11          1           0        2.765105   -1.196856    0.840129
     12          1           0        1.140172   -1.261076    1.549876
     13          1           0        1.755303   -2.639090    0.630359
     14          8           0       -2.344925   -1.040213   -0.722434
     15          1           0       -2.545423   -0.273721   -1.279562
 ---------------------------------------------------------------------

 SCF Done:  E(UM062X) =  -420.201532268     A.U. after   21 cycles

 The electronic state is 2-A.
 Alpha  occ. eigenvalues --  -19.68652 -19.65935 -19.63666 -10.71521 -10.62815
 Alpha  occ. eigenvalues --  -10.61223 -10.60831 -10.54678  -1.25841  -1.17379
 Alpha  occ. eigenvalues --   -1.12000  -0.92177  -0.88750  -0.78404  -0.74887
 Alpha  occ. eigenvalues --   -0.64820  -0.63144  -0.58933  -0.57582  -0.54912
 Alpha  occ. eigenvalues --   -0.53600  -0.50998  -0.48991  -0.47699  -0.46304
 Alpha  occ. eigenvalues --   -0.42921  -0.41936  -0.39830  -0.38938  -0.37731
 Alpha  occ. eigenvalues --   -0.33510
 Alpha virt. eigenvalues --   -0.02204  -0.00772   0.00552   0.00707   0.01820
 Alpha virt. eigenvalues --    0.02363   0.03711   0.04283   0.05553   0.05954
 Alpha virt. eigenvalues --    0.06530   0.07865   0.08302   0.08924   0.09312

  Beta  occ. eigenvalues --  -19.68649 -19.64906 -19.63485 -10.71579 -10.62950
  Beta  occ. eigenvalues --  -10.61221 -10.60412 -10.54678  -1.25687  -1.17019
  Beta  occ. eigenvalues --   -1.08234  -0.90372  -0.88732  -0.78140  -0.74615
  Beta  occ. eigenvalues --   -0.64549  -0.62772  -0.58651  -0.57008  -0.53460
  Beta  occ. eigenvalues --   -0.52788  -0.49856  -0.47483  -0.46285  -0.42675
  Beta  occ. eigenvalues --   -0.42631  -0.40323  -0.38635  -0.37638  -0.36860
  Beta virt. eigenvalues --   -0.11935  -0.01036  -0.00634   0.00643   0.01066
  Beta virt. eigenvalues --    0.02335   0.02463   0.04247   0.04564   0.05813
  Beta virt. eigenvalues --    0.06158   0.06427   0.08003   0.08470   0.09038

 Mulliken charges and spin densities:
               1          2
     1  C   -0.568615  -0.207572
     2  H    0.260118   0.019321
     3  C    0.783097   0.592195
     4  C   -0.191900  -0.022083
     5  O   -0.243190   0.089268
     6  O   -0.036876   0.005829
     7  C   -0.373440  -0.012044
     8  C   -0.434284   0.005875
     9  H    0.208392   0.006264
    10  H    0.204710   0.000338
    11  H    0.191444   0.000041
    12  H    0.131690  -0.001072
    13  H    0.166201  -0.000306
    14  O   -0.333809   0.532366
    15  H    0.236463  -0.008421
 Sum of Mulliken charges =  -0.00000   1.00000

 Dipole moment (field-independent basis, Debye):
    X=             -0.6392    Y=             -2.8155    Z=              0.9204  Tot=              3.0303
 Quadrupole moment (field-independent basis, Debye-Ang):
   XX=            -44.9845   YY=            -57.4081   ZZ=            -43.7983
   XY=             -7.2641   XZ=             -1.6284   YZ=             -1.5544

  Exact polarizability:  82.419  11.000  81.033   2.670   6.079  63.663
 Approx polarizability:  90.388  18.563  99.247   0.015   6.950  74.614

 ******    1 imaginary frequencies (negative Signs) ******

                      1                      2                      3
                      A                      A                      A
 Frequencies --   -740.0820                77.5957                94.6971
 Red. masses --     10.8920                 3.8010                 5.7966
 Frc consts  --      3.5150                 0.0135                 0.0306
 IR Inten    --     24.1527                 1.3709                 1.3596

                      4                      5                      6
                      A                      A                      A
 Frequencies --    124.8060               136.9547               213.7704
 Red. masses --      7.4909                 3.4523                 1.3513
 Frc consts  --      0.0687                 0.0382                 0.0364
 IR Inten    --      7.0899                 4.8736                 1.4824

                      7                      8                      9
                      A                      A                      A
 Frequencies --    235.1283               252.2722               338.5512
 Red. masses --      1.8472                 1.3458                 3.8934
 Frc consts  --      0.0602                 0.0505                 0.2629
 IR Inten    --     10.3612                82.7819                 5.8906

                     10                     11                     12
                      A                      A                      A
 Frequencies --    361.7613               409.9926               555.6095
 Red. masses --      3.0095                 3.6088                 5.3068
 Frc consts  --      0.2321                 0.3574                 0.9652
 IR Inten    --      1.3577                 3.9420                19.2543

                     13                     14                     15
                      A                      A                      A
 Frequencies --    619.7091               736.4630               739.3164
 Red. masses --      6.5463                 1.5466                 4.6065
 Frc consts  --      1.4812                 0.4942                 1.4835
 IR Inten    --      1.2508                34.3643                22.2948

                     16                     17                     18
                      A                      A                      A
 Frequencies --    754.9910               818.4700               886.9706
 Red. masses --      4.5716                 1.1411                 1.1598
 Frc consts  --      1.5353                 0.4504                 0.5376
 IR Inten    --      1.8883                 5.2912               100.1862

                     19                     20                     21
                      A                      A                      A
 Frequencies --    935.1044               952.4304              1101.1069
 Red. masses --      1.1704                 1.9969                 3.9534
 Frc consts  --      0.6030                 1.0673                 2.8241
 IR Inten    --     13.3449                 6.8662                57.7549

                     22                     23                     24
                      A                      A                      A
 Frequencies --   1126.3976              1178.7851              1260.1915
 Red. masses --      2.3895                 1.9219                 2.9023
 Frc consts  --      1.7863                 1.5735                 2.7156
 IR Inten    --     38.4454                68.1855               338.7420

                     25                     26                     27
                      A                      A                      A
 Frequencies --   1357.9581              1407.1342              1437.2884
 Red. masses --      1.2607                 1.2556                 1.3473
 Frc consts  --      1.3698                 1.4648                 1.6398
 IR Inten    --    105.7308                19.8479                16.1461

                     28                     29                     30
                      A                      A                      A
 Frequencies --   1492.3854              1502.2503              1536.8544
 Red. masses --      1.0403                 1.0489                 1.0941
 Frc consts  --      1.3651                 1.3946                 1.5226
 IR Inten    --      4.2712                 2.3726                 9.5301

                     31                     32                     33
                      A                      A                      A
 Frequencies --   1829.4950              1979.6772              3071.9752
 Red. masses --     12.9288                 6.7630                 1.0356
 Frc consts  --     25.4960                15.6164                 5.7581
 IR Inten    --    467.1081                67.7393                 6.9836

                     34                     35                     36
                      A                      A                      A
 Frequencies --   3096.9555              3142.5063              3152.8851
 Red. masses --      1.0638                 1.1035                 1.1014
 Frc consts  --      6.0114                 6.4209                 6.4509
 IR Inten    --     11.0650                 4.1660                11.2736

                     37                     38                     39
                      A                      A                      A
 Frequencies --   3166.4340              3392.0557              3827.6978
 Red. masses --      1.1061                 1.1319                 1.0679
 Frc consts  --      6.5341                 7.6731                 9.2183
 IR Inten    --     16.4922                45.5417                70.2968

 - Thermochemistry -
 -------------------
 Temperature   298.150 Kelvin.  Pressure   1.00000 Atm.
 Atom     1 has atomic number  6 and mass  12.00000

 Molecular mass:   115.03952 amu.
 Principal axes and moments of inertia in atomic units:
                           1         2         3
     Eigenvalues --   828.812331054.076961545.20256
           X            0.98757  -0.15691   0.00974
           Y            0.15706   0.98744  -0.01744
           Z           -0.00688   0.01875   0.99980
 This molecule is an asymmetric top.
 Rotational symmetry number  1.
 Warning -- assumption of classical behavior for rotation
           may cause significant error
 Rotational temperatures (Kelvin)      0.10450     0.08217     0.05605
 Rotational constants (GHZ):           2.17750     1.71215     1.16796
    1 imaginary frequencies ignored.
 Zero-point vibrational energy     294907.2 (Joules/Mol)
                                   70.48450 (Kcal/Mol)
 Warning -- explicit consideration of  12 degrees of freedom as
           vibrations may cause significant error
 Vibrational temperatures:    111.64   136.25   179.57   197.05   307.57
          (Kelvin)            338.30   362.96   487.10   520.49   589.89
                              799.40   891.62  1059.61  1063.71  1086.26
                             1177.60  1276.15  1345.41  1370.33  1584.25
                             1620.63  1696.01  1813.13  1953.80  2024.55
                             2067.94  2147.21  2161.40  2211.19  2632.24
                             2848.31  4419.89  4455.83  4521.37  4536.30
                             4555.79  4880.41  5507.20

 Zero-point correction=                           0.112324 (Hartree/Particle)
 Thermal correction to Energy=                    0.121551
 Thermal correction to Enthalpy=                  0.122495
 Thermal correction to Gibbs Free Energy=         0.077357
 Sum of electronic and zero-point Energies=           -419.3502878
 Sum of electronic and thermal Energies=              -420.079982
 Sum of electronic and thermal Enthalpies=            -420.079038
 Sum of electronic and thermal Free Energies=         -420.124175

                     E (Thermal)             CV                S
                      KCal/Mol        Cal/Mol-Kelvin    Cal/Mol-Kelvin
 Total                   76.274             31.572             95.000
 Electronic               0.000              0.000              1.377
 Translational            0.889              2.981             40.136
 Rotational               0.889              2.981             28.692
 Vibrational             74.497             25.610             24.795
 Vibration     1          0.599              1.964              3.951
 Vibration     2          0.603              1.953              3.561
 Vibration     3          0.610              1.928              3.025
 Vibration     4          0.614              1.916              2.846
 Vibration     5          0.644              1.820              2.011
 Vibration     6          0.655              1.787              1.839
 Vibration     7          0.664              1.759              1.715
 Vibration     8          0.719              1.598              1.219
 Vibration     9          0.736              1.551              1.115
 Vibration    10          0.774              1.449              0.927
 Vibration    11          0.911              1.127              0.533
 Vibration    12          0.980              0.990              0.417

 Normal termination of Gaussian 16 at Fri Mar 28 23:15:48 2025.
