 Gaussian 16, Revision A.03,
 Gaussian 16:  ES64L-G16RevA.03 25-Dec-2016

 --------------------------
 # freq 6-311++g(d,p) m062x
 --------------------------

 -------------------
 Title Card Required
 -------------------
 Symbolic Z-matrix:
 Charge =  0 Multiplicity = 2

                         Standard orientation:
 ---------------------------------------------------------------------
 Center     Atomic      Atomic             Coordinates (Angstroms)
 Number     Number       Type             X           Y           Z
 ---------------------------------------------------------------------
      1          6           0       -1.783816   -0.053257    1.033129
      2          1           0       -2.597695   -0.490469    1.563434
      3          6           0       -0.820480    0.502206    0.565811
      4          6           0        0.321822    1.196643   -0.035916
      5          8           0        0.401663    2.389392   -0.016485
      6          8           0        1.251579    0.435151   -0.611166
      7          6           0        1.157680   -1.005099   -0.585048
      8          6           0        1.728076   -1.559399    0.704955
      9          1           0        0.121478   -1.311110   -0.742842
     10          1           0        1.748519   -1.318161   -1.444363
     11          1           0        2.755255   -1.219084    0.842813
     12          1           0        1.134465   -1.245327    1.565327
     13          1           0        1.723731   -2.650565    0.669244
     14          8           0       -2.394708   -1.072115   -0.778929
     15          1           0       -2.573710   -0.271276   -1.298556
 ---------------------------------------------------------------------

 SCF Done:  E(UM062X) =  -420.199314769     A.U. after   24 cycles

 The electronic state is 2-A.
 Alpha  occ. eigenvalues --  -19.68385 -19.68163 -19.63175 -10.71146 -10.61061
 Alpha  occ. eigenvalues --  -10.59470 -10.58780 -10.54457  -1.25471  -1.16947
 Alpha  occ. eigenvalues --   -1.14040  -0.90771  -0.88530  -0.77722  -0.74175
 Alpha  occ. eigenvalues --   -0.64473  -0.62530  -0.58526  -0.57122  -0.56132
 Alpha  occ. eigenvalues --   -0.53270  -0.51238  -0.49528  -0.47403  -0.46078
 Alpha  occ. eigenvalues --   -0.43818  -0.42147  -0.39884  -0.38626  -0.37469
 Alpha  occ. eigenvalues --   -0.35630
 Alpha virt. eigenvalues --   -0.02255  -0.00852   0.00487   0.00788   0.02140
 Alpha virt. eigenvalues --    0.02338   0.03780   0.04376   0.05630   0.06015
 Alpha virt. eigenvalues --    0.06653   0.07849   0.08560   0.09012   0.09372

  Beta  occ. eigenvalues --  -19.68383 -19.66644 -19.63115 -10.71166 -10.61062
  Beta  occ. eigenvalues --  -10.59489 -10.58622 -10.54457  -1.25421  -1.16828
  Beta  occ. eigenvalues --   -1.07150  -0.90061  -0.88521  -0.77628  -0.74055
  Beta  occ. eigenvalues --   -0.64338  -0.62343  -0.58413  -0.56908  -0.53363
  Beta  occ. eigenvalues --   -0.53062  -0.49696  -0.47313  -0.46056  -0.42578
  Beta  occ. eigenvalues --   -0.40627  -0.40279  -0.38945  -0.37609  -0.36844
  Beta virt. eigenvalues --   -0.10550  -0.01501  -0.00610   0.00650   0.01102
  Beta virt. eigenvalues --    0.02340   0.02443   0.04075   0.04521   0.05857
  Beta virt. eigenvalues --    0.06142   0.06709   0.07953   0.08817   0.09129

 Mulliken charges and spin densities:
               1          2
     1  C   -1.448202  -0.026129
     2  H    0.228809   0.010821
     3  C    1.518881   0.158496
     4  C   -0.077600  -0.019069
     5  O   -0.245263   0.028503
     6  O   -0.038299   0.001028
     7  C   -0.370765   0.001081
     8  C   -0.432274   0.001227
     9  H    0.206596   0.000578
    10  H    0.202750   0.000510
    11  H    0.189519  -0.000176
    12  H    0.133411  -0.001042
    13  H    0.164150   0.000036
    14  O   -0.270849   0.860226
    15  H    0.239138  -0.016091
 Sum of Mulliken charges =  -0.00000   1.00000

 Dipole moment (field-independent basis, Debye):
    X=             -1.1713    Y=             -3.2072    Z=              0.4292  Tot=              3.4413
 Quadrupole moment (field-independent basis, Debye-Ang):
   XX=            -43.3258   YY=            -57.0018   ZZ=            -43.9045
   XY=             -6.3042   XZ=             -0.2877   YZ=             -1.1386

  Exact polarizability:  80.179   8.609  78.712  -0.653   3.554  62.166
 Approx polarizability:  88.293  15.021  94.091  -6.798   0.683  70.971

 ******    2 imaginary frequencies (negative Signs) ******

                      1                      2                      3
                      A                      A                      A
 Frequencies --   -111.7297               -47.7369                67.6453
 Red. masses --     12.4246                 5.9498                 9.8113
 Frc consts  --      0.0914                 0.0080                 0.0265
 IR Inten    --     18.1042                 6.6896                 6.1482

                      4                      5                      6
                      A                      A                      A
 Frequencies --     77.7439               105.6358               178.8476
 Red. masses --      3.9307                 3.5571                 2.6772
 Frc consts  --      0.0140                 0.0234                 0.0505
 IR Inten    --      1.2484                 0.2811                 2.2700

                      7                      8                      9
                      A                      A                      A
 Frequencies --    228.3520               233.2922               307.5264
 Red. masses --      1.2207                 1.3665                 2.6749
 Frc consts  --      0.0375                 0.0438                 0.1490
 IR Inten    --      0.7157                69.0440                22.4157

                     10                     11                     12
                      A                      A                      A
 Frequencies --    362.1160               408.7527               554.9720
 Red. masses --      2.8329                 3.6941                 5.1696
 Frc consts  --      0.2189                 0.3637                 0.9381
 IR Inten    --      2.5953                 3.4495                14.9946

                     13                     14                     15
                      A                      A                      A
 Frequencies --    612.8248               631.8024               746.8229
 Red. masses --      1.0774                 5.7257                 1.3363
 Frc consts  --      0.2384                 1.3466                 0.4391
 IR Inten    --    104.6294                 4.7728                34.1145

                     16                     17                     18
                      A                      A                      A
 Frequencies --    755.1203               764.6323               794.6674
 Red. masses --      5.4553                 5.6099                 1.1849
 Frc consts  --      1.8327                 1.9325                 0.4409
 IR Inten    --      3.0011                 8.1311                75.0904

                     19                     20                     21
                      A                      A                      A
 Frequencies --    817.2294               951.0419              1103.5922
 Red. masses --      1.1498                 2.2685                 3.7770
 Frc consts  --      0.4524                 1.2089                 2.7103
 IR Inten    --      5.0721                11.6186                56.9600

                     22                     23                     24
                      A                      A                      A
 Frequencies --   1128.4143              1179.8855              1263.0250
 Red. masses --      2.4637                 1.8977                 2.8870
 Frc consts  --      1.8483                 1.5565                 2.7134
 IR Inten    --     45.4419                61.9570               353.2383

                     25                     26                     27
                      A                      A                      A
 Frequencies --   1357.8772              1406.9310              1436.7692
 Red. masses --      1.2681                 1.2600                 1.3537
 Frc consts  --      1.3776                 1.4695                 1.6464
 IR Inten    --    113.1064                21.7696                16.8026

                     28                     29                     30
                      A                      A                      A
 Frequencies --   1492.5549              1503.0071              1535.2543
 Red. masses --      1.0406                 1.0476                 1.0962
 Frc consts  --      1.3658                 1.3943                 1.5223
 IR Inten    --      3.9144                 2.3153                11.3394

                     31                     32                     33
                      A                      A                      A
 Frequencies --   1855.8042              2195.9112              3072.6185
 Red. masses --     12.9548                 5.9676                 1.0354
 Frc consts  --     26.2873                16.9543                 5.7595
 IR Inten    --    504.5970                53.4632                 7.6359

                     34                     35                     36
                      A                      A                      A
 Frequencies --   3101.6497              3144.4015              3152.1808
 Red. masses --      1.0624                 1.1042                 1.1014
 Frc consts  --      6.0219                 6.4324                 6.4480
 IR Inten    --     10.2519                 2.6987                12.3028

                     37                     38                     39
                      A                      A                      A
 Frequencies --   3167.4201              3480.6245              3799.2055
 Red. masses --      1.1067                 1.1608                 1.0674
 Frc consts  --      6.5416                 8.2857                 9.0774
 IR Inten    --     17.1551                73.3395                43.7465

 - Thermochemistry -
 -------------------
 Temperature   298.150 Kelvin.  Pressure   1.00000 Atm.
 Atom     1 has atomic number  6 and mass  12.00000

 Molecular mass:   115.03952 amu.
 Principal axes and moments of inertia in atomic units:
                           1         2         3
     Eigenvalues --   852.972931077.278741553.12601
           X            0.98720  -0.15909   0.01085
           Y            0.15927   0.98707  -0.01823
           Z           -0.00781   0.01972   0.99977
 This molecule is an asymmetric top.
 Rotational symmetry number  1.
 Warning -- assumption of classical behavior for rotation
           may cause significant error
 Rotational temperatures (Kelvin)      0.10154     0.08040     0.05577
 Rotational constants (GHZ):           2.11582     1.67528     1.16201
    2 imaginary frequencies ignored.
 Zero-point vibrational energy     292942.4 (Joules/Mol)
                                   70.01492 (Kcal/Mol)
 Warning -- explicit consideration of  11 degrees of freedom as
           vibrations may cause significant error
 Vibrational temperatures:     97.33   111.86   151.99   257.32   328.55
          (Kelvin)            335.66   442.46   521.00   588.10   798.48
                              881.72   909.02  1074.51  1086.45  1100.14
                             1143.35  1175.81  1368.34  1587.82  1623.54
                             1697.59  1817.21  1953.68  2024.26  2067.19
                             2147.45  2162.49  2208.89  2670.09  3159.43
                             4420.81  4462.58  4524.09  4535.29  4557.21
                             5007.84  5466.21

 Zero-point correction=                           0.111576 (Hartree/Particle)
 Thermal correction to Energy=                    0.120465
 Thermal correction to Enthalpy=                  0.121409
 Thermal correction to Gibbs Free Energy=         0.076659
 Sum of electronic and zero-point Energies=           -419.3480733
 Sum of electronic and thermal Energies=              -420.078850
 Sum of electronic and thermal Enthalpies=            -420.077906
 Sum of electronic and thermal Free Energies=         -420.122656

                     E (Thermal)             CV                S
                      KCal/Mol        Cal/Mol-Kelvin    Cal/Mol-Kelvin
 Total                   75.593             30.434             94.186
 Electronic               0.000              0.000              1.377
 Translational            0.889              2.981             40.136
 Rotational               0.889              2.981             28.747
 Vibrational             73.816             24.473             23.926
 Vibration     1          0.598              1.970              4.221
 Vibration     2          0.599              1.964              3.947
 Vibration     3          0.605              1.945              3.348
 Vibration     4          0.629              1.868              2.340
 Vibration     5          0.651              1.798              1.892
 Vibration     6          0.654              1.790              1.853
 Vibration     7          0.697              1.659              1.376
 Vibration     8          0.736              1.550              1.113
 Vibration     9          0.773              1.451              0.931
 Vibration    10          0.910              1.129              0.534
 Vibration    11          0.972              1.005              0.428

 Normal termination of Gaussian 16 at Fri Mar 28 19:39:36 2025.
