 Gaussian 16, Revision A.03,
 Gaussian 16:  ES64L-G16RevA.03 25-Dec-2016

 --------------------------------------------------
 # opt=(calcfc,tight,noeigentest) freq 6-31+g m062x
 --------------------------------------------------

 -----
 12182
 -----
 Symbolic Z-matrix:
 Charge =  0 Multiplicity = 1

 SCF Done:  E(RM062X) =  -344.259088917     A.U. after   16 cycles
 SCF Done:  E(RM062X) =  -344.275115450     A.U. after   17 cycles
 SCF Done:  E(RM062X) =  -344.276752993     A.U. after   17 cycles
 SCF Done:  E(RM062X) =  -344.276953274     A.U. after   14 cycles
 SCF Done:  E(RM062X) =  -344.277021924     A.U. after   13 cycles
 SCF Done:  E(RM062X) =  -344.277193308     A.U. after   14 cycles
 SCF Done:  E(RM062X) =  -344.277326194     A.U. after   14 cycles
 SCF Done:  E(RM062X) =  -344.277516013     A.U. after   14 cycles
 SCF Done:  E(RM062X) =  -344.277907230     A.U. after   14 cycles
 SCF Done:  E(RM062X) =  -344.278277217     A.U. after   14 cycles
 SCF Done:  E(RM062X) =  -344.278435551     A.U. after   13 cycles
 SCF Done:  E(RM062X) =  -344.278464365     A.U. after   14 cycles
 SCF Done:  E(RM062X) =  -344.278522778     A.U. after   14 cycles
 SCF Done:  E(RM062X) =  -344.278529553     A.U. after   12 cycles
 SCF Done:  E(RM062X) =  -344.278529730     A.U. after   11 cycles
 SCF Done:  E(RM062X) =  -344.278529734     A.U. after    8 cycles
 SCF Done:  E(RM062X) =  -344.278529735     A.U. after    7 cycles
 Optimization completed.
    -- Stationary point found.
 Normal termination of Gaussian 16 at Sun Jun  1 11:48:03 2025.

 ------------------------------------------------------------------
 #N Geom=AllCheck Guess=TCheck SCRF=Check GenChk RM062X/6-31+G Freq
 ------------------------------------------------------------------

 Structure from the checkpoint file:  "ethyl_propiolate.chk"
 -----
 12182
 -----
 Charge =  0 Multiplicity = 1

                         Standard orientation:
 ---------------------------------------------------------------------
 Center     Atomic      Atomic             Coordinates (Angstroms)
 Number     Number       Type             X           Y           Z
 ---------------------------------------------------------------------
      1          8           0       -0.401876   -0.357394   -0.000001
      2          8           0        0.645171    1.664072    0.000004
      3          6           0       -1.707238    0.320233   -0.000006
      4          6           0       -2.753517   -0.771976    0.000004
      5          6           0        0.699658    0.435165    0.000001
      6          6           0        1.919475   -0.335637   -0.000002
      7          6           0        2.964568   -0.941497   -0.000003
      8          1           0       -1.758980    0.957627    0.886693
      9          1           0       -1.758980    0.957610   -0.886718
     10          1           0       -3.753812   -0.329831    0.000023
     11          1           0       -2.650647   -1.401926   -0.886379
     12          1           0       -2.650618   -1.401935    0.886378
     13          1           0        3.889005   -1.472698    0.000016
 ---------------------------------------------------------------------

 SCF Done:  E(RM062X) =  -344.278529735     A.U. after    2 cycles

 The electronic state is 1-A.
 Alpha  occ. eigenvalues --  -19.70564 -19.66317 -10.73008 -10.61928 -10.59184
 Alpha  occ. eigenvalues --  -10.58866 -10.55007  -1.25949  -1.16705  -0.91008
 Alpha  occ. eigenvalues --   -0.87771  -0.77905  -0.70691  -0.65008  -0.61279
 Alpha  occ. eigenvalues --   -0.58805  -0.56670  -0.51838  -0.48906  -0.47404
 Alpha  occ. eigenvalues --   -0.44169  -0.43333  -0.39086  -0.38241  -0.37354
 Alpha  occ. eigenvalues --   -0.36457
 Alpha virt. eigenvalues --   -0.02464   0.02252   0.02678   0.03606   0.04241
 Alpha virt. eigenvalues --    0.04538   0.04689   0.06881   0.07304   0.08056
 Alpha virt. eigenvalues --    0.09065   0.09324   0.10218   0.11563   0.13561

 Mulliken charges:
               1
     1  O   -0.277425
     2  O   -0.366324
     3  C   -0.064590
     4  C   -0.735283
     5  C   -0.446409
     6  C    0.344497
     7  C    0.097709
     8  H    0.225717
     9  H    0.225716
    10  H    0.206747
    11  H    0.220411
    12  H    0.220412
    13  H    0.348822
 Sum of Mulliken charges =  -0.00000

 Dipole moment (field-independent basis, Debye):
    X=             -0.7722    Y=             -1.9512    Z=              0.0000  Tot=              2.0984
 Quadrupole moment (field-independent basis, Debye-Ang):
   XX=            -28.7749   YY=            -47.1513   ZZ=            -41.3561
   XY=             -6.5444   XZ=              0.0001   YZ=             -0.0001

  Exact polarizability:  81.502  -9.693  59.581  -0.000   0.000  39.414
 Approx polarizability:  83.017 -16.048  75.583  -0.000   0.000  42.360

                      1                      2                      3
                      A                      A                      A
 Frequencies --     68.2546               128.5953               134.7643
 Red. masses --      2.9796                 2.2287                 3.7427
 Frc consts  --      0.0082                 0.0217                 0.0400
 IR Inten    --      0.4704                 7.3354                 5.6630

                      4                      5                      6
                      A                      A                      A
 Frequencies --    247.5739               262.2402               351.6122
 Red. masses --      1.2226                 4.7969                 4.1065
 Frc consts  --      0.0442                 0.1944                 0.2991
 IR Inten    --      1.1226                 4.7265                 0.0074

                      7                      8                      9
                      A                      A                      A
 Frequencies --    379.0190               539.4949               640.5401
 Red. masses --      3.4133                 5.4900                 5.3128
 Frc consts  --      0.2889                 0.9414                 1.2843
 IR Inten    --     12.6843                 1.4481                11.9747

                     10                     11                     12
                      A                      A                      A
 Frequencies --    797.9283               806.4475               837.4029
 Red. masses --      2.3320                 1.4693                 1.1047
 Frc consts  --      0.8748                 0.5630                 0.4564
 IR Inten    --     77.3091                59.8836                 0.1170

                     13                     14                     15
                      A                      A                      A
 Frequencies --    872.4195               880.3813               957.3702
 Red. masses --      2.4837                 3.5582                 5.5058
 Frc consts  --      1.1138                 1.6249                 2.9733
 IR Inten    --      8.8717                 9.0927                 4.8852

                     16                     17                     18
                      A                      A                      A
 Frequencies --   1080.4817              1164.3605              1199.3805
 Red. masses --      2.9454                 2.1341                 1.4802
 Frc consts  --      2.0259                 1.7047                 1.2545
 IR Inten    --     41.7848                 5.1354                 7.2415

                     19                     20                     21
                      A                      A                      A
 Frequencies --   1294.0419              1311.7748              1430.8856
 Red. masses --      7.3435                 1.1240                 1.4044
 Frc consts  --      7.2452                 1.1396                 1.6941
 IR Inten    --    702.7393                 0.8103                 8.6279

                     22                     23                     24
                      A                      A                      A
 Frequencies --   1466.6955              1527.9679              1540.3119
 Red. masses --      1.2752                 1.0405                 1.0496
 Frc consts  --      1.6162                 1.4313                 1.4673
 IR Inten    --     13.8863                11.4766                 5.6019

                     25                     26                     27
                      A                      A                      A
 Frequencies --   1552.8219              1727.8048              2285.1972
 Red. masses --      1.0824                12.1260                 5.8016
 Frc consts  --      1.5378                21.3283                17.8502
 IR Inten    --     11.4302               305.6368                78.6518

                     28                     29                     30
                      A                      A                      A
 Frequencies --   3092.1388              3106.4425              3154.6245
 Red. masses --      1.0353                 1.0574                 1.1069
 Frc consts  --      5.8324                 6.0121                 6.4900
 IR Inten    --     14.6500                 9.0835                 4.1097

                     31                     32                     33
                      A                      A                      A
 Frequencies --   3171.5424              3186.2116              3519.2959
 Red. masses --      1.0995                 1.1035                 1.1703
 Frc consts  --      6.5158                 6.6005                 8.5399
 IR Inten    --     17.2853                25.3835                57.5992

 - Thermochemistry -
 -------------------
 Temperature   298.150 Kelvin.  Pressure   1.00000 Atm.
 Atom     1 has atomic number  8 and mass  15.99491

 Molecular mass:    98.03678 amu.
 Principal axes and moments of inertia in atomic units:
                           1         2         3
     Eigenvalues --   286.326901224.888861488.58644
           X            1.00000  -0.00069   0.00000
           Y            0.00069   1.00000  -0.00000
           Z           -0.00000   0.00000   1.00000
 This molecule is an asymmetric top.
 Rotational symmetry number  1.
 Rotational temperatures (Kelvin)      0.30250     0.07071     0.05819
 Rotational constants (GHZ):           6.30308     1.47339     1.21239
 Zero-point vibrational energy     267461.2 (Joules/Mol)
                                   63.92477 (Kcal/Mol)
 Warning -- explicit consideration of   8 degrees of freedom as
           vibrations may cause significant error
 Vibrational temperatures:     98.20   185.02   193.90   356.20   377.31
          (Kelvin)            505.89   545.32   776.21   921.59  1148.04
                             1160.30  1204.84  1255.22  1266.67  1377.44
                             1554.57  1675.26  1725.64  1861.84  1887.35
                             2058.73  2110.25  2198.40  2216.17  2234.16
                             2485.93  3287.89  4448.90  4469.48  4538.80
                             4563.14  4584.25  5063.48

 Zero-point correction=                           0.101871 (Hartree/Particle)
 Thermal correction to Energy=                    0.109334
 Thermal correction to Enthalpy=                  0.110278
 Thermal correction to Gibbs Free Energy=         0.069757
 Sum of electronic and zero-point Energies=           -344.176659
 Sum of electronic and thermal Energies=              -344.169196
 Sum of electronic and thermal Enthalpies=            -344.168252
 Sum of electronic and thermal Free Energies=         -344.208773

                     E (Thermal)             CV                S
                      KCal/Mol        Cal/Mol-Kelvin    Cal/Mol-Kelvin
 Total                   68.608             25.295             85.284
 Electronic               0.000              0.000              0.000
 Translational            0.889              2.981             39.659
 Rotational               0.889              2.981             27.748
 Vibrational             66.831             19.333             17.878
 Vibration     1          0.598              1.969              4.203
 Vibration     2          0.611              1.925              2.967
 Vibration     3          0.613              1.919              2.877
 Vibration     4          0.661              1.767              1.748
 Vibration     5          0.670              1.742              1.647
 Vibration     6          0.728              1.572              1.159
 Vibration     7          0.749              1.515              1.043
 Vibration     8          0.895              1.163              0.566

 Optimization completed.
    -- Stationary point found.
 Normal termination of Gaussian 16 at Sun Jun  1 11:48:25 2025.
