 Gaussian 16, Revision A.03,
 Gaussian 16:  ES64L-G16RevA.03 25-Dec-2016

 --------------------------------------------------
 # opt=(calcfc,tight,noeigentest) freq 6-31+g m062x
 --------------------------------------------------

 -----
 12182
 -----
 Symbolic Z-matrix:
 Charge =  0 Multiplicity = 1

 SCF Done:  E(RM062X) =  -344.274704982     A.U. after   15 cycles
 SCF Done:  E(RM062X) =  -344.278389686     A.U. after   15 cycles
 SCF Done:  E(RM062X) =  -344.278407165     A.U. after   16 cycles
 SCF Done:  E(RM062X) =  -344.278476364     A.U. after   14 cycles
 SCF Done:  E(RM062X) =  -344.278489915     A.U. after   12 cycles
 SCF Done:  E(RM062X) =  -344.278490875     A.U. after   12 cycles
 SCF Done:  E(RM062X) =  -344.278491153     A.U. after   11 cycles
 SCF Done:  E(RM062X) =  -344.278491147     A.U. after    8 cycles
 SCF Done:  E(RM062X) =  -344.278491155     A.U. after    7 cycles
 SCF Done:  E(RM062X) =  -344.278491154     A.U. after    6 cycles
 SCF Done:  E(RM062X) =  -344.278491147     A.U. after    8 cycles
 Optimization completed on the basis of negligible forces.
    -- Stationary point found.
 Normal termination of Gaussian 16 at Sun Jun  1 11:52:24 2025.

 ------------------------------------------------------------------
 #N Geom=AllCheck Guess=TCheck SCRF=Check GenChk RM062X/6-31+G Freq
 ------------------------------------------------------------------

 Structure from the checkpoint file:  "ethyl_propiolate.chk"
 -----
 12182
 -----
 Charge =  0 Multiplicity = 1

                         Standard orientation:
 ---------------------------------------------------------------------
 Center     Atomic      Atomic             Coordinates (Angstroms)
 Number     Number       Type             X           Y           Z
 ---------------------------------------------------------------------
      1          8           0        0.295673   -0.712674   -0.342955
      2          8           0       -0.204452    1.502805   -0.139979
      3          6           0        1.712403   -0.384954   -0.571648
      4          6           0        2.414911   -0.113116    0.746550
      5          6           0       -0.555524    0.323624   -0.132548
      6          6           0       -1.907176   -0.129164    0.091167
      7          6           0       -3.050653   -0.467612    0.284057
      8          1           0        2.096564   -1.272899   -1.071707
      9          1           0        1.760048    0.476275   -1.242027
     10          1           0        3.482580    0.048824    0.570772
     11          1           0        2.007517    0.780529    1.224944
     12          1           0        2.300989   -0.964843    1.421569
     13          1           0       -4.061234   -0.761600    0.454453
 ---------------------------------------------------------------------

 SCF Done:  E(RM062X) =  -344.278491147     A.U. after    1 cycles

 The electronic state is 1-A.
 Alpha  occ. eigenvalues --  -19.70491 -19.66300 -10.73084 -10.61842 -10.59178
 Alpha  occ. eigenvalues --  -10.58852 -10.54783  -1.25870  -1.16680  -0.90876
 Alpha  occ. eigenvalues --   -0.87484  -0.78320  -0.71301  -0.63955  -0.61429
 Alpha  occ. eigenvalues --   -0.57603  -0.55844  -0.53921  -0.49272  -0.46805
 Alpha  occ. eigenvalues --   -0.45078  -0.42127  -0.39112  -0.38114  -0.37336
 Alpha  occ. eigenvalues --   -0.36426
 Alpha virt. eigenvalues --   -0.02519   0.02223   0.02383   0.03577   0.03841
 Alpha virt. eigenvalues --    0.04692   0.05225   0.06575   0.07708   0.08242
 Alpha virt. eigenvalues --    0.08853   0.08984   0.09625   0.11755   0.12501

 Mulliken charges:
               1
     1  O   -0.225895
     2  O   -0.359630
     3  C   -0.237431
     4  C   -0.563650
     5  C   -0.508875
     6  C    0.219973
     7  C    0.207071
     8  H    0.220559
     9  H    0.234954
    10  H    0.207804
    11  H    0.237163
    12  H    0.219982
    13  H    0.347975
 Sum of Mulliken charges =  -0.00000

 Dipole moment (field-independent basis, Debye):
    X=              0.3016    Y=             -1.8121    Z=              0.0951  Tot=              1.8395
 Quadrupole moment (field-independent basis, Debye-Ang):
   XX=            -27.1177   YY=            -48.2331   ZZ=            -41.0565
   XY=              1.8662   XZ=             -2.1607   YZ=             -0.1742

  Exact polarizability:  84.543   5.936  53.366  -4.880  -0.754  41.445
 Approx polarizability:  89.749  11.970  68.919  -7.793  -1.245  43.454

                      1                      2                      3
                      A                      A                      A
 Frequencies --     80.2092               105.2315               168.6324
 Red. masses --      3.4754                 3.7262                 2.4660
 Frc consts  --      0.0132                 0.0243                 0.0413
 IR Inten    --      4.4887                 1.4921                 7.3002

                      4                      5                      6
                      A                      A                      A
 Frequencies --    226.7392               308.1220               336.8432
 Red. masses --      1.3239                 3.1123                 3.5229
 Frc consts  --      0.0401                 0.1741                 0.2355
 IR Inten    --      1.5582                 5.6886                 7.7621

                      7                      8                      9
                      A                      A                      A
 Frequencies --    427.3895               567.2918               626.9292
 Red. masses --      4.0228                 4.0268                 5.3451
 Frc consts  --      0.4329                 0.7635                 1.2378
 IR Inten    --      2.8788                 3.9780                12.2423

                     10                     11                     12
                      A                      A                      A
 Frequencies --    795.1938               802.2731               817.3702
 Red. masses --      2.5794                 1.4763                 1.4929
 Frc consts  --      0.9610                 0.5599                 0.5877
 IR Inten    --     74.3953                69.7815                 3.1083

                     13                     14                     15
                      A                      A                      A
 Frequencies --    870.7798               875.1440               932.3525
 Red. masses --      2.2420                 2.5406                 2.9677
 Frc consts  --      1.0016                 1.1464                 1.5200
 IR Inten    --     11.2980                 7.6164                 2.0381

                     16                     17                     18
                      A                      A                      A
 Frequencies --   1071.6413              1146.2626              1220.1950
 Red. masses --      3.8168                 1.9712                 1.7019
 Frc consts  --      2.5825                 1.5260                 1.4930
 IR Inten    --     25.6095                24.6309                 3.0369

                     19                     20                     21
                      A                      A                      A
 Frequencies --   1285.3029              1341.6895              1426.9336
 Red. masses --      5.2236                 1.1751                 1.3297
 Frc consts  --      5.0843                 1.2463                 1.5951
 IR Inten    --    602.8686                51.9716                14.3973

                     22                     23                     24
                      A                      A                      A
 Frequencies --   1458.2326              1528.5843              1531.4559
 Red. masses --      1.2368                 1.0492                 1.0883
 Frc consts  --      1.5495                 1.4444                 1.5039
 IR Inten    --     20.4433                18.1595                10.2331

                     25                     26                     27
                      A                      A                      A
 Frequencies --   1545.5179              1727.3967              2284.2704
 Red. masses --      1.0519                11.0971                 5.8007
 Frc consts  --      1.4804                19.5095                17.8330
 IR Inten    --     14.2782               278.4789                80.7276

                     28                     29                     30
                      A                      A                      A
 Frequencies --   3088.6616              3125.4860              3167.4635
 Red. masses --      1.0353                 1.0610                 1.0983
 Frc consts  --      5.8191                 6.1065                 6.4923
 IR Inten    --     13.6062                16.2339                20.5496

                     31                     32                     33
                      A                      A                      A
 Frequencies --   3175.1114              3201.8005              3518.4937
 Red. masses --      1.1023                 1.1066                 1.1702
 Frc consts  --      6.5476                 6.6842                 8.5357
 IR Inten    --      1.6217                15.3224                57.5321

 - Thermochemistry -
 -------------------
 Temperature   298.150 Kelvin.  Pressure   1.00000 Atm.
 Atom     1 has atomic number  8 and mass  15.99491

 Molecular mass:    98.03678 amu.
 Principal axes and moments of inertia in atomic units:
                           1         2         3
     Eigenvalues --   268.131421186.831351306.02038
           X            0.99998   0.00249   0.00527
           Y           -0.00250   1.00000   0.00057
           Z           -0.00527  -0.00059   0.99999
 This molecule is an asymmetric top.
 Rotational symmetry number  1.
 Rotational temperatures (Kelvin)      0.32303     0.07298     0.06632
 Rotational constants (GHZ):           6.73081     1.52064     1.38186
 Zero-point vibrational energy     267873.8 (Joules/Mol)
                                   64.02337 (Kcal/Mol)
 Warning -- explicit consideration of   8 degrees of freedom as
           vibrations may cause significant error
 Vibrational temperatures:    115.40   151.40   242.62   326.23   443.32
          (Kelvin)            484.64   614.92   816.21   902.01  1144.11
                             1154.29  1176.01  1252.86  1259.14  1341.45
                             1541.85  1649.22  1755.59  1849.26  1930.39
                             2053.04  2098.07  2199.29  2203.42  2223.66
                             2485.34  3286.56  4443.90  4496.88  4557.27
                             4568.28  4606.68  5062.33

 Zero-point correction=                           0.102028 (Hartree/Particle)
 Thermal correction to Energy=                    0.109395
 Thermal correction to Enthalpy=                  0.110339
 Thermal correction to Gibbs Free Energy=         0.070201
 Sum of electronic and zero-point Energies=           -344.176463
 Sum of electronic and thermal Energies=              -344.169096
 Sum of electronic and thermal Enthalpies=            -344.168152
 Sum of electronic and thermal Free Energies=         -344.208290

                     E (Thermal)             CV                S
                      KCal/Mol        Cal/Mol-Kelvin    Cal/Mol-Kelvin
 Total                   68.647             25.204             84.479
 Electronic               0.000              0.000              0.000
 Translational            0.889              2.981             39.659
 Rotational               0.889              2.981             27.521
 Vibrational             66.869             19.242             17.299
 Vibration     1          0.600              1.963              3.886
 Vibration     2          0.605              1.945              3.355
 Vibration     3          0.625              1.881              2.451
 Vibration     4          0.650              1.800              1.905
 Vibration     5          0.698              1.658              1.372
 Vibration     6          0.718              1.602              1.227
 Vibration     7          0.789              1.411              0.867
 Vibration     8          0.923              1.102              0.509

 Optimization completed.
    -- Stationary point found.
 Normal termination of Gaussian 16 at Sun Jun  1 11:52:39 2025.
