 Gaussian 16, Revision A.03,
 Gaussian 16:  ES64L-G16RevA.03 25-Dec-2016

 -------------------
 # freq 6-31+g m062x
 -------------------

 -------------------
 Title Card Required
 -------------------
 Symbolic Z-matrix:
 Charge =  0 Multiplicity = 2

                         Standard orientation:
 ---------------------------------------------------------------------
 Center     Atomic      Atomic             Coordinates (Angstroms)
 Number     Number       Type             X           Y           Z
 ---------------------------------------------------------------------
      1          6           0       -2.814891   -0.443698   -0.386411
      2          1           0       -3.862092   -0.434512   -0.580593
      3          6           0       -1.636553   -0.436894   -0.150012
      4          6           0       -0.222728   -0.622303    0.167439
      5          8           0        0.154327   -1.129848    1.184185
      6          8           0        0.556098   -0.204833   -0.830132
      7          6           0        1.976131   -0.348208   -0.618930
      8          6           0        2.505360    0.766433    0.260648
      9          1           0        2.398527   -0.309688   -1.621512
     10          1           0        2.166162   -1.328961   -0.181407
     11          1           0        3.588235    0.671065    0.361877
     12          1           0        2.281770    1.738589   -0.180994
     13          1           0        2.058690    0.716251    1.253731
     14          8           0       -1.451969    1.764059    0.379213
     15          1           0       -1.542865    2.020252   -0.553636
 ---------------------------------------------------------------------

 SCF Done:  E(UM062X) =  -419.959936418     A.U. after   23 cycles

 The electronic state is 2-A.
 Alpha  occ. eigenvalues --  -19.70666 -19.69996 -19.66186 -10.72948 -10.61582
 Alpha  occ. eigenvalues --  -10.59509 -10.59187 -10.54427  -1.27965  -1.18636
 Alpha  occ. eigenvalues --   -1.14374  -0.91398  -0.87991  -0.78589  -0.71220
 Alpha  occ. eigenvalues --   -0.64695  -0.62018  -0.58561  -0.56949  -0.54809
 Alpha  occ. eigenvalues --   -0.53907  -0.50450  -0.48968  -0.46629  -0.45234
 Alpha  occ. eigenvalues --   -0.42495  -0.42045  -0.39360  -0.38309  -0.36825
 Alpha  occ. eigenvalues --   -0.36062
 Alpha virt. eigenvalues --   -0.01154   0.01935   0.02346   0.03527   0.03794
 Alpha virt. eigenvalues --    0.03840   0.05200   0.06476   0.07492   0.08157
 Alpha virt. eigenvalues --    0.08476   0.08995   0.09642   0.12080   0.12535

  Beta  occ. eigenvalues --  -19.70671 -19.68357 -19.66199 -10.72936 -10.61582
  Beta  occ. eigenvalues --  -10.59490 -10.59098 -10.54427  -1.27973  -1.18660
  Beta  occ. eigenvalues --   -1.07176  -0.91155  -0.87781  -0.78505  -0.71133
  Beta  occ. eigenvalues --   -0.64665  -0.61762  -0.58466  -0.56793  -0.53956
  Beta  occ. eigenvalues --   -0.51659  -0.49428  -0.46888  -0.45273  -0.42049
  Beta  occ. eigenvalues --   -0.40187  -0.38763  -0.38132  -0.37908  -0.36628
  Beta virt. eigenvalues --   -0.08944  -0.00672   0.01972   0.02386   0.03612
  Beta virt. eigenvalues --    0.03821   0.04059   0.05177   0.06612   0.07560
  Beta virt. eigenvalues --    0.08113   0.08571   0.09065   0.09717   0.12200

 Mulliken charges and spin densities:
               1          2
     1  C   -0.129539   0.083787
     2  H    0.341097  -0.005810
     3  C   -0.139580  -0.014881
     4  C    0.138090   0.049553
     5  O   -0.322261  -0.005242
     6  O   -0.216432  -0.002938
     7  C   -0.230579  -0.001341
     8  C   -0.563084   0.000730
     9  H    0.217985  -0.000002
    10  H    0.233379  -0.000085
    11  H    0.206696  -0.000008
    12  H    0.217762  -0.000062
    13  H    0.244477  -0.000078
    14  O   -0.402606   0.931795
    15  H    0.404594  -0.035417
 Sum of Mulliken charges =  -0.00000   1.00000

 Dipole moment (field-independent basis, Debye):
    X=              0.1547    Y=              0.7776    Z=             -3.2501  Tot=              3.3455
 Quadrupole moment (field-independent basis, Debye-Ang):
   XX=            -33.3471   YY=            -48.1258   ZZ=            -52.5154
   XY=              0.6132   XZ=              3.2630   YZ=             -0.6574

  Exact polarizability:  86.824   3.854  60.271   4.590  -1.737  55.781
 Approx polarizability:  92.389   1.830  61.110   8.999  -6.828  69.280

 ******    3 imaginary frequencies (negative Signs) ******

                      1                      2                      3
                      A                      A                      A
 Frequencies --   -487.1077              -163.9314               -47.5364
 Red. masses --      1.0755                 2.5119                 4.3783
 Frc consts  --      0.1503                 0.0398                 0.0058
 IR Inten    --    127.7211                36.7175                 1.2376

                      4                      5                      6
                      A                      A                      A
 Frequencies --     24.6874                84.6193                93.1985
 Red. masses --      2.9159                 4.2403                 4.3987
 Frc consts  --      0.0010                 0.0179                 0.0225
 IR Inten    --      4.7363                 5.3738                 6.8263

                      7                      8                      9
                      A                      A                      A
 Frequencies --    130.5825               183.3268               213.5547
 Red. masses --      2.5787                 1.3672                 3.4203
 Frc consts  --      0.0259                 0.0271                 0.0919
 IR Inten    --     26.0452                 1.9155                 2.5117

                     10                     11                     12
                      A                      A                      A
 Frequencies --    298.7863               314.9397               420.7999
 Red. masses --      2.1875                 3.0233                 3.8532
 Frc consts  --      0.1151                 0.1767                 0.4020
 IR Inten    --     63.6751                14.5832                 1.9034

                     13                     14                     15
                      A                      A                      A
 Frequencies --    569.3650               627.7957               757.8951
 Red. masses --      4.1342                 5.5657                 3.5835
 Frc consts  --      0.7896                 1.2924                 1.2128
 IR Inten    --      3.8383                16.1407                80.1989

                     16                     17                     18
                      A                      A                      A
 Frequencies --    789.9324               800.4353               818.4063
 Red. masses --      1.3794                 1.7188                 1.2956
 Frc consts  --      0.5071                 0.6488                 0.5113
 IR Inten    --     57.6410                15.4696                 3.1131

                     19                     20                     21
                      A                      A                      A
 Frequencies --    899.7219               944.8045              1113.4232
 Red. masses --      3.4009                 2.5177                 4.1753
 Frc consts  --      1.6221                 1.3242                 3.0497
 IR Inten    --     17.9310                 5.1315                 7.8486

                     22                     23                     24
                      A                      A                      A
 Frequencies --   1158.8458              1228.0185              1323.6620
 Red. masses --      2.0906                 1.7598                 2.2896
 Frc consts  --      1.6541                 1.5636                 2.3636
 IR Inten    --     17.9053                 5.3225               378.0239

                     25                     26                     27
                      A                      A                      A
 Frequencies --   1369.4661              1442.8649              1458.3710
 Red. masses --      1.5959                 1.3522                 1.2631
 Frc consts  --      1.7635                 1.6586                 1.5827
 IR Inten    --    234.9667                29.4399                18.0087

                     28                     29                     30
                      A                      A                      A
 Frequencies --   1526.8773              1536.8290              1544.1880
 Red. masses --      1.0416                 1.0608                 1.0820
 Frc consts  --      1.4308                 1.4762                 1.5201
 IR Inten    --     13.9406                 3.2553                26.0350

                     31                     32                     33
                      A                      A                      A
 Frequencies --   1918.1614              2306.1698              3107.7529
 Red. masses --     12.3177                 5.6551                 1.0353
 Frc consts  --     26.7024                17.7205                 5.8912
 IR Inten    --    304.2138                65.0118                13.4728

                     34                     35                     36
                      A                      A                      A
 Frequencies --   3136.9314              3185.9993              3191.2500
 Red. masses --      1.0599                 1.1008                 1.1026
 Frc consts  --      6.1449                 6.5836                 6.6160
 IR Inten    --     21.2738                13.9452                 8.1558

                     37                     38                     39
                      A                      A                      A
 Frequencies --   3211.7719              3531.0361              3804.2333
 Red. masses --      1.1047                 1.1745                 1.0671
 Frc consts  --      6.7140                 8.6280                 9.0991
 IR Inten    --     16.6317                60.5867                12.0175

 - Thermochemistry -
 -------------------
 Temperature   298.150 Kelvin.  Pressure   1.00000 Atm.
 Atom     1 has atomic number  6 and mass  12.00000

 Molecular mass:   115.03952 amu.
 Principal axes and moments of inertia in atomic units:
                           1         2         3
     Eigenvalues --   526.220941384.586971563.70949
           X            0.99990   0.01211   0.00760
           Y           -0.01221   0.99983   0.01351
           Z           -0.00743  -0.01360   0.99988
 This molecule is an asymmetric top.
 Rotational symmetry number  1.
 Warning -- assumption of classical behavior for rotation
           may cause significant error
 Rotational temperatures (Kelvin)      0.16460     0.06256     0.05539
 Rotational constants (GHZ):           3.42963     1.30345     1.15414
    3 imaginary frequencies ignored.
 Zero-point vibrational energy     293496.0 (Joules/Mol)
                                   70.14723 (Kcal/Mol)
 Warning -- explicit consideration of  10 degrees of freedom as
           vibrations may cause significant error
 Vibrational temperatures:     35.52   121.75   134.09   187.88   263.77
          (Kelvin)            307.26   429.89   453.13   605.44   819.19
                              903.26  1090.44  1136.54  1151.65  1177.50
                             1294.50  1359.36  1601.97  1667.32  1766.84
                             1904.45  1970.36  2075.96  2098.27  2196.84
                             2211.15  2221.74  2759.81  3318.06  4471.36
                             4513.34  4583.94  4591.50  4621.02  5080.37
                             5473.44

 Zero-point correction=                           0.111787 (Hartree/Particle)
 Thermal correction to Energy=                    0.120788
 Thermal correction to Enthalpy=                  0.121732
 Thermal correction to Gibbs Free Energy=         0.075741
 Sum of electronic and zero-point Energies=           -419.848150
 Sum of electronic and thermal Energies=              -419.839148
 Sum of electronic and thermal Enthalpies=            -419.838204
 Sum of electronic and thermal Free Energies=         -419.884195

                     E (Thermal)             CV                S
                      KCal/Mol        Cal/Mol-Kelvin    Cal/Mol-Kelvin
 Total                   75.796             29.226             96.797
 Electronic               0.000              0.000              1.377
 Translational            0.889              2.981             40.136
 Rotational               0.889              2.981             28.523
 Vibrational             74.018             23.264             26.761
 Vibration     1          0.593              1.985              6.216
 Vibration     2          0.601              1.960              3.781
 Vibration     3          0.602              1.954              3.592
 Vibration     4          0.612              1.923              2.937
 Vibration     5          0.631              1.863              2.294
 Vibration     6          0.644              1.820              2.013
 Vibration     7          0.692              1.676              1.424
 Vibration     8          0.702              1.645              1.336
 Vibration     9          0.783              1.425              0.889
 Vibration    10          0.925              1.098              0.505

 Normal termination of Gaussian 16 at Fri Jun 20 13:49:01 2025.
