 Gaussian 16, Revision A.03,
 Gaussian 16:  ES64L-G16RevA.03 25-Dec-2016

 --------------------------
 # ccsd(t)/6-311++g(d,p) sp
 --------------------------

 -------------------
 Title Card Required
 -------------------
 Symbolic Z-matrix:
 Charge =  0 Multiplicity = 2

                         Standard orientation:
 ---------------------------------------------------------------------
 Center     Atomic      Atomic             Coordinates (Angstroms)
 Number     Number       Type             X           Y           Z
 ---------------------------------------------------------------------
      1          6           0       -2.788627   -0.448950   -0.426304
      2          1           0       -3.834673   -0.456016   -0.640328
      3          6           0       -1.621407   -0.090355   -0.079020
      4          6           0       -0.222881   -0.598551    0.132545
      5          8           0        0.135136   -1.218872    1.090341
      6          8           0        0.562421   -0.148651   -0.843373
      7          6           0        1.982141   -0.305024   -0.636312
      8          6           0        2.500730    0.748952    0.322296
      9          1           0        2.409486   -0.194428   -1.631212
     10          1           0        2.173621   -1.313374   -0.268090
     11          1           0        3.583251    0.649934    0.423553
     12          1           0        2.274991    1.748463   -0.051625
     13          1           0        2.048858    0.629195    1.307267
     14          8           0       -1.473412    1.506590    0.426611
     15          1           0       -1.548434    1.987265   -0.407434
 ---------------------------------------------------------------------

 SCF Done:  E(UHF) =  -417.987753835     A.U. after   29 cycles
 E2 =    -0.1268085195D+01 EUMP2 =    -0.41925583903033D+03
 CCSD(T)= -0.41937149850D+03

 The electronic state is 2-A.
 Alpha  occ. eigenvalues --  -20.61286 -20.59478 -20.56055 -11.41158 -11.31059
 Alpha  occ. eigenvalues --  -11.29717 -11.28625 -11.22423  -1.48256  -1.38050
 Alpha  occ. eigenvalues --   -1.35246  -1.08863  -1.04580  -0.92805  -0.84096
 Alpha  occ. eigenvalues --   -0.76810  -0.73154  -0.69700  -0.68633  -0.65483
 Alpha  occ. eigenvalues --   -0.62754  -0.60511  -0.57794  -0.54789  -0.54009
 Alpha  occ. eigenvalues --   -0.52279  -0.50415  -0.47466  -0.46308  -0.44100
 Alpha  occ. eigenvalues --   -0.41693
 Alpha virt. eigenvalues --    0.03700   0.04412   0.05712   0.06276   0.07325
 Alpha virt. eigenvalues --    0.08800   0.09654   0.10726   0.11136   0.12384
 Alpha virt. eigenvalues --    0.13294   0.13601   0.14300   0.15916   0.16576

  Beta  occ. eigenvalues --  -20.61291 -20.57565 -20.56295 -11.40833 -11.33161
  Beta  occ. eigenvalues --  -11.29720 -11.25411 -11.22425  -1.48343  -1.38440
  Beta  occ. eigenvalues --   -1.29685  -1.07160  -1.03150  -0.91221  -0.82517
  Beta  occ. eigenvalues --   -0.76395  -0.71444  -0.69868  -0.68024  -0.64664
  Beta  occ. eigenvalues --   -0.62467  -0.57967  -0.55826  -0.54085  -0.52271
  Beta  occ. eigenvalues --   -0.50414  -0.49671  -0.46917  -0.46410  -0.42598
  Beta virt. eigenvalues --    0.03779   0.04218   0.04465   0.06234   0.06650
  Beta virt. eigenvalues --    0.07566   0.09073   0.09625   0.10382   0.11931
  Beta virt. eigenvalues --    0.12900   0.13575   0.13913   0.15860   0.16243

 Mulliken charges and spin densities:
               1          2
     1  C    0.115449   1.686064
     2  H    0.249580  -0.103610
     3  C   -0.052146  -1.097890
     4  C   -0.174105   0.154829
     5  O   -0.272602  -0.047318
     6  O   -0.081443   0.003153
     7  C   -0.175840   0.001299
     8  C   -0.390375   0.000649
     9  H    0.160922   0.000029
    10  H    0.177825   0.000023
    11  H    0.136353  -0.000111
    12  H    0.142044   0.000010
    13  H    0.185288  -0.000794
    14  O   -0.269069   0.416060
    15  H    0.248118  -0.012391
 Sum of Mulliken charges =  -0.00000   1.00000

 Dipole moment (field-independent basis, Debye):
    X=             -0.1004    Y=              0.5883    Z=             -3.2998  Tot=              3.3534
 Quadrupole moment (field-independent basis, Debye-Ang):
   XX=            -33.4504   YY=            -48.8155   ZZ=            -51.6140
   XY=              1.2157   XZ=              3.3335   YZ=             -0.1179

 SDQ=-419.3112841\CCSD=-419.3167955\CCSD(T)=-419.3714985\S2=1.021849\S2
 Normal termination of Gaussian 16 at Tue Aug 19 17:51:09 2025.
