 Gaussian 16, Revision A.03,
 Gaussian 16:  ES64L-G16RevA.03 25-Dec-2016

 -------------------
 # freq 6-31+g m062x
 -------------------

 -------------------
 Title Card Required
 -------------------
 Symbolic Z-matrix:
 Charge =  0 Multiplicity = 2

                         Standard orientation:
 ---------------------------------------------------------------------
 Center     Atomic      Atomic             Coordinates (Angstroms)
 Number     Number       Type             X           Y           Z
 ---------------------------------------------------------------------
      1          6           0       -2.795028   -0.442773   -0.417977
      2          1           0       -3.838106   -0.479250   -0.636330
      3          6           0       -1.623418   -0.152246   -0.094618
      4          6           0       -0.220582   -0.598738    0.140018
      5          8           0        0.137048   -1.203444    1.107509
      6          8           0        0.561664   -0.158862   -0.841364
      7          6           0        1.981456   -0.313673   -0.633324
      8          6           0        2.501598    0.751916    0.311189
      9          1           0        2.407740   -0.216266   -1.630041
     10          1           0        2.172185   -1.317491   -0.252427
     11          1           0        3.584139    0.653426    0.412761
     12          1           0        2.276059    1.746625   -0.075333
     13          1           0        2.050286    0.645076    1.297860
     14          8           0       -1.469425    1.550534    0.419706
     15          1           0       -1.550749    1.995148   -0.435029
 ---------------------------------------------------------------------

 SCF Done:  E(UM062X) =  -419.960002841     A.U. after   20 cycles

 The electronic state is 2-A.
 Alpha  occ. eigenvalues --  -19.70888 -19.66873 -19.66712 -10.73068 -10.64169
 Alpha  occ. eigenvalues --  -10.61724 -10.61265 -10.54492  -1.28388  -1.19056
 Alpha  occ. eigenvalues --   -1.12185  -0.92320  -0.88592  -0.78916  -0.71671
 Alpha  occ. eigenvalues --   -0.65095  -0.62906  -0.59410  -0.57527  -0.54424
 Alpha  occ. eigenvalues --   -0.53710  -0.49387  -0.48288  -0.46607  -0.45404
 Alpha  occ. eigenvalues --   -0.42231  -0.41426  -0.38540  -0.37804  -0.37597
 Alpha  occ. eigenvalues --   -0.31531
 Alpha virt. eigenvalues --   -0.00292   0.01658   0.02169   0.02648   0.03643
 Alpha virt. eigenvalues --    0.03879   0.05150   0.06530   0.07448   0.08021
 Alpha virt. eigenvalues --    0.08519   0.09048   0.09517   0.11437   0.12498

  Beta  occ. eigenvalues --  -19.70887 -19.66728 -19.66037 -10.73008 -10.64345
  Beta  occ. eigenvalues --  -10.61723 -10.60693 -10.54493  -1.28369  -1.19069
  Beta  occ. eigenvalues --   -1.09404  -0.91257  -0.87781  -0.78438  -0.71027
  Beta  occ. eigenvalues --   -0.64896  -0.61949  -0.59180  -0.57307  -0.54013
  Beta  occ. eigenvalues --   -0.52479  -0.49134  -0.46997  -0.45375  -0.43163
  Beta  occ. eigenvalues --   -0.42078  -0.39741  -0.38496  -0.36777  -0.36225
  Beta virt. eigenvalues --   -0.09435   0.00639   0.01545   0.02352   0.02876
  Beta virt. eigenvalues --    0.03711   0.03995   0.04966   0.06376   0.07537
  Beta virt. eigenvalues --    0.07838   0.08519   0.08797   0.09569   0.11783

 Mulliken charges and spin densities:
               1          2
     1  C    0.351013   0.921352
     2  H    0.296542  -0.033120
     3  C   -0.417676  -0.343667
     4  C    0.069381   0.057366
     5  O   -0.333455  -0.005886
     6  O   -0.206314  -0.001699
     7  C   -0.245447   0.001438
     8  C   -0.561007   0.001003
     9  H    0.220438  -0.000007
    10  H    0.236389  -0.000205
    11  H    0.206684  -0.000049
    12  H    0.221871   0.000027
    13  H    0.241909   0.000053
    14  O   -0.505425   0.414082
    15  H    0.425099  -0.010690
 Sum of Mulliken charges =  -0.00000   1.00000

 Dipole moment (field-independent basis, Debye):
    X=              0.0813    Y=              0.1334    Z=             -3.3759  Tot=              3.3795
 Quadrupole moment (field-independent basis, Debye-Ang):
   XX=            -32.7107   YY=            -49.4043   ZZ=            -52.5239
   XY=              1.8857   XZ=              3.8357   YZ=             -0.4953

  Exact polarizability:  84.267   6.538  67.684   4.845   0.675  55.995
 Approx polarizability:  85.494   8.732  76.534   8.823  -2.373  69.768

 ******    3 imaginary frequencies (negative Signs) ******

                      1                      2                      3
                      A                      A                      A
 Frequencies --   -636.9693              -504.4082               -78.0122
 Red. masses --      9.8036                 1.0632                 6.8318
 Frc consts  --      2.3435                 0.1594                 0.0245
 IR Inten    --     15.5540               122.7686                 2.3402

                      4                      5                      6
                      A                      A                      A
 Frequencies --     29.0857                56.1734               139.6227
 Red. masses --      2.5777                 3.6654                 1.9724
 Frc consts  --      0.0013                 0.0068                 0.0227
 IR Inten    --      2.6583                 5.3035                 3.0350

                      7                      8                      9
                      A                      A                      A
 Frequencies --    192.7681               226.2452               262.8434
 Red. masses --      1.7240                 5.9790                 1.6146
 Frc consts  --      0.0377                 0.1803                 0.0657
 IR Inten    --      3.5096                 3.8464                24.0713

                     10                     11                     12
                      A                      A                      A
 Frequencies --    313.9449               361.8860               432.4495
 Red. masses --      3.0448                 2.8371                 3.7871
 Frc consts  --      0.1768                 0.2189                 0.4173
 IR Inten    --     16.5814                16.8696                 4.6591

                     13                     14                     15
                      A                      A                      A
 Frequencies --    579.6843               601.5440               719.4166
 Red. masses --      4.2060                 4.6391                 5.3376
 Frc consts  --      0.8327                 0.9890                 1.6276
 IR Inten    --      5.0720                15.9359                40.0016

                     16                     17                     18
                      A                      A                      A
 Frequencies --    721.0628               812.6503               882.6231
 Red. masses --      1.4316                 1.3264                 1.9573
 Frc consts  --      0.4386                 0.5161                 0.8984
 IR Inten    --     54.5791                 8.7184                29.4420

                     19                     20                     21
                      A                      A                      A
 Frequencies --    916.2205               935.9546              1104.2920
 Red. masses --      1.6872                 2.4853                 4.1955
 Frc consts  --      0.8345                 1.2827                 3.0144
 IR Inten    --     35.2381                 3.4992                11.4103

                     22                     23                     24
                      A                      A                      A
 Frequencies --   1156.8788              1226.9114              1313.7419
 Red. masses --      2.0630                 1.7525                 2.6929
 Frc consts  --      1.6268                 1.5543                 2.7384
 IR Inten    --     16.2881                 8.2610               389.8237

                     25                     26                     27
                      A                      A                      A
 Frequencies --   1363.9216              1439.6660              1458.8806
 Red. masses --      1.4736                 1.3438                 1.2461
 Frc consts  --      1.6151                 1.6410                 1.5626
 IR Inten    --    173.2614                17.3668                20.6427

                     28                     29                     30
                      A                      A                      A
 Frequencies --   1526.8207              1536.6399              1544.8157
 Red. masses --      1.0411                 1.0522                 1.0896
 Frc consts  --      1.4299                 1.4639                 1.5320
 IR Inten    --     14.6547                 2.8856                24.8726

                     31                     32                     33
                      A                      A                      A
 Frequencies --   1910.4612              1976.0873              3108.0209
 Red. masses --     10.2725                 7.7432                 1.0352
 Frc consts  --     22.0904                17.8149                 5.8915
 IR Inten    --    244.6799                81.8408                11.6992

                     34                     35                     36
                      A                      A                      A
 Frequencies --   3139.1766              3188.1505              3191.2657
 Red. masses --      1.0602                 1.1007                 1.1023
 Frc consts  --      6.1554                 6.5918                 6.6142
 IR Inten    --     20.8695                12.7334                 7.2798

                     37                     38                     39
                      A                      A                      A
 Frequencies --   3212.1514              3495.3118              3864.1324
 Red. masses --      1.1052                 1.1324                 1.0671
 Frc consts  --      6.7185                 8.1509                 9.3879
 IR Inten    --     16.2702                69.1181                34.3023

 - Thermochemistry -
 -------------------
 Temperature   298.150 Kelvin.  Pressure   1.00000 Atm.
 Atom     1 has atomic number  6 and mass  12.00000

 Molecular mass:   115.03952 amu.
 Principal axes and moments of inertia in atomic units:
                           1         2         3
     Eigenvalues --   478.951761375.837851516.79859
           X            0.99988   0.01227   0.00892
           Y           -0.01251   0.99955   0.02735
           Z           -0.00858  -0.02745   0.99959
 This molecule is an asymmetric top.
 Rotational symmetry number  1.
 Warning -- assumption of classical behavior for rotation
           may cause significant error
 Rotational temperatures (Kelvin)      0.18084     0.06295     0.05710
 Rotational constants (GHZ):           3.76811     1.31174     1.18984
    3 imaginary frequencies ignored.
 Zero-point vibrational energy     292735.2 (Joules/Mol)
                                   69.96539 (Kcal/Mol)
 Warning -- explicit consideration of  11 degrees of freedom as
           vibrations may cause significant error
 Vibrational temperatures:     41.85    80.82   200.89   277.35   325.52
          (Kelvin)            378.17   451.70   520.67   622.20   834.04
                              865.49  1035.08  1037.45  1169.22  1269.90
                             1318.24  1346.63  1588.83  1664.49  1765.25
                             1890.18  1962.38  2071.36  2099.00  2196.75
                             2210.88  2222.65  2748.73  2843.15  4471.75
                             4516.57  4587.04  4591.52  4621.57  5028.97
                             5559.62

 Zero-point correction=                           0.111497 (Hartree/Particle)
 Thermal correction to Energy=                    0.120160
 Thermal correction to Enthalpy=                  0.121104
 Thermal correction to Gibbs Free Energy=         0.076153
 Sum of electronic and zero-point Energies=           -419.848506
 Sum of electronic and thermal Energies=              -419.839843
 Sum of electronic and thermal Enthalpies=            -419.838899
 Sum of electronic and thermal Free Energies=         -419.883849

                     E (Thermal)             CV                S
                      KCal/Mol        Cal/Mol-Kelvin    Cal/Mol-Kelvin
 Total                   75.402             28.962             94.607
 Electronic               0.000              0.000              1.377
 Translational            0.889              2.981             40.136
 Rotational               0.889              2.981             28.393
 Vibrational             73.624             23.000             24.701
 Vibration     1          0.593              1.984              5.891
 Vibration     2          0.596              1.975              4.587
 Vibration     3          0.615              1.914              2.809
 Vibration     4          0.635              1.850              2.201
 Vibration     5          0.650              1.801              1.909
 Vibration     6          0.670              1.741              1.643
 Vibration     7          0.702              1.647              1.341
 Vibration     8          0.736              1.551              1.114
 Vibration     9          0.793              1.400              0.851
 Vibration    10          0.936              1.075              0.486
 Vibration    11          0.960              1.029              0.447

 Normal termination of Gaussian 16 at Fri Jun 20 13:45:02 2025.
