 Gaussian 16, Revision A.03,
 Gaussian 16:  ES64L-G16RevA.03 25-Dec-2016

 --------------------------
 # freq 6-311++g(d,p) m062x
 --------------------------

 -------------------
 Title Card Required
 -------------------
 Symbolic Z-matrix:
 Charge =  0 Multiplicity = 2

                         Standard orientation:
 ---------------------------------------------------------------------
 Center     Atomic      Atomic             Coordinates (Angstroms)
 Number     Number       Type             X           Y           Z
 ---------------------------------------------------------------------
      1          6           0       -2.793303   -0.444651   -0.420689
      2          1           0       -3.837192   -0.473312   -0.638091
      3          6           0       -1.622633   -0.131376   -0.089512
      4          6           0       -0.221187   -0.598731    0.137554
      5          8           0        0.136408   -1.208518    1.101940
      6          8           0        0.561893   -0.155538   -0.842041
      7          6           0        1.981676   -0.310883   -0.634347
      8          6           0        2.501346    0.750900    0.314790
      9          1           0        2.408265   -0.209164   -1.630505
     10          1           0        2.172609   -1.316220   -0.257614
     11          1           0        3.583878    0.652182    0.416226
     12          1           0        2.275746    1.747201   -0.067597
     13          1           0        2.049858    0.639855    1.300927
     14          8           0       -1.470640    1.535999    0.422096
     15          1           0       -1.549838    1.992359   -0.426082
 ---------------------------------------------------------------------

 SCF Done:  E(UM062X) =  -420.214307636     A.U. after   19 cycles

 The electronic state is 2-A.
 Alpha  occ. eigenvalues --  -19.68368 -19.64207 -19.63467 -10.70547 -10.62952
 Alpha  occ. eigenvalues --  -10.60631 -10.59665 -10.53624  -1.25877  -1.16653
 Alpha  occ. eigenvalues --   -1.11039  -0.91395  -0.87820  -0.78324  -0.71005
 Alpha  occ. eigenvalues --   -0.64839  -0.62235  -0.59110  -0.57477  -0.54371
 Alpha  occ. eigenvalues --   -0.53178  -0.49320  -0.48368  -0.46261  -0.45310
 Alpha  occ. eigenvalues --   -0.42096  -0.41481  -0.38645  -0.37715  -0.37303
 Alpha  occ. eigenvalues --   -0.31447
 Alpha virt. eigenvalues --   -0.00522   0.00109   0.00446   0.01486   0.02223
 Alpha virt. eigenvalues --    0.02633   0.03103   0.04381   0.05528   0.06005
 Alpha virt. eigenvalues --    0.07114   0.07852   0.08009   0.10201   0.10284

  Beta  occ. eigenvalues --  -19.68367 -19.63512 -19.63477 -10.70496 -10.63111
  Beta  occ. eigenvalues --  -10.60631 -10.59085 -10.53625  -1.25853  -1.16665
  Beta  occ. eigenvalues --   -1.08601  -0.90243  -0.86797  -0.77711  -0.70223
  Beta  occ. eigenvalues --   -0.64620  -0.61365  -0.58954  -0.57158  -0.53621
  Beta  occ. eigenvalues --   -0.52535  -0.48916  -0.46839  -0.45287  -0.43638
  Beta  occ. eigenvalues --   -0.41960  -0.39942  -0.38588  -0.36710  -0.36021
  Beta virt. eigenvalues --   -0.08943  -0.00487   0.00452   0.01043   0.01735
  Beta virt. eigenvalues --    0.02366   0.03015   0.03119   0.04564   0.05538
  Beta virt. eigenvalues --    0.05915   0.07158   0.07716   0.07970   0.10298

 Mulliken charges and spin densities:
               1          2
     1  C    0.089499   0.974962
     2  H    0.228131  -0.028197
     3  C   -0.001897  -0.345578
     4  C   -0.282712   0.057351
     5  O   -0.193769  -0.004173
     6  O    0.003260   0.000345
     7  C   -0.285573   0.001559
     8  C   -0.424202   0.001668
     9  H    0.191495   0.000267
    10  H    0.193364  -0.000138
    11  H    0.165729  -0.000057
    12  H    0.163931  -0.000243
    13  H    0.195662  -0.001043
    14  O   -0.281741   0.344501
    15  H    0.238823  -0.001224
 Sum of Mulliken charges =  -0.00000   1.00000

 Dipole moment (field-independent basis, Debye):
    X=              0.0648    Y=              0.1845    Z=             -3.1708  Tot=              3.1769
 Quadrupole moment (field-independent basis, Debye-Ang):
   XX=            -33.1028   YY=            -49.0675   ZZ=            -51.2702
   XY=              1.8822   XZ=              3.4762   YZ=             -0.3959

  Exact polarizability:  88.208   6.174  69.238   4.775   0.912  58.315
 Approx polarizability:  90.738   7.596  82.830   7.736  -1.306  75.349

 ******    1 imaginary frequencies (negative Signs) ******

                      1                      2                      3
                      A                      A                      A
 Frequencies --   -589.7366                44.1858                86.8305
 Red. masses --      8.6936                 1.5438                 3.4116
 Frc consts  --      1.7814                 0.0018                 0.0152
 IR Inten    --     39.1509                43.4879                 3.9132

                      4                      5                      6
                      A                      A                      A
 Frequencies --    108.0895               133.0240               190.9339
 Red. masses --      2.9428                 2.2983                 1.6792
 Frc consts  --      0.0203                 0.0240                 0.0361
 IR Inten    --     16.4422                23.4563                 2.8454

                      7                      8                      9
                      A                      A                      A
 Frequencies --    233.8713               248.7830               261.2446
 Red. masses --      1.5604                 1.9575                 3.0181
 Frc consts  --      0.0503                 0.0714                 0.1214
 IR Inten    --     16.6272                19.9041                 5.7848

                     10                     11                     12
                      A                      A                      A
 Frequencies --    341.1328               356.3754               444.5180
 Red. masses --      3.0416                 6.1153                 3.6815
 Frc consts  --      0.2085                 0.4576                 0.4286
 IR Inten    --     13.2641                 6.2798                 4.2087

                     13                     14                     15
                      A                      A                      A
 Frequencies --    587.7015               615.2738               701.2685
 Red. masses --      4.5134                 5.1358                 1.3434
 Frc consts  --      0.9185                 1.1455                 0.3892
 IR Inten    --      2.8414                14.5455                40.4904

                     16                     17                     18
                      A                      A                      A
 Frequencies --    778.3461               799.1442               891.9365
 Red. masses --     10.1399                 1.2142                 3.2581
 Frc consts  --      3.6193                 0.4569                 1.5272
 IR Inten    --     21.3980                 5.1296                17.2066

                     19                     20                     21
                      A                      A                      A
 Frequencies --    917.2516              1031.6496              1069.1932
 Red. masses --      2.6032                 1.1750                 4.0298
 Frc consts  --      1.2904                 0.7368                 2.7142
 IR Inten    --      1.2318                45.6753                24.3419

                     22                     23                     24
                      A                      A                      A
 Frequencies --   1127.5667              1202.1630              1271.6434
 Red. masses --      2.0901                 1.7830                 4.6163
 Frc consts  --      1.5657                 1.5182                 4.3982
 IR Inten    --     20.9228                 9.8052               541.8726

                     25                     26                     27
                      A                      A                      A
 Frequencies --   1343.4741              1401.1967              1429.7909
 Red. masses --      1.1961                 1.2674                 1.3586
 Frc consts  --      1.2720                 1.4661                 1.6364
 IR Inten    --     61.5242                16.0775                11.9429

                     28                     29                     30
                      A                      A                      A
 Frequencies --   1491.2675              1501.5793              1513.9780
 Red. masses --      1.0403                 1.0530                 1.0921
 Frc consts  --      1.3630                 1.3989                 1.4748
 IR Inten    --     10.4711                 1.1666                18.1223

                     31                     32                     33
                      A                      A                      A
 Frequencies --   1839.8374              1897.5345              3076.1286
 Red. masses --      9.5038                 8.4964                 1.0354
 Frc consts  --     18.9543                18.0245                 5.7726
 IR Inten    --    219.6864               122.4591                 9.0437

                     34                     35                     36
                      A                      A                      A
 Frequencies --   3108.4701              3152.0211              3155.2092
 Red. masses --      1.0608                 1.1017                 1.1046
 Frc consts  --      6.0394                 6.4490                 6.4792
 IR Inten    --     19.6443                14.0715                 2.9925

                     37                     38                     39
                      A                      A                      A
 Frequencies --   3175.6874              3445.0829              3850.2945
 Red. masses --      1.1072                 1.1262                 1.0676
 Frc consts  --      6.5790                 7.8756                 9.3246
 IR Inten    --     14.3476                80.9215                60.9458

 - Thermochemistry -
 -------------------
 Temperature   298.150 Kelvin.  Pressure   1.00000 Atm.
 Atom     1 has atomic number  6 and mass  12.00000

 Molecular mass:   115.03952 amu.
 Principal axes and moments of inertia in atomic units:
                           1         2         3
     Eigenvalues --   476.287991375.162001514.09475
           X            0.99989   0.01218   0.00898
           Y           -0.01243   0.99952   0.02830
           Z           -0.00864  -0.02841   0.99956
 This molecule is an asymmetric top.
 Rotational symmetry number  1.
 Warning -- assumption of classical behavior for rotation
           may cause significant error
 Rotational temperatures (Kelvin)      0.18185     0.06298     0.05721
 Rotational constants (GHZ):           3.78918     1.31238     1.19196
    1 imaginary frequencies ignored.
 Zero-point vibrational energy     292030.5 (Joules/Mol)
                                   69.79695 (Kcal/Mol)
 Warning -- explicit consideration of  13 degrees of freedom as
           vibrations may cause significant error
 Vibrational temperatures:     63.57   124.93   155.52   191.39   274.71
          (Kelvin)            336.49   357.94   375.87   490.81   512.74
                              639.56   845.57   885.24  1008.97  1119.87
                             1149.79  1283.30  1319.72  1484.31  1538.33
                             1622.32  1729.64  1829.61  1932.96  2016.01
                             2057.15  2145.60  2160.44  2178.28  2647.12
                             2730.13  4425.86  4472.40  4535.06  4539.64
                             4569.11  4956.71  5539.72

 Zero-point correction=                           0.111229 (Hartree/Particle)
 Thermal correction to Energy=                    0.120951
 Thermal correction to Enthalpy=                  0.121896
 Thermal correction to Gibbs Free Energy=         0.075429
 Sum of electronic and zero-point Energies=           -420.103079
 Sum of electronic and thermal Energies=              -420.093356
 Sum of electronic and thermal Enthalpies=            -420.092412
 Sum of electronic and thermal Free Energies=         -420.138879

                     E (Thermal)             CV                S
                      KCal/Mol        Cal/Mol-Kelvin    Cal/Mol-Kelvin
 Total                   75.898             32.519             97.798
 Electronic               0.000              0.000              1.377
 Translational            0.889              2.981             40.136
 Rotational               0.889              2.981             28.385
 Vibrational             74.121             26.558             27.900
 Vibration     1          0.595              1.980              5.062
 Vibration     2          0.601              1.958              3.730
 Vibration     3          0.606              1.943              3.303
 Vibration     4          0.613              1.920              2.902
 Vibration     5          0.634              1.852              2.219
 Vibration     6          0.654              1.789              1.849
 Vibration     7          0.662              1.765              1.739
 Vibration     8          0.669              1.744              1.653
 Vibration     9          0.721              1.593              1.207
 Vibration    10          0.732              1.562              1.138
 Vibration    11          0.804              1.373              0.813
 Vibration    12          0.945              1.058              0.471
 Vibration    13          0.975              1.000              0.424

 1\1\GINC-AJ\Freq\UM062X\6-311++G(d,p)\C5H7O3(2)\AAYUSH\16-Aug-2025\0\\
 # freq 6-311++g(d,p) m062x\\Title Card Required\\0,2\C,2.732802,-0.429
 238,0.416453\H,3.776967,-0.463566,0.631701\C,1.561576,-0.107216,0.0957
 99\C,0.160095,-0.568616,-0.142927\O,-0.198352,-1.150655,-1.123998\O,-0
 .62203,-0.154155,0.84992\C,-2.041983,-0.30424,0.639539\C,-2.563332,0.7
 84076,-0.278102\H,-2.467424,-0.231395,1.638713\H,-2.232861,-1.298448,0
 .234322\H,-3.645935,0.687727,-0.381044\H,-2.337776,1.769109,0.132465\H
 ,-2.112975,0.701635,-1.267557\O,1.408124,1.574078,-0.367542\H,1.488112

 Normal termination of Gaussian 16 at Sat Aug 16 20:22:50 2025.
