 Gaussian 16, Revision A.03,
 Gaussian 16:  ES64L-G16RevA.03 25-Dec-2016

 --------------------------
 # freq 6-311++g(d,p) m062x
 --------------------------

 -------------------
 Title Card Required
 -------------------
 Symbolic Z-matrix:
 Charge =  0 Multiplicity = 2

                         Standard orientation:
 ---------------------------------------------------------------------
 Center     Atomic      Atomic             Coordinates (Angstroms)
 Number     Number       Type             X           Y           Z
 ---------------------------------------------------------------------
      1          6           0       -2.805822   -0.437542   -0.396532
      2          1           0       -3.849741   -0.469755   -0.605882
      3          6           0       -1.631470   -0.340812   -0.134256
      4          6           0       -0.220936   -0.604876    0.159636
      5          8           0        0.145598   -1.157771    1.155653
      6          8           0        0.559812   -0.187177   -0.834635
      7          6           0        1.979056   -0.336658   -0.623846
      8          6           0        2.503658    0.761289    0.279739
      9          1           0        2.403739   -0.276939   -1.624336
     10          1           0        2.168778   -1.326097   -0.206347
     11          1           0        3.586361    0.665953    0.382529
     12          1           0        2.278947    1.741595   -0.142798
     13          1           0        2.054288    0.690387    1.270469
     14          8           0       -1.459480    1.683298    0.395020
     15          1           0       -1.556719    2.019647   -0.510378
 ---------------------------------------------------------------------

 SCF Done:  E(UM062X) =  -420.203122715     A.U. after   23 cycles

 The electronic state is 2-A.
 Alpha  occ. eigenvalues --  -19.68259 -19.66453 -19.63127 -10.70642 -10.60569
 Alpha  occ. eigenvalues --  -10.58567 -10.58095 -10.53614  -1.25691  -1.16444
 Alpha  occ. eigenvalues --   -1.12465  -0.90916  -0.87465  -0.78183  -0.70711
 Alpha  occ. eigenvalues --   -0.64574  -0.61942  -0.58650  -0.56903  -0.54538
 Alpha  occ. eigenvalues --   -0.53385  -0.50266  -0.48773  -0.46244  -0.45246
 Alpha  occ. eigenvalues --   -0.42024  -0.41984  -0.39203  -0.38482  -0.36747
 Alpha  occ. eigenvalues --   -0.34784
 Alpha virt. eigenvalues --   -0.00824  -0.00501   0.00494   0.01345   0.02199
 Alpha virt. eigenvalues --    0.02815   0.03550   0.04532   0.05441   0.06072
 Alpha virt. eigenvalues --    0.07138   0.07872   0.07944   0.10152   0.10569

  Beta  occ. eigenvalues --  -19.68264 -19.64962 -19.63145 -10.70623 -10.60569
  Beta  occ. eigenvalues --  -10.58586 -10.57919 -10.53615  -1.25698  -1.16482
  Beta  occ. eigenvalues --   -1.05942  -0.90464  -0.87073  -0.78001  -0.70527
  Beta  occ. eigenvalues --   -0.64501  -0.61531  -0.58582  -0.56626  -0.53481
  Beta  occ. eigenvalues --   -0.51809  -0.49168  -0.46672  -0.45280  -0.41979
  Beta  occ. eigenvalues --   -0.40615  -0.38774  -0.38166  -0.37454  -0.36389
  Beta virt. eigenvalues --   -0.09237  -0.00420   0.00042   0.00606   0.01666
  Beta virt. eigenvalues --    0.02275   0.02930   0.03521   0.04655   0.05538
  Beta virt. eigenvalues --    0.06070   0.07225   0.07746   0.08018   0.10294

 Mulliken charges and spin densities:
               1          2
     1  C   -0.854003   0.303773
     2  H    0.195136  -0.012814
     3  C    0.927758  -0.125444
     4  C   -0.297411   0.026628
     5  O   -0.189427  -0.007924
     6  O    0.001726  -0.002569
     7  C   -0.273324  -0.001083
     8  C   -0.424430   0.001741
     9  H    0.192457   0.000129
    10  H    0.193583  -0.000070
    11  H    0.169108   0.000030
    12  H    0.160643  -0.000403
    13  H    0.195445  -0.001329
    14  O   -0.218588   0.839581
    15  H    0.221328  -0.020245
 Sum of Mulliken charges =  -0.00000   1.00000

 Dipole moment (field-independent basis, Debye):
    X=              0.1175    Y=              0.6133    Z=             -3.0692  Tot=              3.1321
 Quadrupole moment (field-independent basis, Debye-Ang):
   XX=            -33.1419   YY=            -48.1866   ZZ=            -51.2022
   XY=              1.1684   XZ=              3.2080   YZ=             -0.3596

  Exact polarizability:  91.388   6.512  71.235   5.294   0.915  58.557
 Approx polarizability:  98.182   5.411  76.308   9.087  -3.327  75.278

 ******    2 imaginary frequencies (negative Signs) ******

                      1                      2                      3
                      A                      A                      A
 Frequencies --   -299.3710               -32.7168                49.0461
 Red. masses --     11.8793                 4.2506                 4.6620
 Frc consts  --      0.6273                 0.0027                 0.0066
 IR Inten    --     32.6246                 4.0104                 2.3971

                      4                      5                      6
                      A                      A                      A
 Frequencies --    107.7573               137.5961               155.7013
 Red. masses --      2.9553                 2.7543                 3.1334
 Frc consts  --      0.0202                 0.0307                 0.0448
 IR Inten    --     15.7610                10.8469                16.0904

                      7                      8                      9
                      A                      A                      A
 Frequencies --    187.4875               224.3983               247.8247
 Red. masses --      1.5174                 1.6280                 2.3238
 Frc consts  --      0.0314                 0.0483                 0.0841
 IR Inten    --     33.9116                 3.0480                14.7640

                     10                     11                     12
                      A                      A                      A
 Frequencies --    339.0245               426.4263               556.3606
 Red. masses --      2.9096                 3.8678                 3.9231
 Frc consts  --      0.1970                 0.4144                 0.7155
 IR Inten    --     12.0217                 1.1597                 6.5609

                     13                     14                     15
                      A                      A                      A
 Frequencies --    596.9597               672.4745               721.7264
 Red. masses --      3.7049                 1.2469                 1.3196
 Frc consts  --      0.7779                 0.3322                 0.4050
 IR Inten    --     11.2665                89.2595                13.3543

                     16                     17                     18
                      A                      A                      A
 Frequencies --    729.0420               771.5394               802.6980
 Red. masses --      1.3304                 8.2048                 1.2116
 Frc consts  --      0.4166                 2.8776                 0.4599
 IR Inten    --     37.4521                52.0140                 5.2868

                     19                     20                     21
                      A                      A                      A
 Frequencies --    896.4385               926.5724              1075.7974
 Red. masses --      3.2444                 2.7277                 4.1261
 Frc consts  --      1.5361                 1.3797                 2.8135
 IR Inten    --     14.9632                 5.5557                22.9595

                     22                     23                     24
                      A                      A                      A
 Frequencies --   1128.5923              1203.6266              1281.3729
 Red. masses --      2.0998                 1.7780                 4.3557
 Frc consts  --      1.5758                 1.5176                 4.2137
 IR Inten    --     22.2121                 6.5990               567.9684

                     25                     26                     27
                      A                      A                      A
 Frequencies --   1345.3448              1401.4014              1431.0133
 Red. masses --      1.2072                 1.2721                 1.3721
 Frc consts  --      1.2874                 1.4720                 1.6554
 IR Inten    --     73.0134                21.9846                12.0868

                     28                     29                     30
                      A                      A                      A
 Frequencies --   1491.3647              1502.3855              1514.5810
 Red. masses --      1.0407                 1.0547                 1.0911
 Frc consts  --      1.3638                 1.4027                 1.4746
 IR Inten    --     10.6228                 1.4467                20.2056

                     31                     32                     33
                      A                      A                      A
 Frequencies --   1853.7007              2193.9987              3075.6388
 Red. masses --     12.0742                 6.0448                 1.0355
 Frc consts  --     24.4450                17.1438                 5.7710
 IR Inten    --    343.7213                79.9310                 9.5830

                     34                     35                     36
                      A                      A                      A
 Frequencies --   3106.9901              3150.5601              3155.2594
 Red. masses --      1.0607                 1.1019                 1.1046
 Frc consts  --      6.0330                 6.4439                 6.4794
 IR Inten    --     19.5734                14.1058                 3.6825

                     37                     38                     39
                      A                      A                      A
 Frequencies --   3174.9697              3483.1920              3806.2783
 Red. masses --      1.1070                 1.1596                 1.0673
 Frc consts  --      6.5749                 8.2892                 9.1107
 IR Inten    --     14.5168                69.0605                41.1400

 - Thermochemistry -
 -------------------
 Temperature   298.150 Kelvin.  Pressure   1.00000 Atm.
 Atom     1 has atomic number  6 and mass  12.00000

 Molecular mass:   115.03952 amu.
 Principal axes and moments of inertia in atomic units:
                           1         2         3
     Eigenvalues --   506.661381381.126801544.28098
           X            0.99989   0.01227   0.00818
           Y           -0.01241   0.99975   0.01834
           Z           -0.00795  -0.01844   0.99980
 This molecule is an asymmetric top.
 Rotational symmetry number  1.
 Warning -- assumption of classical behavior for rotation
           may cause significant error
 Rotational temperatures (Kelvin)      0.17095     0.06271     0.05609
 Rotational constants (GHZ):           3.56203     1.30672     1.16866
    2 imaginary frequencies ignored.
 Zero-point vibrational energy     292637.3 (Joules/Mol)
                                   69.94200 (Kcal/Mol)
 Warning -- explicit consideration of  11 degrees of freedom as
           vibrations may cause significant error
 Vibrational temperatures:     70.57   155.04   197.97   224.02   269.75
          (Kelvin)            322.86   356.56   487.78   613.53   800.48
                              858.89   967.54  1038.40  1048.93  1110.07
                             1154.90  1289.77  1333.13  1547.83  1623.79
                             1731.75  1843.61  1935.65  2016.30  2058.91
                             2145.74  2161.60  2179.14  2667.06  3156.67
                             4425.16  4470.27  4532.95  4539.71  4568.07
                             5011.54  5476.39

 Zero-point correction=                           0.111460 (Hartree/Particle)
 Thermal correction to Energy=                    0.120462
 Thermal correction to Enthalpy=                  0.121406
 Thermal correction to Gibbs Free Energy=         0.076521
 Sum of electronic and zero-point Energies=           -420.091663
 Sum of electronic and thermal Energies=              -420.082660
 Sum of electronic and thermal Enthalpies=            -420.081716
 Sum of electronic and thermal Free Energies=         -420.126602

                     E (Thermal)             CV                S
                      KCal/Mol        Cal/Mol-Kelvin    Cal/Mol-Kelvin
 Total                   75.591             30.552             94.470
 Electronic               0.000              0.000              1.377
 Translational            0.889              2.981             40.136
 Rotational               0.889              2.981             28.471
 Vibrational             73.814             24.590             24.486
 Vibration     1          0.595              1.978              4.855
 Vibration     2          0.606              1.943              3.309
 Vibration     3          0.614              1.916              2.837
 Vibration     4          0.620              1.896              2.601
 Vibration     5          0.632              1.857              2.253
 Vibration     6          0.649              1.804              1.923
 Vibration     7          0.661              1.766              1.746
 Vibration     8          0.719              1.598              1.217
 Vibration     9          0.788              1.413              0.870
 Vibration    10          0.912              1.126              0.531
 Vibration    11          0.955              1.038              0.455

 1\1\GINC-AJ\Freq\UM062X\6-311++G(d,p)\C5H7O3(2)\AAYUSH\16-Aug-2025\0\\
 # freq 6-311++g(d,p) m062x\\Title Card Required\\0,2\C,2.744392,-0.406
 768,0.415698\H,3.788168,-0.436619,0.626111\C,1.570232,-0.313026,0.1514
 87\C,0.159836,-0.580392,-0.140074\O,-0.20616,-1.145372,-1.129485\O,-0.
 621476,-0.150394,0.848495\C,-2.040612,-0.302166,0.638622\C,-2.564399,0
 .784735,-0.278686\H,-2.465937,-0.230115,1.638027\H,-2.230264,-1.296607
 ,0.233148\H,-3.647054,0.68836,-0.381011\H,-2.339764,1.770098,0.131961\
 H,-2.114397,0.701616,-1.268178\O,1.399002,1.704484,-0.402652\H,1.49571

 Normal termination of Gaussian 16 at Sat Aug 16 20:46:08 2025.
