 Gaussian 16, Revision A.03,
 Gaussian 16:  ES64L-G16RevA.03 25-Dec-2016

 --------------------------
 # freq 6-311++g(d,p) m062x
 --------------------------

 -------------------
 Title Card Required
 -------------------
 Symbolic Z-matrix:
 Charge =  0 Multiplicity = 2

                         Standard orientation:
 ---------------------------------------------------------------------
 Center     Atomic      Atomic             Coordinates (Angstroms)
 Number     Number       Type             X           Y           Z
 ---------------------------------------------------------------------
      1          6           0       -2.795028   -0.442773   -0.417977
      2          1           0       -3.838106   -0.479250   -0.636330
      3          6           0       -1.623418   -0.152246   -0.094618
      4          6           0       -0.220582   -0.598738    0.140018
      5          8           0        0.137048   -1.203444    1.107509
      6          8           0        0.561664   -0.158862   -0.841364
      7          6           0        1.981456   -0.313673   -0.633324
      8          6           0        2.501598    0.751916    0.311189
      9          1           0        2.407740   -0.216266   -1.630041
     10          1           0        2.172185   -1.317491   -0.252427
     11          1           0        3.584139    0.653426    0.412761
     12          1           0        2.276059    1.746625   -0.075333
     13          1           0        2.050286    0.645076    1.297860
     14          8           0       -1.469425    1.550534    0.419706
     15          1           0       -1.550749    1.995148   -0.435029
 ---------------------------------------------------------------------

 SCF Done:  E(UM062X) =  -420.210986515     A.U. after   19 cycles

 The electronic state is 2-A.
 Alpha  occ. eigenvalues --  -19.68388 -19.64179 -19.63476 -10.70633 -10.62650
 Alpha  occ. eigenvalues --  -10.60642 -10.59688 -10.53620  -1.25907  -1.16682
 Alpha  occ. eigenvalues --   -1.10819  -0.91488  -0.87854  -0.78366  -0.71028
 Alpha  occ. eigenvalues --   -0.64860  -0.62368  -0.59058  -0.57414  -0.54179
 Alpha  occ. eigenvalues --   -0.53183  -0.49348  -0.48356  -0.46225  -0.45317
 Alpha  occ. eigenvalues --   -0.42082  -0.41419  -0.38676  -0.37814  -0.37360
 Alpha  occ. eigenvalues --   -0.31637
 Alpha virt. eigenvalues --   -0.00515  -0.00015   0.00430   0.01486   0.02238
 Alpha virt. eigenvalues --    0.02527   0.03112   0.04378   0.05523   0.05996
 Alpha virt. eigenvalues --    0.07084   0.07846   0.07974   0.10203   0.10292

  Beta  occ. eigenvalues --  -19.68388 -19.63489 -19.63388 -10.70584 -10.62806
  Beta  occ. eigenvalues --  -10.60641 -10.59149 -10.53621  -1.25887  -1.16701
  Beta  occ. eigenvalues --   -1.08031  -0.90347  -0.86905  -0.77793  -0.70315
  Beta  occ. eigenvalues --   -0.64644  -0.61544  -0.58931  -0.57109  -0.53525
  Beta  occ. eigenvalues --   -0.52281  -0.48954  -0.46793  -0.45296  -0.43107
  Beta  occ. eigenvalues --   -0.41973  -0.39746  -0.38617  -0.36652  -0.36151
  Beta virt. eigenvalues --   -0.09210  -0.00466   0.00440   0.00991   0.01736
  Beta virt. eigenvalues --    0.02367   0.02905   0.03129   0.04557   0.05544
  Beta virt. eigenvalues --    0.05911   0.07141   0.07674   0.07970   0.10314

 Mulliken charges and spin densities:
               1          2
     1  C    0.075386   0.928176
     2  H    0.226883  -0.027788
     3  C    0.039629  -0.348230
     4  C   -0.307633   0.056587
     5  O   -0.192935  -0.005858
     6  O    0.002844  -0.000279
     7  C   -0.284584   0.001429
     8  C   -0.424298   0.001846
     9  H    0.191611   0.000281
    10  H    0.193111  -0.000124
    11  H    0.165902  -0.000054
    12  H    0.163918  -0.000315
    13  H    0.195725  -0.001154
    14  O   -0.280151   0.398460
    15  H    0.234595  -0.002976
 Sum of Mulliken charges =  -0.00000   1.00000

 Dipole moment (field-independent basis, Debye):
    X=              0.0471    Y=              0.1163    Z=             -3.1889  Tot=              3.1914
 Quadrupole moment (field-independent basis, Debye-Ang):
   XX=            -32.9176   YY=            -49.0971   ZZ=            -51.2454
   XY=              2.0232   XZ=              3.5205   YZ=             -0.4020

  Exact polarizability:  88.562   6.413  70.268   4.897   1.183  58.409
 Approx polarizability:  91.610   7.930  83.698   8.047  -1.035  75.490

 ******    1 imaginary frequencies (negative Signs) ******

                      1                      2                      3
                      A                      A                      A
 Frequencies --   -636.0680                52.4211                84.7181
 Red. masses --     10.5178                 1.6615                 3.4227
 Frc consts  --      2.5072                 0.0027                 0.0145
 IR Inten    --     15.1086                38.9045                 3.4611

                      4                      5                      6
                      A                      A                      A
 Frequencies --    105.3487               133.1841               189.6570
 Red. masses --      2.8051                 2.1850                 1.7258
 Frc consts  --      0.0183                 0.0228                 0.0366
 IR Inten    --     20.7511                22.6673                 3.7549

                      7                      8                      9
                      A                      A                      A
 Frequencies --    236.8504               247.3240               277.0032
 Red. masses --      1.8990                 6.8158                 1.5397
 Frc consts  --      0.0628                 0.2456                 0.0696
 IR Inten    --      9.5657                 5.9935                20.1898

                     10                     11                     12
                      A                      A                      A
 Frequencies --    341.6652               373.8152               442.3175
 Red. masses --      3.0210                 2.7385                 3.7281
 Frc consts  --      0.2078                 0.2255                 0.4297
 IR Inten    --     12.9456                17.2610                 4.4789

                     13                     14                     15
                      A                      A                      A
 Frequencies --    582.0243               610.3847               703.8158
 Red. masses --      4.4687                 5.2584                 1.3360
 Frc consts  --      0.8919                 1.1543                 0.3899
 IR Inten    --      2.6012                13.0750                40.4442

                     16                     17                     18
                      A                      A                      A
 Frequencies --    774.7656               799.4041               892.1091
 Red. masses --      9.9446                 1.2154                 3.2317
 Frc consts  --      3.5171                 0.4576                 1.5154
 IR Inten    --     24.7992                 5.1756                17.4464

                     19                     20                     21
                      A                      A                      A
 Frequencies --    917.5730              1000.8203              1069.6094
 Red. masses --      2.5973                 1.1768                 4.0372
 Frc consts  --      1.2884                 0.6945                 2.7213
 IR Inten    --      1.6195                48.4649                24.5355

                     22                     23                     24
                      A                      A                      A
 Frequencies --   1127.6571              1202.2606              1272.2233
 Red. masses --      2.0904                 1.7823                 4.5869
 Frc consts  --      1.5662                 1.5178                 4.3741
 IR Inten    --     20.8459                 9.8036               543.7283

                     25                     26                     27
                      A                      A                      A
 Frequencies --   1343.6779              1401.2573              1429.9167
 Red. masses --      1.1974                 1.2678                 1.3594
 Frc consts  --      1.2738                 1.4667                 1.6376
 IR Inten    --     62.4547                16.4298                12.1523

                     28                     29                     30
                      A                      A                      A
 Frequencies --   1491.2282              1501.6154              1514.0851
 Red. masses --      1.0403                 1.0530                 1.0922
 Frc consts  --      1.3630                 1.3989                 1.4752
 IR Inten    --     10.5480                 1.1846                18.4281

                     31                     32                     33
                      A                      A                      A
 Frequencies --   1847.0176              1919.1130              3076.1649
 Red. masses --     10.5374                 7.7300                 1.0354
 Frc consts  --     21.1800                16.7738                 5.7728
 IR Inten    --    279.7490                71.1153                 9.0038

                     34                     35                     36
                      A                      A                      A
 Frequencies --   3108.3334              3152.0451              3155.3019
 Red. masses --      1.0609                 1.1017                 1.1047
 Frc consts  --      6.0391                 6.4489                 6.4798
 IR Inten    --     19.5865                14.1454                 2.8660

                     37                     38                     39
                      A                      A                      A
 Frequencies --   3175.7553              3450.4700              3845.8742
 Red. masses --      1.1072                 1.1283                 1.0676
 Frc consts  --      6.5791                 7.9147                 9.3036
 IR Inten    --     14.3019                81.8184                60.0457

 - Thermochemistry -
 -------------------
 Temperature   298.150 Kelvin.  Pressure   1.00000 Atm.
 Atom     1 has atomic number  6 and mass  12.00000

 Molecular mass:   115.03952 amu.
 Principal axes and moments of inertia in atomic units:
                           1         2         3
     Eigenvalues --   478.951671375.837991516.79857
           X            0.99988   0.01227   0.00892
           Y           -0.01251   0.99955   0.02735
           Z           -0.00858  -0.02745   0.99959
 This molecule is an asymmetric top.
 Rotational symmetry number  1.
 Warning -- assumption of classical behavior for rotation
           may cause significant error
 Rotational temperatures (Kelvin)      0.18084     0.06295     0.05710
 Rotational constants (GHZ):           3.76811     1.31174     1.18984
    1 imaginary frequencies ignored.
 Zero-point vibrational energy     292180.8 (Joules/Mol)
                                   69.83288 (Kcal/Mol)
 Warning -- explicit consideration of  13 degrees of freedom as
           vibrations may cause significant error
 Vibrational temperatures:     75.42   121.89   151.57   191.62   272.87
          (Kelvin)            340.77   355.84   398.55   491.58   537.84
                              636.40   837.40   878.21  1012.63  1114.71
                             1150.16  1283.55  1320.18  1439.96  1538.93
                             1622.45  1729.78  1830.45  1933.25  2016.10
                             2057.33  2145.54  2160.49  2178.43  2657.45
                             2761.18  4425.92  4472.20  4535.09  4539.78
                             4569.20  4964.46  5533.36

 Zero-point correction=                           0.111286 (Hartree/Particle)
 Thermal correction to Energy=                    0.120971
 Thermal correction to Enthalpy=                  0.121916
 Thermal correction to Gibbs Free Energy=         0.075628
 Sum of electronic and zero-point Energies=           -420.099701
 Sum of electronic and thermal Energies=              -420.090015
 Sum of electronic and thermal Enthalpies=            -420.089071
 Sum of electronic and thermal Free Energies=         -420.135359

                     E (Thermal)             CV                S
                      KCal/Mol        Cal/Mol-Kelvin    Cal/Mol-Kelvin
 Total                   75.911             32.511             97.421
 Electronic               0.000              0.000              1.377
 Translational            0.889              2.981             40.136
 Rotational               0.889              2.981             28.393
 Vibrational             74.133             26.549             27.515
 Vibration     1          0.596              1.977              4.724
 Vibration     2          0.601              1.960              3.778
 Vibration     3          0.605              1.945              3.353
 Vibration     4          0.613              1.920              2.900
 Vibration     5          0.633              1.854              2.231
 Vibration     6          0.656              1.784              1.826
 Vibration     7          0.661              1.767              1.750
 Vibration     8          0.678              1.716              1.552
 Vibration     9          0.721              1.592              1.204
 Vibration    10          0.745              1.526              1.064
 Vibration    11          0.802              1.378              0.819
 Vibration    12          0.939              1.070              0.482
 Vibration    13          0.969              1.010              0.432

 1\1\GINC-AJ\Freq\UM062X\6-311++G(d,p)\C5H7O3(2)\AAYUSH\23-Jun-2025\0\\
 # freq 6-311++g(d,p) m062x\\Title Card Required\\0,2\C,-2.795028,-0.44
 2773,-0.417977\H,-3.838106,-0.47925,-0.63633\C,-1.623418,-0.152246,-0.
 094618\C,-0.220582,-0.598738,0.140018\O,0.137048,-1.203444,1.107509\O,
 0.561664,-0.158862,-0.841364\C,1.981456,-0.313673,-0.633324\C,2.501598
 ,0.751916,0.311189\H,2.40774,-0.216266,-1.630041\H,2.172185,-1.317491,
 -0.252427\H,3.584139,0.653426,0.412761\H,2.276059,1.746625,-0.075333\H
 ,2.050286,0.645076,1.29786\O,-1.469425,1.550534,0.419706\H,-1.550749,1

 Normal termination of Gaussian 16 at Mon Jun 23 04:44:25 2025.
