 Gaussian 16, Revision A.03,
 Gaussian 16:  ES64L-G16RevA.03 25-Dec-2016

 --------------------------
 # ccsd(t)/6-311++g(d,p) sp
 --------------------------

 -------------------
 Title Card Required
 -------------------
 Symbolic Z-matrix:
 Charge =  0 Multiplicity = 2

                         Standard orientation:
 ---------------------------------------------------------------------
 Center     Atomic      Atomic             Coordinates (Angstroms)
 Number     Number       Type             X           Y           Z
 ---------------------------------------------------------------------
      1          6           0       -2.799330   -0.437515   -0.407806
      2          1           0       -3.841340   -0.486949   -0.625769
      3          6           0       -1.627215   -0.236974   -0.113822
      4          6           0       -0.219691   -0.599020    0.149448
      5          8           0        0.139919   -1.183583    1.128759
      6          8           0        0.560962   -0.171562   -0.838568
      7          6           0        1.980594   -0.324139   -0.629087
      8          6           0        2.502395    0.756137    0.297434
      9          1           0        2.406092   -0.243397   -1.627658
     10          1           0        2.170856   -1.321771   -0.231958
     11          1           0        3.584988    0.658992    0.399721
     12          1           0        2.277116    1.744537   -0.105181
     13          1           0        2.051774    0.665335    1.286007
     14          8           0       -1.465281    1.608209    0.409392
     15          1           0       -1.554811    2.007812   -0.468831
 ---------------------------------------------------------------------

 SCF Done:  E(UHF) =  -417.976688951     A.U. after   34 cycles
 E2 =    -0.1256177016D+01 EUMP2 =    -0.41923286596686D+03
 CCSD(T)= -0.41935396142D+03

 The electronic state is 2-A.
 Alpha  occ. eigenvalues --  -20.61683 -20.61213 -20.55676 -11.41334 -11.29691
 Alpha  occ. eigenvalues --  -11.27456 -11.27001 -11.22447  -1.48157  -1.37825
 Alpha  occ. eigenvalues --   -1.37483  -1.08136  -1.04459  -0.92717  -0.83755
 Alpha  occ. eigenvalues --   -0.76565  -0.73172  -0.69532  -0.68382  -0.66007
 Alpha  occ. eigenvalues --   -0.63666  -0.62856  -0.57963  -0.55240  -0.53999
 Alpha  occ. eigenvalues --   -0.53323  -0.50439  -0.47577  -0.45951  -0.43539
 Alpha  occ. eigenvalues --   -0.42090
 Alpha virt. eigenvalues --    0.03678   0.04410   0.05623   0.06284   0.07329
 Alpha virt. eigenvalues --    0.08809   0.09540   0.10562   0.11139   0.11849
 Alpha virt. eigenvalues --    0.13480   0.13666   0.14229   0.15980   0.16484

  Beta  occ. eigenvalues --  -20.61219 -20.58129 -20.56089 -11.40961 -11.29691
  Beta  occ. eigenvalues --  -11.29138 -11.24938 -11.22450  -1.48319  -1.38484
  Beta  occ. eigenvalues --   -1.25273  -1.07756  -1.03521  -0.91582  -0.82966
  Beta  occ. eigenvalues --   -0.76322  -0.71915  -0.69748  -0.67398  -0.63806
  Beta  occ. eigenvalues --   -0.62737  -0.58274  -0.55546  -0.54116  -0.50838
  Beta  occ. eigenvalues --   -0.50470  -0.48133  -0.47132  -0.44530  -0.42661
  Beta virt. eigenvalues --    0.03726   0.04344   0.04682   0.06276   0.06895
  Beta virt. eigenvalues --    0.07909   0.09200   0.09553   0.10554   0.12080
  Beta virt. eigenvalues --    0.12236   0.13658   0.13940   0.15650   0.16180

 Mulliken charges and spin densities:
               1          2
     1  C   -0.317571   1.282832
     2  H    0.224161  -0.090970
     3  C    0.474279  -1.086581
     4  C   -0.333786   0.178431
     5  O   -0.270461  -0.085219
     6  O   -0.080856   0.002424
     7  C   -0.165942   0.002197
     8  C   -0.392325   0.001435
     9  H    0.161638  -0.000052
    10  H    0.177035  -0.000026
    11  H    0.137895  -0.000120
    12  H    0.140048  -0.000147
    13  H    0.185802  -0.001004
    14  O   -0.173048   0.824750
    15  H    0.233131  -0.027949
 Sum of Mulliken charges =  -0.00000   1.00000

 Dipole moment (field-independent basis, Debye):
    X=             -0.0094    Y=              1.0266    Z=             -3.1767  Tot=              3.3385
 Quadrupole moment (field-independent basis, Debye-Ang):
   XX=            -33.5274   YY=            -47.7502   ZZ=            -51.5865
   XY=              0.5727   XZ=              3.1169   YZ=              0.0692

 MP3-0=-419.2809113\MP4SDQ=-419.2913506\CCSD=-419.2992143\CCSD(T)=-419.
 Normal termination of Gaussian 16 at Sun Aug  3 16:15:13 2025.
