 Gaussian 16, Revision A.03,
 Gaussian 16:  ES64L-G16RevA.03 25-Dec-2016

 -------------------
 # freq 6-31+g m062x
 -------------------

 -------------------
 Title Card Required
 -------------------
 Symbolic Z-matrix:
 Charge =  0 Multiplicity = 2

                         Standard orientation:
 ---------------------------------------------------------------------
 Center     Atomic      Atomic             Coordinates (Angstroms)
 Number     Number       Type             X           Y           Z
 ---------------------------------------------------------------------
      1          6           0       -2.796418   -0.441101   -0.415331
      2          1           0       -3.838907   -0.483479   -0.634190
      3          6           0       -1.624298   -0.173290   -0.099615
      4          6           0       -0.220132   -0.598735    0.142445
      5          8           0        0.137707   -1.198429    1.112949
      6          8           0        0.561457   -0.162115   -0.840678
      7          6           0        1.981242   -0.316381   -0.632281
      8          6           0        2.501823    0.752954    0.307671
      9          1           0        2.407268   -0.223213   -1.629516
     10          1           0        2.171808   -1.318672   -0.247276
     11          1           0        3.584374    0.654740    0.409403
     12          1           0        2.276341    1.746080   -0.082930
     13          1           0        2.050681    0.650226    1.294849
     14          8           0       -1.468304    1.564986    0.417239
     15          1           0       -1.551747    1.998099   -0.443755
 ---------------------------------------------------------------------

 SCF Done:  E(UM062X) =  -419.957526158     A.U. after   21 cycles

 The electronic state is 2-A.
 Alpha  occ. eigenvalues --  -19.70891 -19.66926 -19.66697 -10.73131 -10.63804
 Alpha  occ. eigenvalues --  -10.61726 -10.61227 -10.54488  -1.28394  -1.19064
 Alpha  occ. eigenvalues --   -1.12067  -0.92357  -0.88601  -0.78932  -0.71667
 Alpha  occ. eigenvalues --   -0.65094  -0.62971  -0.59336  -0.57486  -0.54303
 Alpha  occ. eigenvalues --   -0.53631  -0.49446  -0.48334  -0.46573  -0.45403
 Alpha  occ. eigenvalues --   -0.42211  -0.41377  -0.38568  -0.37928  -0.37612
 Alpha  occ. eigenvalues --   -0.31794
 Alpha virt. eigenvalues --   -0.00442   0.01662   0.02178   0.02701   0.03651
 Alpha virt. eigenvalues --    0.03857   0.05136   0.06495   0.07438   0.07974
 Alpha virt. eigenvalues --    0.08524   0.09037   0.09519   0.11476   0.12537

  Beta  occ. eigenvalues --  -19.70891 -19.66717 -19.65983 -10.73074 -10.63972
  Beta  occ. eigenvalues --  -10.61725 -10.60702 -10.54489  -1.28381  -1.19083
  Beta  occ. eigenvalues --   -1.08893  -0.91342  -0.87861  -0.78499  -0.71096
  Beta  occ. eigenvalues --   -0.64902  -0.62068  -0.59131  -0.57279  -0.54009
  Beta  occ. eigenvalues --   -0.52130  -0.49151  -0.46972  -0.45377  -0.42702
  Beta  occ. eigenvalues --   -0.42079  -0.39569  -0.38511  -0.36803  -0.36237
  Beta virt. eigenvalues --   -0.09657   0.00592   0.01560   0.02347   0.02898
  Beta virt. eigenvalues --    0.03712   0.03997   0.04968   0.06359   0.07534
  Beta virt. eigenvalues --    0.07819   0.08542   0.08825   0.09586   0.11810

 Mulliken charges and spin densities:
               1          2
     1  C    0.353119   0.859117
     2  H    0.300135  -0.030914
     3  C   -0.418304  -0.335809
     4  C    0.060043   0.055969
     5  O   -0.332466  -0.007497
     6  O   -0.205914  -0.002286
     7  C   -0.247257   0.001229
     8  C   -0.559775   0.001038
     9  H    0.220386  -0.000009
    10  H    0.236265  -0.000212
    11  H    0.206666  -0.000057
    12  H    0.221855   0.000017
    13  H    0.242013   0.000046
    14  O   -0.498315   0.472607
    15  H    0.421549  -0.013239
 Sum of Mulliken charges =  -0.00000   1.00000

 Dipole moment (field-independent basis, Debye):
    X=              0.0718    Y=              0.1030    Z=             -3.3802  Tot=              3.3825
 Quadrupole moment (field-independent basis, Debye-Ang):
   XX=            -32.5957   YY=            -49.3673   ZZ=            -52.4981
   XY=              1.9643   XZ=              3.8503   YZ=             -0.4855

  Exact polarizability:  84.693   6.837  68.721   5.000   0.965  56.111
 Approx polarizability:  86.516   9.017  76.879   9.165  -2.232  69.892

 ******    3 imaginary frequencies (negative Signs) ******

                      1                      2                      3
                      A                      A                      A
 Frequencies --   -686.7970              -507.0859               -81.7919
 Red. masses --     11.4579                 1.0635                 6.9227
 Frc consts  --      3.1843                 0.1611                 0.0273
 IR Inten    --      1.9075               121.2257                 2.3931

                      4                      5                      6
                      A                      A                      A
 Frequencies --     24.3314                52.5541               133.8455
 Red. masses --      2.6147                 3.6382                 2.1990
 Frc consts  --      0.0009                 0.0059                 0.0232
 IR Inten    --      2.8642                 4.4704                 3.2685

                      7                      8                      9
                      A                      A                      A
 Frequencies --    188.9205               218.5313               272.2289
 Red. masses --      1.5872                 7.4186                 2.4276
 Frc consts  --      0.0334                 0.2087                 0.1060
 IR Inten    --      3.1857                 2.7132                12.9523

                     10                     11                     12
                      A                      A                      A
 Frequencies --    313.2467               406.7510               431.2959
 Red. masses --      3.0508                 1.6746                 3.5897
 Frc consts  --      0.1764                 0.1632                 0.3934
 IR Inten    --     15.7447                28.1046                 9.3763

                     13                     14                     15
                      A                      A                      A
 Frequencies --    574.7509               597.7830               715.5708
 Red. masses --      4.0618                 4.5388                 9.0554
 Frc consts  --      0.7906                 0.9556                 2.7319
 IR Inten    --      5.7126                14.3734                46.9563

                     16                     17                     18
                      A                      A                      A
 Frequencies --    723.5028               812.0099               858.4649
 Red. masses --      1.2690                 1.3261                 1.3445
 Frc consts  --      0.3914                 0.5152                 0.5838
 IR Inten    --     56.2570                10.0747                43.9436

                     19                     20                     21
                      A                      A                      A
 Frequencies --    898.9959               936.4718              1104.8280
 Red. masses --      2.9493                 2.4820                 4.1961
 Frc consts  --      1.4044                 1.2824                 3.0177
 IR Inten    --     23.2202                 3.4356                11.4570

                     22                     23                     24
                      A                      A                      A
 Frequencies --   1156.9910              1227.0087              1314.3862
 Red. masses --      2.0647                 1.7525                 2.6561
 Frc consts  --      1.6284                 1.5546                 2.7036
 IR Inten    --     16.1727                 8.2679               389.2262

                     25                     26                     27
                      A                      A                      A
 Frequencies --   1364.2770              1439.8982              1458.8461
 Red. masses --      1.4826                 1.3450                 1.2469
 Frc consts  --      1.6259                 1.6430                 1.5635
 IR Inten    --    177.3256                18.2686                20.6862

                     28                     29                     30
                      A                      A                      A
 Frequencies --   1526.7824              1536.6518              1544.8213
 Red. masses --      1.0411                 1.0523                 1.0897
 Frc consts  --      1.4299                 1.4640                 1.5321
 IR Inten    --     14.7186                 2.9467                25.2394

                     31                     32                     33
                      A                      A                      A
 Frequencies --   1915.3742              2002.9776              3108.0174
 Red. masses --     11.1566                 7.2130                 1.0352
 Frc consts  --     24.1150                17.0497                 5.8916
 IR Inten    --    282.1301                58.5999                11.6627

                     34                     35                     36
                      A                      A                      A
 Frequencies --   3139.0375              3188.1064              3191.2971
 Red. masses --      1.0602                 1.1007                 1.1023
 Frc consts  --      6.1549                 6.5915                 6.6145
 IR Inten    --     20.8413                12.7986                 7.2237

                     37                     38                     39
                      A                      A                      A
 Frequencies --   3212.1649              3499.4685              3859.3953
 Red. masses --      1.1051                 1.1350                 1.0672
 Frc consts  --      6.7184                 8.1893                 9.3655
 IR Inten    --     16.2410                69.1500                32.6675

 - Thermochemistry -
 -------------------
 Temperature   298.150 Kelvin.  Pressure   1.00000 Atm.
 Atom     1 has atomic number  6 and mass  12.00000

 Molecular mass:   115.03952 amu.
 Principal axes and moments of inertia in atomic units:
                           1         2         3
     Eigenvalues --   481.668901376.449141519.51273
           X            0.99988   0.01233   0.00886
           Y           -0.01256   0.99957   0.02637
           Z           -0.00853  -0.02648   0.99961
 This molecule is an asymmetric top.
 Rotational symmetry number  1.
 Warning -- assumption of classical behavior for rotation
           may cause significant error
 Rotational temperatures (Kelvin)      0.17982     0.06293     0.05700
 Rotational constants (GHZ):           3.74685     1.31116     1.18771
    3 imaginary frequencies ignored.
 Zero-point vibrational energy     292783.5 (Joules/Mol)
                                   69.97694 (Kcal/Mol)
 Warning -- explicit consideration of  11 degrees of freedom as
           vibrations may cause significant error
 Vibrational temperatures:     35.01    75.61   192.57   271.81   314.42
          (Kelvin)            391.68   450.69   585.22   620.54   826.94
                              860.08  1029.55  1040.96  1168.30  1235.14
                             1293.45  1347.37  1589.60  1664.65  1765.39
                             1891.11  1962.89  2071.69  2098.95  2196.70
                             2210.90  2222.65  2755.80  2881.84  4471.74
                             4516.37  4586.97  4591.56  4621.59  5034.95
                             5552.81

 Zero-point correction=                           0.111515 (Hartree/Particle)
 Thermal correction to Energy=                    0.120182
 Thermal correction to Enthalpy=                  0.121127
 Thermal correction to Gibbs Free Energy=         0.075944
 Sum of electronic and zero-point Energies=           -419.846011
 Sum of electronic and thermal Energies=              -419.837344
 Sum of electronic and thermal Enthalpies=            -419.836400
 Sum of electronic and thermal Free Energies=         -419.881582

                     E (Thermal)             CV                S
                      KCal/Mol        Cal/Mol-Kelvin    Cal/Mol-Kelvin
 Total                   75.416             28.957             95.094
 Electronic               0.000              0.000              1.377
 Translational            0.889              2.981             40.136
 Rotational               0.889              2.981             28.401
 Vibrational             73.638             22.995             25.180
 Vibration     1          0.593              1.985              6.245
 Vibration     2          0.596              1.977              4.719
 Vibration     3          0.613              1.920              2.890
 Vibration     4          0.633              1.855              2.238
 Vibration     5          0.646              1.813              1.971
 Vibration     6          0.675              1.724              1.582
 Vibration     7          0.701              1.648              1.345
 Vibration     8          0.772              1.456              0.938
 Vibration     9          0.792              1.402              0.854
 Vibration    10          0.931              1.086              0.495
 Vibration    11          0.956              1.037              0.453

 Normal termination of Gaussian 16 at Fri Jun 20 13:46:37 2025.
