 Gaussian 16, Revision A.03,
 Gaussian 16:  ES64L-G16RevA.03 25-Dec-2016

 -------------------
 # freq 6-31+g m062x
 -------------------

 -------------------
 Title Card Required
 -------------------
 Symbolic Z-matrix:
 Charge =  0 Multiplicity = 2

                         Standard orientation:
 ---------------------------------------------------------------------
 Center     Atomic      Atomic             Coordinates (Angstroms)
 Number     Number       Type             X           Y           Z
 ---------------------------------------------------------------------
      1          6           0       -2.805822   -0.437542   -0.396532
      2          1           0       -3.849741   -0.469755   -0.605882
      3          6           0       -1.631470   -0.340812   -0.134256
      4          6           0       -0.220936   -0.604876    0.159636
      5          8           0        0.145598   -1.157771    1.155653
      6          8           0        0.559812   -0.187177   -0.834635
      7          6           0        1.979056   -0.336658   -0.623846
      8          6           0        2.503658    0.761289    0.279739
      9          1           0        2.403739   -0.276939   -1.624336
     10          1           0        2.168778   -1.326097   -0.206347
     11          1           0        3.586361    0.665953    0.382529
     12          1           0        2.278947    1.741595   -0.142798
     13          1           0        2.054288    0.690387    1.270469
     14          8           0       -1.459480    1.683298    0.395020
     15          1           0       -1.556719    2.019647   -0.510378
 ---------------------------------------------------------------------

 SCF Done:  E(UM062X) =  -419.955489520     A.U. after   23 cycles

 The electronic state is 2-A.
 Alpha  occ. eigenvalues --  -19.70686 -19.69038 -19.66270 -10.73004 -10.61606
 Alpha  occ. eigenvalues --  -10.60257 -10.59684 -10.54455  -1.28065  -1.18740
 Alpha  occ. eigenvalues --   -1.13657  -0.91664  -0.88180  -0.78693  -0.71301
 Alpha  occ. eigenvalues --   -0.64767  -0.62321  -0.58785  -0.57074  -0.54371
 Alpha  occ. eigenvalues --   -0.53785  -0.50308  -0.48840  -0.46557  -0.45275
 Alpha  occ. eigenvalues --   -0.42065  -0.41936  -0.39218  -0.38305  -0.37017
 Alpha  occ. eigenvalues --   -0.34903
 Alpha virt. eigenvalues --   -0.00936   0.01864   0.02342   0.03539   0.03642
 Alpha virt. eigenvalues --    0.03771   0.05164   0.06378   0.07499   0.08020
 Alpha virt. eigenvalues --    0.08489   0.09015   0.09622   0.11968   0.12550

  Beta  occ. eigenvalues --  -19.70691 -19.67482 -19.66289 -10.72981 -10.61606
  Beta  occ. eigenvalues --  -10.60286 -10.59499 -10.54456  -1.28073  -1.18771
  Beta  occ. eigenvalues --   -1.07290  -0.91256  -0.87858  -0.78550  -0.71144
  Beta  occ. eigenvalues --   -0.64706  -0.61885  -0.58653  -0.56895  -0.53958
  Beta  occ. eigenvalues --   -0.51451  -0.49317  -0.46896  -0.45313  -0.42047
  Beta  occ. eigenvalues --   -0.40610  -0.38740  -0.38266  -0.37315  -0.36683
  Beta virt. eigenvalues --   -0.09269  -0.00097   0.01890   0.02415   0.03585
  Beta virt. eigenvalues --    0.03694   0.04037   0.05117   0.06465   0.07581
  Beta virt. eigenvalues --    0.07953   0.08591   0.09045   0.09711   0.12152

 Mulliken charges and spin densities:
               1          2
     1  C    0.031083   0.252736
     2  H    0.325810  -0.010641
     3  C   -0.257102  -0.092386
     4  C    0.129115   0.042289
     5  O   -0.327390  -0.008063
     6  O   -0.207924  -0.003536
     7  C   -0.246006  -0.000955
     8  C   -0.556881   0.001010
     9  H    0.218933  -0.000007
    10  H    0.235022  -0.000134
    11  H    0.206770  -0.000022
    12  H    0.218978  -0.000050
    13  H    0.243094  -0.000042
    14  O   -0.424089   0.851436
    15  H    0.410586  -0.031635
 Sum of Mulliken charges =  -0.00000   1.00000

 Dipole moment (field-independent basis, Debye):
    X=              0.1244    Y=              0.6317    Z=             -3.2534  Tot=              3.3165
 Quadrupole moment (field-independent basis, Debye-Ang):
   XX=            -33.0111   YY=            -48.3276   ZZ=            -52.4541
   XY=              1.0627   XZ=              3.4923   YZ=             -0.4452

  Exact polarizability:  86.787   6.172  66.841   5.125  -0.043  56.001
 Approx polarizability:  91.814   5.537  67.147   9.685  -5.207  69.418

 ******    4 imaginary frequencies (negative Signs) ******

                      1                      2                      3
                      A                      A                      A
 Frequencies --   -499.0631              -284.5283              -125.1334
 Red. masses --      1.0774                 7.8577                 5.9441
 Frc consts  --      0.1581                 0.3748                 0.0548
 IR Inten    --    120.6520                11.8593                 4.5960

                      4                      5                      6
                      A                      A                      A
 Frequencies --    -38.0349                43.7697                83.9835
 Red. masses --      3.9058                 2.8180                 3.7000
 Frc consts  --      0.0033                 0.0032                 0.0154
 IR Inten    --      3.5577                 1.0663                 5.6041

                      7                      8                      9
                      A                      A                      A
 Frequencies --    133.5864               178.4070               199.3186
 Red. masses --      4.6299                 1.4045                 4.0119
 Frc consts  --      0.0487                 0.0263                 0.0939
 IR Inten    --      0.8936                 2.3889                 1.1959

                     10                     11                     12
                      A                      A                      A
 Frequencies --    311.1335               415.4044               429.2824
 Red. masses --      2.8995                 2.5685                 1.3474
 Frc consts  --      0.1654                 0.2611                 0.1463
 IR Inten    --     14.3759                16.5585                94.2187

                     13                     14                     15
                      A                      A                      A
 Frequencies --    567.8612               627.0228               714.2971
 Red. masses --      4.1233                 5.2565                 1.9103
 Frc consts  --      0.7834                 1.2176                 0.5743
 IR Inten    --      4.7147                25.5184                 2.6399

                     16                     17                     18
                      A                      A                      A
 Frequencies --    734.3619               766.3250               817.7837
 Red. masses --      2.5420                 1.4239                 1.2776
 Frc consts  --      0.8077                 0.4927                 0.5034
 IR Inten    --     90.9855                52.5297                 6.2144

                     19                     20                     21
                      A                      A                      A
 Frequencies --    898.9916               944.0818              1110.8669
 Red. masses --      3.3871                 2.5057                 4.1809
 Frc consts  --      1.6128                 1.3158                 3.0398
 IR Inten    --     18.9959                 5.5179                 9.3071

                     22                     23                     24
                      A                      A                      A
 Frequencies --   1158.4479              1228.0512              1321.6510
 Red. masses --      2.0923                 1.7596                 2.3226
 Frc consts  --      1.6544                 1.5635                 2.3903
 IR Inten    --     17.1769                 6.1581               373.0504

                     25                     26                     27
                      A                      A                      A
 Frequencies --   1367.5980              1441.7748              1458.0953
 Red. masses --      1.5864                 1.3559                 1.2574
 Frc consts  --      1.7481                 1.6607                 1.5750
 IR Inten    --    224.5024                27.4223                19.4656

                     28                     29                     30
                      A                      A                      A
 Frequencies --   1526.8395              1537.0120              1544.5367
 Red. masses --      1.0415                 1.0556                 1.0872
 Frc consts  --      1.4305                 1.4693                 1.5281
 IR Inten    --     14.4166                 3.0017                26.9075

                     31                     32                     33
                      A                      A                      A
 Frequencies --   1920.3029              2259.6686              3107.5368
 Red. masses --     12.2977                 5.8370                 1.0352
 Frc consts  --     26.7185                17.5601                 5.8899
 IR Inten    --    314.9884                78.1971                12.5294

                     34                     35                     36
                      A                      A                      A
 Frequencies --   3137.6507              3186.4710              3191.1026
 Red. masses --      1.0600                 1.1008                 1.1024
 Frc consts  --      6.1486                 6.5853                 6.6144
 IR Inten    --     21.0919                13.3441                 7.9377

                     37                     38                     39
                      A                      A                      A
 Frequencies --   3211.4821              3525.8886              3818.9522
 Red. masses --      1.1049                 1.1671                 1.0672
 Frc consts  --      6.7142                 8.5489                 9.1700
 IR Inten    --     16.7087                61.7983                16.6988

 - Thermochemistry -
 -------------------
 Temperature   298.150 Kelvin.  Pressure   1.00000 Atm.
 Atom     1 has atomic number  6 and mass  12.00000

 Molecular mass:   115.03952 amu.
 Principal axes and moments of inertia in atomic units:
                           1         2         3
     Eigenvalues --   506.661381381.126801544.28098
           X            0.99989   0.01227   0.00818
           Y           -0.01241   0.99975   0.01834
           Z           -0.00795  -0.01844   0.99980
 This molecule is an asymmetric top.
 Rotational symmetry number  1.
 Warning -- assumption of classical behavior for rotation
           may cause significant error
 Rotational temperatures (Kelvin)      0.17095     0.06271     0.05609
 Rotational constants (GHZ):           3.56203     1.30672     1.16866
    4 imaginary frequencies ignored.
 Zero-point vibrational energy     292603.8 (Joules/Mol)
                                   69.93399 (Kcal/Mol)
 Warning -- explicit consideration of   9 degrees of freedom as
           vibrations may cause significant error
 Vibrational temperatures:     62.97   120.83   192.20   256.69   286.77
          (Kelvin)            447.65   597.67   617.64   817.03   902.15
                             1027.71  1056.58  1102.57  1176.61  1293.45
                             1358.32  1598.29  1666.75  1766.89  1901.56
                             1967.67  2074.39  2097.87  2196.78  2211.42
                             2222.24  2762.89  3251.16  4471.05  4514.38
                             4584.62  4591.28  4620.61  5072.97  5494.62

 Zero-point correction=                           0.111447 (Hartree/Particle)
 Thermal correction to Energy=                    0.119602
 Thermal correction to Enthalpy=                  0.120546
 Thermal correction to Gibbs Free Energy=         0.076941
 Sum of electronic and zero-point Energies=           -419.844043
 Sum of electronic and thermal Energies=              -419.835888
 Sum of electronic and thermal Enthalpies=            -419.834944
 Sum of electronic and thermal Free Energies=         -419.878549

                     E (Thermal)             CV                S
                      KCal/Mol        Cal/Mol-Kelvin    Cal/Mol-Kelvin
 Total                   75.051             27.288             91.774
 Electronic               0.000              0.000              1.377
 Translational            0.889              2.981             40.136
 Rotational               0.889              2.981             28.471
 Vibrational             73.274             21.327             21.791
 Vibration     1          0.595              1.980              5.081
 Vibration     2          0.601              1.960              3.796
 Vibration     3          0.613              1.920              2.894
 Vibration     4          0.629              1.869              2.345
 Vibration     5          0.637              1.841              2.139
 Vibration     6          0.700              1.652              1.356
 Vibration     7          0.779              1.437              0.908
 Vibration     8          0.791              1.406              0.861
 Vibration     9          0.924              1.101              0.508

 Normal termination of Gaussian 16 at Fri Jun 20 13:40:19 2025.
