 Gaussian 16, Revision A.03,
 Gaussian 16:  ES64L-G16RevA.03 25-Dec-2016

 --------------------------
 # ccsd(t)/6-311++g(d,p) sp
 --------------------------

 -------------------
 Title Card Required
 -------------------
 Symbolic Z-matrix:
 Charge =  0 Multiplicity = 2

                         Standard orientation:
 ---------------------------------------------------------------------
 Center     Atomic      Atomic             Coordinates (Angstroms)
 Number     Number       Type             X           Y           Z
 ---------------------------------------------------------------------
      1          6           0       -2.807636   -0.438372   -0.394392
      2          1           0       -3.852188   -0.463825   -0.601118
      3          6           0       -1.632350   -0.360756   -0.137866
      4          6           0       -0.221248   -0.607353    0.161389
      5          8           0        0.147135   -1.152302    1.161272
      6          8           0        0.559348   -0.190432   -0.833761
      7          6           0        1.978621   -0.339095   -0.622837
      8          6           0        2.504002    0.762290    0.275993
      9          1           0        2.402995   -0.283679   -1.623727
     10          1           0        2.168231   -1.326833   -0.201244
     11          1           0        3.586735    0.667153    0.378675
     12          1           0        2.279445    1.740935   -0.150499
     13          1           0        2.055009    0.695497    1.267158
     14          8           0       -1.458066    1.698990    0.391991
     15          1           0       -1.555896    2.020423   -0.518981
 ---------------------------------------------------------------------

 SCF Done:  E(UHF) =  -417.984135375     A.U. after   38 cycles
 E2 =    -0.1258755076D+01 EUMP2 =    -0.41924289045063D+03
 CCSD(T)= -0.41935425657D+03

 The electronic state is 2-A.
 Alpha  occ. eigenvalues --  -20.62667 -20.61255 -20.55664 -11.41437 -11.29699
 Alpha  occ. eigenvalues --  -11.26843 -11.25843 -11.22460  -1.48120  -1.38407
 Alpha  occ. eigenvalues --   -1.37810  -1.07844  -1.04291  -0.92670  -0.83767
 Alpha  occ. eigenvalues --   -0.76460  -0.73078  -0.69494  -0.68272  -0.66757
 Alpha  occ. eigenvalues --   -0.64805  -0.63055  -0.58152  -0.55765  -0.54014
 Alpha  occ. eigenvalues --   -0.53748  -0.50477  -0.47674  -0.46082  -0.43009
 Alpha  occ. eigenvalues --   -0.42073
 Alpha virt. eigenvalues --    0.03660   0.04401   0.05597   0.06283   0.07313
 Alpha virt. eigenvalues --    0.08861   0.09463   0.10144   0.10959   0.11629
 Alpha virt. eigenvalues --    0.13492   0.13703   0.14319   0.15804   0.16440

  Beta  occ. eigenvalues --  -20.61260 -20.58676 -20.56045 -11.41139 -11.29699
  Beta  occ. eigenvalues --  -11.27276 -11.25153 -11.22461  -1.48275  -1.38415
  Beta  occ. eigenvalues --   -1.23824  -1.07863  -1.03663  -0.91927  -0.83414
  Beta  occ. eigenvalues --   -0.76337  -0.72235  -0.69693  -0.66978  -0.63608
  Beta  occ. eigenvalues --   -0.62978  -0.58449  -0.55434  -0.54114  -0.50672
  Beta  occ. eigenvalues --   -0.50560  -0.48180  -0.47121  -0.43265  -0.42468
  Beta virt. eigenvalues --    0.03696   0.04348   0.04928   0.06284   0.07043
  Beta virt. eigenvalues --    0.08303   0.09281   0.09512   0.10625   0.11382
  Beta virt. eigenvalues --    0.12310   0.13644   0.13914   0.15211   0.15939

 Mulliken charges and spin densities:
               1          2
     1  C   -1.392925   0.813837
     2  H    0.206029  -0.059756
     3  C    1.401030  -0.750866
     4  C   -0.196589   0.161262
     5  O   -0.266030  -0.078907
     6  O   -0.078139   0.000671
     7  C   -0.153301   0.001919
     8  C   -0.392104   0.000641
     9  H    0.163708  -0.000036
    10  H    0.177864  -0.000054
    11  H    0.140363  -0.000077
    12  H    0.137807  -0.000127
    13  H    0.186738  -0.000681
    14  O   -0.157478   0.948530
    15  H    0.223026  -0.036356
 Sum of Mulliken charges =  -0.00000   1.00000

 Dipole moment (field-independent basis, Debye):
    X=              0.0514    Y=              1.2573    Z=             -3.1494  Tot=              3.3915
 Quadrupole moment (field-independent basis, Debye-Ang):
   XX=            -33.6091   YY=            -47.4425   ZZ=            -51.6677
   XY=              0.0256   XZ=              2.9693   YZ=             -0.0757

 DQ=-419.2976146\CCSD=-419.3009205\CCSD(T)=-419.3542566\S2=0.919883\S2-
 Normal termination of Gaussian 16 at Wed Aug 20 10:06:14 2025.
