 Gaussian 16, Revision A.03,
 Gaussian 16:  ES64L-G16RevA.03 25-Dec-2016

 --------------------------
 # freq 6-311++g(d,p) m062x
 --------------------------

 -------------------
 Title Card Required
 -------------------
 Symbolic Z-matrix:
 Charge =  0 Multiplicity = 2

                         Standard orientation:
 ---------------------------------------------------------------------
 Center     Atomic      Atomic             Coordinates (Angstroms)
 Number     Number       Type             X           Y           Z
 ---------------------------------------------------------------------
      1          6           0       -2.814891   -0.443698   -0.386411
      2          1           0       -3.862092   -0.434512   -0.580593
      3          6           0       -1.636553   -0.436894   -0.150012
      4          6           0       -0.222728   -0.622303    0.167439
      5          8           0        0.154327   -1.129848    1.184185
      6          8           0        0.556098   -0.204833   -0.830132
      7          6           0        1.976131   -0.348208   -0.618930
      8          6           0        2.505360    0.766433    0.260648
      9          1           0        2.398527   -0.309688   -1.621512
     10          1           0        2.166162   -1.328961   -0.181407
     11          1           0        3.588235    0.671065    0.361877
     12          1           0        2.281770    1.738589   -0.180994
     13          1           0        2.058690    0.716251    1.253731
     14          8           0       -1.451969    1.764059    0.379213
     15          1           0       -1.542865    2.020252   -0.553636
 ---------------------------------------------------------------------

 SCF Done:  E(UM062X) =  -420.206789653     A.U. after   23 cycles

 The electronic state is 2-A.
 Alpha  occ. eigenvalues --  -19.68254 -19.67424 -19.63063 -10.70607 -10.60561
 Alpha  occ. eigenvalues --  -10.57808 -10.57530 -10.53604  -1.25623  -1.16370
 Alpha  occ. eigenvalues --   -1.13194  -0.90661  -0.87266  -0.78078  -0.70629
 Alpha  occ. eigenvalues --   -0.64505  -0.61652  -0.58502  -0.56708  -0.55120
 Alpha  occ. eigenvalues --   -0.53466  -0.50426  -0.48904  -0.46350  -0.45225
 Alpha  occ. eigenvalues --   -0.42593  -0.41980  -0.39335  -0.38497  -0.36523
 Alpha  occ. eigenvalues --   -0.35851
 Alpha virt. eigenvalues --   -0.01128  -0.00492   0.00507   0.01353   0.02183
 Alpha virt. eigenvalues --    0.02855   0.03686   0.04612   0.05480   0.06158
 Alpha virt. eigenvalues --    0.07292   0.07936   0.07981   0.10290   0.10581

  Beta  occ. eigenvalues --  -19.68259 -19.65852 -19.63076 -10.70596 -10.60560
  Beta  occ. eigenvalues --  -10.57768 -10.57462 -10.53604  -1.25631  -1.16398
  Beta  occ. eigenvalues --   -1.05730  -0.90401  -0.87015  -0.77973  -0.70531
  Beta  occ. eigenvalues --   -0.64469  -0.61406  -0.58454  -0.56467  -0.53509
  Beta  occ. eigenvalues --   -0.52145  -0.49260  -0.46659  -0.45257  -0.41994
  Beta  occ. eigenvalues --   -0.40227  -0.38845  -0.38100  -0.37884  -0.36315
  Beta virt. eigenvalues --   -0.08779  -0.00636  -0.00320   0.00563   0.01668
  Beta virt. eigenvalues --    0.02231   0.02941   0.03680   0.04738   0.05578
  Beta virt. eigenvalues --    0.06201   0.07349   0.07952   0.08004   0.10440

 Mulliken charges and spin densities:
               1          2
     1  C   -0.411278   0.156799
     2  H    0.203220  -0.007870
     3  C    0.790868  -0.038804
     4  C   -0.627807   0.000970
     5  O   -0.189012  -0.005143
     6  O   -0.004523  -0.002376
     7  C   -0.260232  -0.001057
     8  C   -0.418940   0.000214
     9  H    0.192892   0.000010
    10  H    0.193745  -0.000098
    11  H    0.166757   0.000022
    12  H    0.157925  -0.000012
    13  H    0.195711  -0.001174
    14  O   -0.210288   0.920656
    15  H    0.220964  -0.022136
 Sum of Mulliken charges =  -0.00000   1.00000

 Dipole moment (field-independent basis, Debye):
    X=              0.1672    Y=              0.7828    Z=             -3.0576  Tot=              3.1606
 Quadrupole moment (field-independent basis, Debye-Ang):
   XX=            -33.4729   YY=            -47.9988   ZZ=            -51.2793
   XY=              0.6597   XZ=              2.9768   YZ=             -0.5305

  Exact polarizability:  91.399   4.088  64.213   4.751  -0.896  58.300
 Approx polarizability:  98.762   1.858  70.170   8.465  -5.008  75.030

 ******    1 imaginary frequencies (negative Signs) ******

                      1                      2                      3
                      A                      A                      A
 Frequencies --    -25.3113                40.9176               107.6697
 Red. masses --      4.6002                 4.9224                 3.7506
 Frc consts  --      0.0017                 0.0049                 0.0256
 IR Inten    --      2.4723                 2.2440                 6.3212

                      4                      5                      6
                      A                      A                      A
 Frequencies --    126.9323               156.8044               195.3502
 Red. masses --      3.6468                 2.4274                 1.5250
 Frc consts  --      0.0346                 0.0352                 0.0343
 IR Inten    --      6.8370                16.1029                40.1647

                      7                      8                      9
                      A                      A                      A
 Frequencies --    208.6347               231.9573               273.7925
 Red. masses --      3.5479                 1.5271                 3.2838
 Frc consts  --      0.0910                 0.0484                 0.1450
 IR Inten    --      5.1182                13.4900                13.9711

                     10                     11                     12
                      A                      A                      A
 Frequencies --    342.0420               424.4132               535.9638
 Red. masses --      2.9748                 3.9459                 1.2377
 Frc consts  --      0.2051                 0.4188                 0.2095
 IR Inten    --     13.6842                 0.9102                82.2917

                     13                     14                     15
                      A                      A                      A
 Frequencies --    564.1208               616.0605               733.3110
 Red. masses --      3.0218                 5.3473                 1.3156
 Frc consts  --      0.5666                 1.1957                 0.4168
 IR Inten    --     16.5391                20.1495                37.8800

                     16                     17                     18
                      A                      A                      A
 Frequencies --    747.8667               778.4626               803.0811
 Red. masses --      1.3317                 7.6138                 1.2196
 Frc consts  --      0.4388                 2.7185                 0.4635
 IR Inten    --     23.1842                47.1998                 5.2951

                     19                     20                     21
                      A                      A                      A
 Frequencies --    896.6230               927.4241              1077.6115
 Red. masses --      3.2104                 2.7577                 4.1150
 Frc consts  --      1.5207                 1.3975                 2.8154
 IR Inten    --     14.3353                 4.8418                22.3624

                     22                     23                     24
                      A                      A                      A
 Frequencies --   1129.0546              1203.8000              1284.0888
 Red. masses --      2.0956                 1.7766                 4.3337
 Frc consts  --      1.5739                 1.5168                 4.2102
 IR Inten    --     21.9265                 5.5516               584.0612

                     25                     26                     27
                      A                      A                      A
 Frequencies --   1346.9497              1401.9135              1432.1874
 Red. masses --      1.2062                 1.2718                 1.3752
 Frc consts  --      1.2894                 1.4727                 1.6619
 IR Inten    --     75.8029                24.1214                10.4010

                     28                     29                     30
                      A                      A                      A
 Frequencies --   1491.3758              1502.4920              1514.4151
 Red. masses --      1.0410                 1.0578                 1.0882
 Frc consts  --      1.3641                 1.4069                 1.4704
 IR Inten    --     10.4032                 1.6282                19.6139

                     31                     32                     33
                      A                      A                      A
 Frequencies --   1851.2078              2242.3976              3075.7265
 Red. masses --     12.0842                 5.8520                 1.0355
 Frc consts  --     24.3993                17.3374                 5.7718
 IR Inten    --    332.2258                64.0635                10.3700

                     34                     35                     36
                      A                      A                      A
 Frequencies --   3106.3677              3150.0386              3155.4262
 Red. masses --      1.0605                 1.1019                 1.1048
 Frc consts  --      6.0294                 6.4423                 6.4810
 IR Inten    --     19.6391                14.3663                 3.8945

                     37                     38                     39
                      A                      A                      A
 Frequencies --   3174.7796              3488.2489              3793.6432
 Red. masses --      1.1069                 1.1667                 1.0672
 Frc consts  --      6.5733                 8.3643                 9.0493
 IR Inten    --     14.4543                67.4111                33.0807

 - Thermochemistry -
 -------------------
 Temperature   298.150 Kelvin.  Pressure   1.00000 Atm.
 Atom     1 has atomic number  6 and mass  12.00000

 Molecular mass:   115.03952 amu.
 Principal axes and moments of inertia in atomic units:
                           1         2         3
     Eigenvalues --   526.220791384.586841563.70928
           X            0.99990   0.01211   0.00760
           Y           -0.01221   0.99983   0.01351
           Z           -0.00743  -0.01360   0.99988
 This molecule is an asymmetric top.
 Rotational symmetry number  1.
 Warning -- assumption of classical behavior for rotation
           may cause significant error
 Rotational temperatures (Kelvin)      0.16460     0.06256     0.05539
 Rotational constants (GHZ):           3.42963     1.30345     1.15414
    1 imaginary frequencies ignored.
 Zero-point vibrational energy     293881.5 (Joules/Mol)
                                   70.23937 (Kcal/Mol)
 Warning -- explicit consideration of  13 degrees of freedom as
           vibrations may cause significant error
 Vibrational temperatures:     58.87   154.91   182.63   225.61   281.07
          (Kelvin)            300.18   333.73   393.93   492.12   610.64
                              771.13   811.64   886.37  1055.07  1076.01
                             1120.03  1155.45  1290.04  1334.36  1550.44
                             1624.46  1732.00  1847.52  1937.96  2017.04
                             2060.60  2145.76  2161.75  2178.91  2663.48
                             3226.31  4425.28  4469.37  4532.20  4539.95
                             4567.80  5018.81  5458.21

 Zero-point correction=                           0.111934 (Hartree/Particle)
 Thermal correction to Energy=                    0.121503
 Thermal correction to Enthalpy=                  0.122447
 Thermal correction to Gibbs Free Energy=         0.076402
 Sum of electronic and zero-point Energies=           -420.094856
 Sum of electronic and thermal Energies=              -420.085287
 Sum of electronic and thermal Enthalpies=            -420.084343
 Sum of electronic and thermal Free Energies=         -420.130387

                     E (Thermal)             CV                S
                      KCal/Mol        Cal/Mol-Kelvin    Cal/Mol-Kelvin
 Total                   76.244             32.478             96.909
 Electronic               0.000              0.000              1.377
 Translational            0.889              2.981             40.136
 Rotational               0.889              2.981             28.523
 Vibrational             74.467             26.516             26.873
 Vibration     1          0.594              1.981              5.214
 Vibration     2          0.606              1.943              3.310
 Vibration     3          0.611              1.926              2.992
 Vibration     4          0.620              1.895              2.588
 Vibration     5          0.636              1.846              2.176
 Vibration     6          0.642              1.828              2.056
 Vibration     7          0.653              1.792              1.864
 Vibration     8          0.676              1.722              1.572
 Vibration     9          0.721              1.591              1.203
 Vibration    10          0.786              1.417              0.877
 Vibration    11          0.891              1.170              0.574
 Vibration    12          0.920              1.109              0.516
 Vibration    13          0.976              0.998              0.423

 1\1\GINC-AJ\Freq\UM062X\6-311++G(d,p)\C5H7O3(2)\AAYUSH\23-Jun-2025\0\\
 # freq 6-311++g(d,p) m062x\\Title Card Required\\0,2\C,-2.814891,-0.44
 3698,-0.386411\H,-3.862092,-0.434512,-0.580593\C,-1.636553,-0.436894,-
 0.150012\C,-0.222728,-0.622303,0.167439\O,0.154327,-1.129848,1.184185\
 O,0.556098,-0.204833,-0.830132\C,1.976131,-0.348208,-0.61893\C,2.50536
 ,0.766433,0.260648\H,2.398527,-0.309688,-1.621512\H,2.166162,-1.328961
 ,-0.181407\H,3.588235,0.671065,0.361877\H,2.28177,1.738589,-0.180994\H
 ,2.05869,0.716251,1.253731\O,-1.451969,1.764059,0.379213\H,-1.542865,2

 Normal termination of Gaussian 16 at Mon Jun 23 04:56:45 2025.
