 Gaussian 16, Revision A.03,
 Gaussian 16:  ES64L-G16RevA.03 25-Dec-2016

 --------------------------
 # ccsd(t)/6-311++g(d,p) sp
 --------------------------

 -------------------
 Title Card Required
 -------------------
 Symbolic Z-matrix:
 Charge =  0 Multiplicity = 2

                         Standard orientation:
 ---------------------------------------------------------------------
 Center     Atomic      Atomic             Coordinates (Angstroms)
 Number     Number       Type             X           Y           Z
 ---------------------------------------------------------------------
      1          6           0       -2.795028   -0.442773   -0.417977
      2          1           0       -3.838106   -0.479250   -0.636330
      3          6           0       -1.623418   -0.152246   -0.094618
      4          6           0       -0.220582   -0.598738    0.140018
      5          8           0        0.137048   -1.203444    1.107509
      6          8           0        0.561664   -0.158862   -0.841364
      7          6           0        1.981456   -0.313673   -0.633324
      8          6           0        2.501598    0.751916    0.311189
      9          1           0        2.407740   -0.216266   -1.630041
     10          1           0        2.172185   -1.317491   -0.252427
     11          1           0        3.584139    0.653426    0.412761
     12          1           0        2.276059    1.746625   -0.075333
     13          1           0        2.050286    0.645076    1.297860
     14          8           0       -1.469425    1.550534    0.419706
     15          1           0       -1.550749    1.995148   -0.435029
 ---------------------------------------------------------------------

 SCF Done:  E(UHF) =  -417.978512710     A.U. after   29 cycles
 E2 =    -0.1261105312D+01 EUMP2 =    -0.41923961802236D+03
 CCSD(T)= -0.41936125510D+03

 The electronic state is 2-A.
 Alpha  occ. eigenvalues --  -20.61261 -20.60460 -20.55876 -11.41274 -11.29710
 Alpha  occ. eigenvalues --  -11.29197 -11.28148 -11.22428  -1.48235  -1.37958
 Alpha  occ. eigenvalues --   -1.36162  -1.08579  -1.04560  -0.92789  -0.83929
 Alpha  occ. eigenvalues --   -0.76724  -0.73260  -0.69597  -0.68420  -0.65582
 Alpha  occ. eigenvalues --   -0.62793  -0.61818  -0.57875  -0.54851  -0.54007
 Alpha  occ. eigenvalues --   -0.52715  -0.50435  -0.47600  -0.46106  -0.43997
 Alpha  occ. eigenvalues --   -0.42001
 Alpha virt. eigenvalues --    0.03680   0.04411   0.05685   0.06283   0.07334
 Alpha virt. eigenvalues --    0.08800   0.09614   0.10668   0.11161   0.12112
 Alpha virt. eigenvalues --    0.13376   0.13639   0.14189   0.15967   0.16557

  Beta  occ. eigenvalues --  -20.61267 -20.57637 -20.56218 -11.40909 -11.31455
  Beta  occ. eigenvalues --  -11.29711 -11.25224 -11.22430  -1.48366  -1.38508
  Beta  occ. eigenvalues --   -1.27226  -1.07507  -1.03361  -0.91374  -0.82705
  Beta  occ. eigenvalues --   -0.76377  -0.71758  -0.69831  -0.67705  -0.64103
  Beta  occ. eigenvalues --   -0.62566  -0.58118  -0.55611  -0.54107  -0.51274
  Beta  occ. eigenvalues --   -0.50418  -0.48410  -0.47037  -0.45865  -0.42780
  Beta virt. eigenvalues --    0.03749   0.04265   0.04514   0.06256   0.06744
  Beta virt. eigenvalues --    0.07682   0.09126   0.09596   0.10432   0.11977
  Beta virt. eigenvalues --    0.12596   0.13612   0.13926   0.15814   0.16240

 Mulliken charges and spin densities:
               1          2
     1  C    0.020936   1.555501
     2  H    0.239750  -0.104162
     3  C    0.096170  -1.175211
     4  C   -0.261654   0.171955
     5  O   -0.272400  -0.069695
     6  O   -0.081843   0.003092
     7  C   -0.172364   0.001938
     8  C   -0.391308   0.001212
     9  H    0.161095  -0.000010
    10  H    0.177277  -0.000003
    11  H    0.136723  -0.000131
    12  H    0.141415  -0.000066
    13  H    0.185431  -0.000988
    14  O   -0.219851   0.636290
    15  H    0.240621  -0.019720
 Sum of Mulliken charges =  -0.00000   1.00000

 Dipole moment (field-independent basis, Debye):
    X=             -0.0785    Y=              0.7133    Z=             -3.2602  Tot=              3.3382
 Quadrupole moment (field-independent basis, Debye-Ang):
   XX=            -33.3677   YY=            -48.3828   ZZ=            -51.5865
   XY=              1.0835   XZ=              3.2763   YZ=             -0.0182

 -419.2978825\CCSD=-419.3061045\CCSD(T)=-419.3612551\S2=1.088187\S2-1=0
 Normal termination of Gaussian 16 at Tue Aug 19 21:09:23 2025.
