 Gaussian 16, Revision A.03,
 Gaussian 16:  ES64L-G16RevA.03 25-Dec-2016

 -------------------
 # freq 6-31+g m062x
 -------------------

 -------------------
 Title Card Required
 -------------------
 Symbolic Z-matrix:
 Charge =  0 Multiplicity = 2

                         Standard orientation:
 ---------------------------------------------------------------------
 Center     Atomic      Atomic             Coordinates (Angstroms)
 Number     Number       Type             X           Y           Z
 ---------------------------------------------------------------------
      1          6           0       -2.809525   -0.439428   -0.392269
      2          1           0       -3.854764   -0.457144   -0.596128
      3          6           0       -1.633285   -0.380365   -0.141326
      4          6           0       -0.221569   -0.610332    0.163037
      5          8           0        0.148798   -1.146752    1.166951
      6          8           0        0.558761   -0.193781   -0.832865
      7          6           0        1.978127   -0.341474   -0.621844
      8          6           0        2.504363    0.763297    0.272203
      9          1           0        2.402117   -0.290340   -1.623142
     10          1           0        2.167671   -1.327498   -0.196190
     11          1           0        3.587130    0.668268    0.374674
     12          1           0        2.279983    1.740285   -0.158190
     13          1           0        2.055814    0.700634    1.263813
     14          8           0       -1.456586    1.714883    0.388907
     15          1           0       -1.554403    2.020808   -0.527593
 ---------------------------------------------------------------------

 SCF Done:  E(UM062X) =  -419.957374115     A.U. after   23 cycles

 The electronic state is 2-A.
 Alpha  occ. eigenvalues --  -19.70663 -19.69496 -19.66214 -10.72962 -10.61587
 Alpha  occ. eigenvalues --  -10.59844 -10.59419 -10.54441  -1.28006  -1.18681
 Alpha  occ. eigenvalues --   -1.14018  -0.91526  -0.88084  -0.78642  -0.71255
 Alpha  occ. eigenvalues --   -0.64721  -0.62165  -0.58682  -0.57010  -0.54553
 Alpha  occ. eigenvalues --   -0.53853  -0.50408  -0.48898  -0.46584  -0.45251
 Alpha  occ. eigenvalues --   -0.42200  -0.42046  -0.39287  -0.38295  -0.36909
 Alpha  occ. eigenvalues --   -0.35443
 Alpha virt. eigenvalues --   -0.01010   0.01901   0.02352   0.03557   0.03708
 Alpha virt. eigenvalues --    0.03789   0.05182   0.06410   0.07502   0.08077
 Alpha virt. eigenvalues --    0.08486   0.09012   0.09640   0.12032   0.12536

  Beta  occ. eigenvalues --  -19.70668 -19.67896 -19.66231 -10.72944 -10.61587
  Beta  occ. eigenvalues --  -10.59850 -10.59279 -10.54442  -1.28014  -1.18710
  Beta  occ. eigenvalues --   -1.07226  -0.91201  -0.87815  -0.78528  -0.71134
  Beta  occ. eigenvalues --   -0.64676  -0.61815  -0.58562  -0.56837  -0.53951
  Beta  occ. eigenvalues --   -0.51541  -0.49366  -0.46889  -0.45293  -0.42040
  Beta  occ. eigenvalues --   -0.40402  -0.38711  -0.38197  -0.37619  -0.36645
  Beta virt. eigenvalues --   -0.09057  -0.00333   0.01934   0.02411   0.03619
  Beta virt. eigenvalues --    0.03749   0.04037   0.05147   0.06521   0.07577
  Beta virt. eigenvalues --    0.08016   0.08588   0.09062   0.09722   0.12183

 Mulliken charges and spin densities:
               1          2
     1  C   -0.056847   0.164955
     2  H    0.332655  -0.008171
     3  C   -0.207049  -0.052940
     4  C    0.149843   0.048529
     5  O   -0.325397  -0.006905
     6  O   -0.210660  -0.003290
     7  C   -0.240514  -0.001097
     8  C   -0.558829   0.000829
     9  H    0.218522  -0.000005
    10  H    0.234413  -0.000110
    11  H    0.206747  -0.000014
    12  H    0.218397  -0.000055
    13  H    0.243623  -0.000058
    14  O   -0.413601   0.891787
    15  H    0.408698  -0.033455
 Sum of Mulliken charges =  -0.00000   1.00000

 Dipole moment (field-independent basis, Debye):
    X=              0.1355    Y=              0.7236    Z=             -3.2436  Tot=              3.3261
 Quadrupole moment (field-independent basis, Debye-Ang):
   XX=            -33.1624   YY=            -48.1917   ZZ=            -52.4776
   XY=              0.8275   XZ=              3.3934   YZ=             -0.5147

  Exact polarizability:  86.819   5.138  63.787   4.880  -0.878  55.861
 Approx polarizability:  92.121   3.934  64.328   9.384  -6.030  69.293

 ******    4 imaginary frequencies (negative Signs) ******

                      1                      2                      3
                      A                      A                      A
 Frequencies --   -492.4897              -146.4591              -110.6236
 Red. masses --      1.0765                 3.7910                 6.8690
 Frc consts  --      0.1538                 0.0479                 0.0495
 IR Inten    --    123.6055                 5.8553                 4.4026

                      4                      5                      6
                      A                      A                      A
 Frequencies --    -24.4854                66.3192                83.0992
 Red. masses --      3.3849                 3.6636                 4.0087
 Frc consts  --      0.0012                 0.0095                 0.0163
 IR Inten    --      3.4101                 1.7700                 4.4704

                      7                      8                      9
                      A                      A                      A
 Frequencies --    131.9879               179.8904               193.3254
 Red. masses --      3.6491                 1.5002                 3.6544
 Frc consts  --      0.0375                 0.0286                 0.0805
 IR Inten    --      2.0224                 2.4799                 3.1044

                     10                     11                     12
                      A                      A                      A
 Frequencies --    311.6537               358.9648               419.1600
 Red. masses --      2.8909                 1.2377                 3.7714
 Frc consts  --      0.1654                 0.0940                 0.3904
 IR Inten    --     14.9015               109.7723                 3.1934

                     13                     14                     15
                      A                      A                      A
 Frequencies --    568.0734               626.7516               740.2518
 Red. masses --      4.1535                 5.5864                 7.6679
 Frc consts  --      0.7897                 1.2929                 2.4756
 IR Inten    --      4.3604                19.5239                35.1287

                     16                     17                     18
                      A                      A                      A
 Frequencies --    750.3971               776.3612               818.1177
 Red. masses --      1.2776                 1.4440                 1.2779
 Frc consts  --      0.4239                 0.5128                 0.5040
 IR Inten    --     60.4245                54.1644                 5.1979

                     19                     20                     21
                      A                      A                      A
 Frequencies --    899.5199               944.8541              1112.0662
 Red. masses --      3.3962                 2.5099                 4.1756
 Frc consts  --      1.6191                 1.3202                 3.0425
 IR Inten    --     18.3808                 5.3194                 8.5400

                     22                     23                     24
                      A                      A                      A
 Frequencies --   1158.7203              1228.1447              1322.9098
 Red. masses --      2.0943                 1.7601                 2.2821
 Frc consts  --      1.6567                 1.5642                 2.3532
 IR Inten    --     17.5767                 5.6522               371.7076

                     25                     26                     27
                      A                      A                      A
 Frequencies --   1368.4236              1442.2127              1458.1514
 Red. masses --      1.6016                 1.3559                 1.2600
 Frc consts  --      1.7671                 1.6616                 1.5785
 IR Inten    --    232.9264                28.8308                18.8134

                     28                     29                     30
                      A                      A                      A
 Frequencies --   1526.8690              1536.9830              1544.3744
 Red. masses --      1.0416                 1.0575                 1.0854
 Frc consts  --      1.4307                 1.4718                 1.5253
 IR Inten    --     14.1906                 3.0191                26.6844

                     31                     32                     33
                      A                      A                      A
 Frequencies --   1919.4867              2285.4518              3107.5810
 Red. masses --     12.3103                 5.7382                 1.0352
 Frc consts  --     26.7232                17.6592                 5.8902
 IR Inten    --    310.2388                70.4249                12.9486

                     34                     35                     36
                      A                      A                      A
 Frequencies --   3137.2827              3186.2033              3191.1363
 Red. masses --      1.0600                 1.1008                 1.1025
 Frc consts  --      6.1468                 6.5843                 6.6149
 IR Inten    --     21.1874                13.5622                 8.0986

                     37                     38                     39
                      A                      A                      A
 Frequencies --   3211.5125              3529.3053              3812.2942
 Red. masses --      1.1048                 1.1711                 1.0671
 Frc consts  --      6.7138                 8.5943                 9.1379
 IR Inten    --     16.7316                61.2840                14.7714

 - Thermochemistry -
 -------------------
 Temperature   298.150 Kelvin.  Pressure   1.00000 Atm.
 Atom     1 has atomic number  6 and mass  12.00000

 Molecular mass:   115.03952 amu.
 Principal axes and moments of inertia in atomic units:
                           1         2         3
     Eigenvalues --   514.083121382.600601551.78392
           X            0.99989   0.01218   0.00796
           Y           -0.01231   0.99979   0.01636
           Z           -0.00776  -0.01645   0.99983
 This molecule is an asymmetric top.
 Rotational symmetry number  1.
 Warning -- assumption of classical behavior for rotation
           may cause significant error
 Rotational temperatures (Kelvin)      0.16848     0.06265     0.05582
 Rotational constants (GHZ):           3.51060     1.30532     1.16301
    4 imaginary frequencies ignored.
 Zero-point vibrational energy     292773.1 (Joules/Mol)
                                   69.97444 (Kcal/Mol)
 Warning -- explicit consideration of   9 degrees of freedom as
           vibrations may cause significant error
 Vibrational temperatures:     95.42   119.56   189.90   258.82   278.15
          (Kelvin)            448.40   516.47   603.08   817.33   901.76
                             1065.06  1079.65  1117.01  1177.09  1294.21
                             1359.43  1600.02  1667.14  1767.03  1903.37
                             1968.86  2075.02  2097.95  2196.82  2211.38
                             2222.01  2761.71  3288.26  4471.12  4513.85
                             4584.24  4591.33  4620.65  5077.88  5485.04

 Zero-point correction=                           0.111511 (Hartree/Particle)
 Thermal correction to Energy=                    0.119678
 Thermal correction to Enthalpy=                  0.120622
 Thermal correction to Gibbs Free Energy=         0.077264
 Sum of electronic and zero-point Energies=           -419.845863
 Sum of electronic and thermal Energies=              -419.837697
 Sum of electronic and thermal Enthalpies=            -419.836752
 Sum of electronic and thermal Free Energies=         -419.880110

                     E (Thermal)             CV                S
                      KCal/Mol        Cal/Mol-Kelvin    Cal/Mol-Kelvin
 Total                   75.099             27.330             91.254
 Electronic               0.000              0.000              1.377
 Translational            0.889              2.981             40.136
 Rotational               0.889              2.981             28.491
 Vibrational             73.321             21.368             21.250
 Vibration     1          0.598              1.970              4.260
 Vibration     2          0.600              1.961              3.816
 Vibration     3          0.612              1.921              2.917
 Vibration     4          0.629              1.867              2.330
 Vibration     5          0.635              1.849              2.196
 Vibration     6          0.700              1.651              1.354
 Vibration     7          0.734              1.557              1.127
 Vibration     8          0.782              1.429              0.895
 Vibration     9          0.924              1.100              0.508

 Normal termination of Gaussian 16 at Fri Jun 20 13:47:26 2025.
