 Gaussian 16, Revision A.03,
 Gaussian 16:  ES64L-G16RevA.03 25-Dec-2016

 -------------------
 # freq 6-31+g m062x
 -------------------

 -------------------
 Title Card Required
 -------------------
 Symbolic Z-matrix:
 Charge =  0 Multiplicity = 2

                         Standard orientation:
 ---------------------------------------------------------------------
 Center     Atomic      Atomic             Coordinates (Angstroms)
 Number     Number       Type             X           Y           Z
 ---------------------------------------------------------------------
      1          6           0       -2.811421   -0.440695   -0.390163
      2          1           0       -3.857341   -0.449891   -0.590970
      3          6           0       -1.634287   -0.399598   -0.144627
      4          6           0       -0.221919   -0.613828    0.164595
      5          8           0        0.150574   -1.141132    1.172684
      6          8           0        0.558031   -0.197267   -0.831948
      7          6           0        1.977556   -0.343789   -0.620863
      8          6           0        2.504727    0.764314    0.268373
      9          1           0        2.401092   -0.296905   -1.622579
     10          1           0        2.167119   -1.328079   -0.191190
     11          1           0        3.587531    0.669288    0.370521
     12          1           0        2.280562    1.739660   -0.165862
     13          1           0        2.056705    0.705803    1.260447
     14          8           0       -1.455050    1.730999    0.385758
     15          1           0       -1.552032    2.020906   -0.536206
 ---------------------------------------------------------------------

 SCF Done:  E(UM062X) =  -419.958290440     A.U. after   23 cycles

 The electronic state is 2-A.
 Alpha  occ. eigenvalues --  -19.70659 -19.69684 -19.66199 -10.72952 -10.61582
 Alpha  occ. eigenvalues --  -10.59703 -10.59324 -10.54435  -1.27986  -1.18662
 Alpha  occ. eigenvalues --   -1.14157  -0.91475  -0.88047  -0.78621  -0.71240
 Alpha  occ. eigenvalues --   -0.64707  -0.62107  -0.58637  -0.56986  -0.54643
 Alpha  occ. eigenvalues --   -0.53874  -0.50433  -0.48923  -0.46597  -0.45243
 Alpha  occ. eigenvalues --   -0.42310  -0.42043  -0.39313  -0.38296  -0.36873
 Alpha  occ. eigenvalues --   -0.35672
 Alpha virt. eigenvalues --   -0.01055   0.01915   0.02352   0.03549   0.03742
 Alpha virt. eigenvalues --    0.03802   0.05190   0.06431   0.07500   0.08105
 Alpha virt. eigenvalues --    0.08484   0.09008   0.09644   0.12053   0.12533

  Beta  occ. eigenvalues --  -19.70664 -19.68067 -19.66215 -10.72936 -10.61582
  Beta  occ. eigenvalues --  -10.59699 -10.59203 -10.54435  -1.27994  -1.18688
  Beta  occ. eigenvalues --   -1.07205  -0.91181  -0.87799  -0.78519  -0.71132
  Beta  occ. eigenvalues --   -0.64668  -0.61792  -0.58525  -0.56817  -0.53951
  Beta  occ. eigenvalues --   -0.51583  -0.49388  -0.46887  -0.45285  -0.42041
  Beta  occ. eigenvalues --   -0.40320  -0.38718  -0.38170  -0.37735  -0.36635
  Beta virt. eigenvalues --   -0.08995  -0.00449   0.01949   0.02403   0.03620
  Beta virt. eigenvalues --    0.03777   0.04041   0.05160   0.06551   0.07573
  Beta virt. eigenvalues --    0.08049   0.08585   0.09065   0.09723   0.12191

 Mulliken charges and spin densities:
               1          2
     1  C   -0.089550   0.132060
     2  H    0.335800  -0.007241
     3  C   -0.184966  -0.037915
     4  C    0.153699   0.050169
     5  O   -0.324334  -0.006335
     6  O   -0.212385  -0.003167
     7  C   -0.237256  -0.001170
     8  C   -0.560139   0.000772
     9  H    0.218330  -0.000004
    10  H    0.234074  -0.000101
    11  H    0.206728  -0.000011
    12  H    0.218164  -0.000057
    13  H    0.243902  -0.000066
    14  O   -0.409535   0.907253
    15  H    0.407468  -0.034186
 Sum of Mulliken charges =  -0.00000   1.00000

 Dipole moment (field-independent basis, Debye):
    X=              0.1403    Y=              0.7513    Z=             -3.2435  Tot=              3.3323
 Quadrupole moment (field-independent basis, Debye-Ang):
   XX=            -33.2255   YY=            -48.1534   ZZ=            -52.4905
   XY=              0.7367   XZ=              3.3484   YZ=             -0.5584

  Exact polarizability:  86.825   4.669  62.462   4.770  -1.216  55.818
 Approx polarizability:  92.234   3.191  63.131   9.239  -6.351  69.265

 ******    4 imaginary frequencies (negative Signs) ******

                      1                      2                      3
                      A                      A                      A
 Frequencies --   -490.0920              -144.6951               -75.3222
 Red. masses --      1.0764                 3.6166                 4.7283
 Frc consts  --      0.1523                 0.0446                 0.0158
 IR Inten    --    124.9434                13.2093                 1.8088

                      4                      5                      6
                      A                      A                      A
 Frequencies --     -6.4242                81.0929                86.2493
 Red. masses --      3.0408                 3.8382                 5.0505
 Frc consts  --      0.0001                 0.0149                 0.0221
 IR Inten    --      3.5684                 6.4611                 0.5876

                      7                      8                      9
                      A                      A                      A
 Frequencies --    137.6450               182.4353               194.5688
 Red. masses --      3.0724                 1.4497                 4.1650
 Frc consts  --      0.0343                 0.0284                 0.0929
 IR Inten    --      7.3433                 1.1930                 3.1636

                     10                     11                     12
                      A                      A                      A
 Frequencies --    311.9983               331.4240               419.5957
 Red. masses --      2.8376                 1.3771                 3.8072
 Frc consts  --      0.1627                 0.0891                 0.3949
 IR Inten    --     17.2151               101.0333                 2.3649

                     13                     14                     15
                      A                      A                      A
 Frequencies --    568.4429               627.0537               747.5337
 Red. masses --      4.1487                 5.6046                 5.8331
 Frc consts  --      0.7898                 1.2984                 1.9205
 IR Inten    --      4.1790                17.9902                67.0314

                     16                     17                     18
                      A                      A                      A
 Frequencies --    764.7015               781.7862               818.2236
 Red. masses --      1.3423                 1.4693                 1.2801
 Frc consts  --      0.4625                 0.5291                 0.5049
 IR Inten    --     30.0378                53.8167                 4.5831

                     19                     20                     21
                      A                      A                      A
 Frequencies --    899.6524               944.9759              1112.5688
 Red. masses --      3.3989                 2.5119                 4.1746
 Frc consts  --      1.6208                 1.3216                 3.0445
 IR Inten    --     18.1788                 5.2382                 8.2481

                     22                     23                     24
                      A                      A                      A
 Frequencies --   1158.8026              1228.1395              1323.2797
 Red. masses --      2.0938                 1.7601                 2.2773
 Frc consts  --      1.6565                 1.5642                 2.3495
 IR Inten    --     17.7142                 5.4987               372.9598

                     25                     26                     27
                      A                      A                      A
 Frequencies --   1368.7866              1442.4237              1458.2136
 Red. masses --      1.6030                 1.3550                 1.2612
 Frc consts  --      1.7695                 1.6610                 1.5800
 IR Inten    --    234.8577                29.2011                18.5206

                     28                     29                     30
                      A                      A                      A
 Frequencies --   1526.8780              1536.9398              1544.2968
 Red. masses --      1.0416                 1.0585                 1.0843
 Frc consts  --      1.4307                 1.4732                 1.5236
 IR Inten    --     14.0950                 3.0689                26.4993

                     31                     32                     33
                      A                      A                      A
 Frequencies --   1919.0532              2294.2579              3107.6212
 Red. masses --     12.3137                 5.7042                 1.0352
 Frc consts  --     26.7184                17.6901                 5.8905
 IR Inten    --    308.0578                67.9217                13.1420

                     34                     35                     36
                      A                      A                      A
 Frequencies --   3137.1257              3186.1065              3191.1658
 Red. masses --      1.0599                 1.1008                 1.1026
 Frc consts  --      6.1460                 6.5840                 6.6153
 IR Inten    --     21.2234                13.7041                 8.1224

                     37                     38                     39
                      A                      A                      A
 Frequencies --   3211.5773              3530.3493              3809.3229
 Red. masses --      1.1048                 1.1725                 1.0671
 Frc consts  --      6.7138                 8.6096                 9.1236
 IR Inten    --     16.7131                61.0521                13.7926

 - Thermochemistry -
 -------------------
 Temperature   298.150 Kelvin.  Pressure   1.00000 Atm.
 Atom     1 has atomic number  6 and mass  12.00000

 Molecular mass:   115.03952 amu.
 Principal axes and moments of inertia in atomic units:
                           1         2         3
     Eigenvalues --   517.983641383.322631555.68633
           X            0.99990   0.01214   0.00784
           Y           -0.01226   0.99981   0.01539
           Z           -0.00765  -0.01548   0.99985
 This molecule is an asymmetric top.
 Rotational symmetry number  1.
 Warning -- assumption of classical behavior for rotation
           may cause significant error
 Rotational temperatures (Kelvin)      0.16721     0.06261     0.05568
 Rotational constants (GHZ):           3.48417     1.30464     1.16009
    4 imaginary frequencies ignored.
 Zero-point vibrational energy     292991.1 (Joules/Mol)
                                   70.02656 (Kcal/Mol)
 Warning -- explicit consideration of   9 degrees of freedom as
           vibrations may cause significant error
 Vibrational temperatures:    116.67   124.09   198.04   262.48   279.94
          (Kelvin)            448.90   476.85   603.70   817.86   902.19
                             1075.53  1100.23  1124.82  1177.24  1294.40
                             1359.61  1600.74  1667.26  1767.02  1903.90
                             1969.38  2075.33  2098.04  2196.84  2211.31
                             2221.90  2761.09  3300.93  4471.17  4513.62
                             4584.10  4591.38  4620.74  5079.39  5480.77

 Zero-point correction=                           0.111594 (Hartree/Particle)
 Thermal correction to Energy=                    0.119729
 Thermal correction to Enthalpy=                  0.120673
 Thermal correction to Gibbs Free Energy=         0.077544
 Sum of electronic and zero-point Energies=           -419.846696
 Sum of electronic and thermal Energies=              -419.838562
 Sum of electronic and thermal Enthalpies=            -419.837617
 Sum of electronic and thermal Free Energies=         -419.880747

                     E (Thermal)             CV                S
                      KCal/Mol        Cal/Mol-Kelvin    Cal/Mol-Kelvin
 Total                   75.131             27.312             90.773
 Electronic               0.000              0.000              1.377
 Translational            0.889              2.981             40.136
 Rotational               0.889              2.981             28.501
 Vibrational             73.354             21.351             20.759
 Vibration     1          0.600              1.962              3.864
 Vibration     2          0.601              1.959              3.743
 Vibration     3          0.614              1.916              2.836
 Vibration     4          0.630              1.864              2.303
 Vibration     5          0.635              1.847              2.184
 Vibration     6          0.700              1.651              1.352
 Vibration     7          0.714              1.613              1.253
 Vibration     8          0.782              1.428              0.893
 Vibration     9          0.924              1.100              0.507

 Normal termination of Gaussian 16 at Fri Jun 20 13:38:42 2025.
