 Gaussian 16, Revision A.03,
 Gaussian 16:  ES64L-G16RevA.03 25-Dec-2016

 --------------------------
 # freq 6-311++g(d,p) m062x
 --------------------------

 -------------------
 Title Card Required
 -------------------
 Symbolic Z-matrix:
 Charge =  0 Multiplicity = 2

                         Standard orientation:
 ---------------------------------------------------------------------
 Center     Atomic      Atomic             Coordinates (Angstroms)
 Number     Number       Type             X           Y           Z
 ---------------------------------------------------------------------
      1          6           0       -2.800320   -0.436985   -0.405452
      2          1           0       -3.842503   -0.485240   -0.622314
      3          6           0       -1.628087   -0.258120   -0.118240
      4          6           0       -0.219837   -0.599524    0.151650
      5          8           0        0.140828   -1.178568    1.134035
      6          8           0        0.560812   -0.174664   -0.837832
      7          6           0        1.980348   -0.326660   -0.628034
      8          6           0        2.502591    0.757190    0.294011
      9          1           0        2.405712   -0.249998   -1.627001
     10          1           0        2.170543   -1.322708   -0.226904
     11          1           0        3.585203    0.660460    0.396484
     12          1           0        2.277383    1.744018   -0.112538
     13          1           0        2.052178    0.670264    1.283028
     14          8           0       -1.464274    1.622831    0.406621
     15          1           0       -1.555613    2.011007   -0.476956
 ---------------------------------------------------------------------

 SCF Done:  E(UM062X) =  -420.202062905     A.U. after   23 cycles

 The electronic state is 2-A.
 Alpha  occ. eigenvalues --  -19.68350 -19.65118 -19.63326 -10.70768 -10.60623
 Alpha  occ. eigenvalues --  -10.60261 -10.59038 -10.53616  -1.25847  -1.16609
 Alpha  occ. eigenvalues --   -1.11294  -0.91350  -0.87744  -0.78338  -0.70905
 Alpha  occ. eigenvalues --   -0.64756  -0.62377  -0.58841  -0.57130  -0.53988
 Alpha  occ. eigenvalues --   -0.53238  -0.49815  -0.48597  -0.46157  -0.45292
 Alpha  occ. eigenvalues --   -0.42027  -0.41416  -0.38897  -0.38458  -0.37155
 Alpha  occ. eigenvalues --   -0.33373
 Alpha virt. eigenvalues --   -0.00606  -0.00504   0.00454   0.01402   0.02220
 Alpha virt. eigenvalues --    0.02674   0.03287   0.04441   0.05479   0.06019
 Alpha virt. eigenvalues --    0.07063   0.07804   0.07945   0.10190   0.10446

  Beta  occ. eigenvalues --  -19.68355 -19.63839 -19.63346 -10.70736 -10.60623
  Beta  occ. eigenvalues --  -10.60349 -10.58720 -10.53617  -1.25849  -1.16651
  Beta  occ. eigenvalues --   -1.06364  -0.90564  -0.87151  -0.78017  -0.70551
  Beta  occ. eigenvalues --   -0.64615  -0.61771  -0.58766  -0.56852  -0.53487
  Beta  occ. eigenvalues --   -0.51504  -0.49079  -0.46694  -0.45304  -0.41996
  Beta  occ. eigenvalues --   -0.41269  -0.38976  -0.38530  -0.36681  -0.36498
  Beta virt. eigenvalues --   -0.09908  -0.00405   0.00330   0.00724   0.01703
  Beta virt. eigenvalues --    0.02337   0.02839   0.03274   0.04579   0.05560
  Beta virt. eigenvalues --    0.05967   0.07162   0.07623   0.08010   0.10338

 Mulliken charges and spin densities:
               1          2
     1  C   -0.226875   0.584971
     2  H    0.210781  -0.019968
     3  C    0.414124  -0.254994
     4  C   -0.390559   0.031027
     5  O   -0.189967  -0.009958
     6  O    0.001791  -0.002514
     7  C   -0.280312  -0.000100
     8  C   -0.423798   0.002377
     9  H    0.191885   0.000252
    10  H    0.192744  -0.000094
    11  H    0.167559  -0.000019
    12  H    0.162518  -0.000594
    13  H    0.195707  -0.001425
    14  O   -0.246640   0.686061
    15  H    0.221042  -0.015021
 Sum of Mulliken charges =  -0.00000   1.00000

 Dipole moment (field-independent basis, Debye):
    X=              0.0516    Y=              0.2481    Z=             -3.1487  Tot=              3.1588
 Quadrupole moment (field-independent basis, Debye-Ang):
   XX=            -32.7115   YY=            -48.7148   ZZ=            -51.1705
   XY=              1.8669   XZ=              3.4529   YZ=             -0.3519

  Exact polarizability:  90.740   7.857  75.250   5.581   2.333  58.836
 Approx polarizability:  96.373   8.171  82.769   9.311  -1.304  75.703

 ******    1 imaginary frequencies (negative Signs) ******

                      1                      2                      3
                      A                      A                      A
 Frequencies --   -644.5057                41.4170                68.6604
 Red. masses --     12.3598                 3.0600                 3.8144
 Frc consts  --      3.0249                 0.0031                 0.0106
 IR Inten    --     60.8243                12.7760                 2.2165

                      4                      5                      6
                      A                      A                      A
 Frequencies --    100.3713               134.8515               179.6872
 Red. masses --      2.1344                 1.9460                 2.3157
 Frc consts  --      0.0127                 0.0209                 0.0441
 IR Inten    --     34.5438                21.7326                18.4949

                      7                      8                      9
                      A                      A                      A
 Frequencies --    189.6918               227.9154               260.3762
 Red. masses --      4.4192                 1.5772                 2.9833
 Frc consts  --      0.0937                 0.0483                 0.1192
 IR Inten    --      1.7742                 4.5932                 4.9769

                     10                     11                     12
                      A                      A                      A
 Frequencies --    339.2688               430.1678               561.3042
 Red. masses --      2.9805                 3.7843                 4.0462
 Frc consts  --      0.2021                 0.4126                 0.7511
 IR Inten    --     11.8413                 1.7036                 5.5653

                     13                     14                     15
                      A                      A                      A
 Frequencies --    598.2672               637.2496               719.1297
 Red. masses --      5.1757                 1.3321                 1.2990
 Frc consts  --      1.0915                 0.3187                 0.3958
 IR Inten    --      7.8374                30.4014                39.8997

                     16                     17                     18
                      A                      A                      A
 Frequencies --    766.5171               799.2966               813.0596
 Red. masses --      9.0693                 1.1951                 1.1797
 Frc consts  --      3.1395                 0.4499                 0.4595
 IR Inten    --     45.4521                14.6528                56.8272

                     19                     20                     21
                      A                      A                      A
 Frequencies --    895.9058               922.5473              1072.9127
 Red. masses --      3.2948                 2.6882                 4.0933
 Frc consts  --      1.5582                 1.3480                 2.7762
 IR Inten    --     16.5079                 5.9583                24.4202

                     22                     23                     24
                      A                      A                      A
 Frequencies --   1128.0814              1202.9779              1276.2931
 Red. masses --      2.0954                 1.7797                 4.4719
 Frc consts  --      1.5711                 1.5175                 4.2918
 IR Inten    --     21.3647                 8.5979               555.8325

                     25                     26                     27
                      A                      A                      A
 Frequencies --   1344.5167              1401.3248              1430.4209
 Red. masses --      1.2022                 1.2699                 1.3656
 Frc consts  --      1.2805                 1.4693                 1.6462
 IR Inten    --     67.0099                18.9168                13.0112

                     28                     29                     30
                      A                      A                      A
 Frequencies --   1491.2305              1502.0257              1514.5003
 Red. masses --      1.0405                 1.0534                 1.0921
 Frc consts  --      1.3632                 1.4002                 1.4759
 IR Inten    --     10.8065                 1.3683                19.8817

                     31                     32                     33
                      A                      A                      A
 Frequencies --   1854.8463              2086.5500              3075.9229
 Red. masses --     11.9800                 6.5083                 1.0354
 Frc consts  --     24.2842                16.6945                 5.7720
 IR Inten    --    348.2231                86.6231                 9.0199

                     34                     35                     36
                      A                      A                      A
 Frequencies --   3107.6466              3151.4218              3155.3324
 Red. masses --      1.0609                 1.1017                 1.1046
 Frc consts  --      6.0364                 6.4467                 6.4798
 IR Inten    --     19.4572                14.0817                 3.1382

                     37                     38                     39
                      A                      A                      A
 Frequencies --   3175.4817              3470.0815              3823.6360
 Red. masses --      1.1071                 1.1453                 1.0675
 Frc consts  --      6.5774                 8.1252                 9.1957
 IR Inten    --     14.3336                73.1820                51.8253

 - Thermochemistry -
 -------------------
 Temperature   298.150 Kelvin.  Pressure   1.00000 Atm.
 Atom     1 has atomic number  6 and mass  12.00000

 Molecular mass:   115.03952 amu.
 Principal axes and moments of inertia in atomic units:
                           1         2         3
     Eigenvalues --   493.291211378.591191530.90978
           X            0.99989   0.01239   0.00856
           Y           -0.01258   0.99967   0.02239
           Z           -0.00828  -0.02250   0.99971
 This molecule is an asymmetric top.
 Rotational symmetry number  1.
 Warning -- assumption of classical behavior for rotation
           may cause significant error
 Rotational temperatures (Kelvin)      0.17558     0.06283     0.05658
 Rotational constants (GHZ):           3.65857     1.30912     1.17887
    1 imaginary frequencies ignored.
 Zero-point vibrational energy     292791.3 (Joules/Mol)
                                   69.97881 (Kcal/Mol)
 Warning -- explicit consideration of  12 degrees of freedom as
           vibrations may cause significant error
 Vibrational temperatures:     59.59    98.79   144.41   194.02   258.53
          (Kelvin)            272.92   327.92   374.62   488.13   618.92
                              807.59   860.77   916.86  1034.67  1102.85
                             1150.01  1169.81  1289.01  1327.34  1543.68
                             1623.06  1730.82  1836.30  1934.46  2016.19
                             2058.06  2145.55  2161.08  2179.03  2668.71
                             3002.08  4425.57  4471.21  4534.19  4539.82
                             4568.81  4992.67  5501.36

 Zero-point correction=                           0.111518 (Hartree/Particle)
 Thermal correction to Energy=                    0.121273
 Thermal correction to Enthalpy=                  0.122217
 Thermal correction to Gibbs Free Energy=         0.075326
 Sum of electronic and zero-point Energies=           -420.090545
 Sum of electronic and thermal Energies=              -420.080790
 Sum of electronic and thermal Enthalpies=            -420.079845
 Sum of electronic and thermal Free Energies=         -420.126737

                     E (Thermal)             CV                S
                      KCal/Mol        Cal/Mol-Kelvin    Cal/Mol-Kelvin
 Total                   76.100             32.412             98.691
 Electronic               0.000              0.000              1.377
 Translational            0.889              2.981             40.136
 Rotational               0.889              2.981             28.434
 Vibrational             74.323             26.450             28.745
 Vibration     1          0.594              1.981              5.190
 Vibration     2          0.598              1.969              4.191
 Vibration     3          0.604              1.949              3.447
 Vibration     4          0.613              1.919              2.876
 Vibration     5          0.629              1.867              2.332
 Vibration     6          0.633              1.854              2.231
 Vibration     7          0.651              1.798              1.895
 Vibration     8          0.668              1.745              1.659
 Vibration     9          0.719              1.597              1.216
 Vibration    10          0.791              1.405              0.858
 Vibration    11          0.917              1.115              0.521
 Vibration    12          0.956              1.035              0.453

 1\1\GINC-AJ\Freq\UM062X\6-311++G(d,p)\C5H7O3(2)\AAYUSH\16-Aug-2025\0\\
 # freq 6-311++g(d,p) m062x\\Title Card Required\\0,2\C,2.739279,-0.412
 423,0.415175\H,3.781506,-0.461512,0.631642\C,1.566983,-0.232444,0.1289
 19\C,0.1587,-0.572813,-0.142103\O,-0.20212,-1.147848,-1.126783\O,-0.62
 1785,-0.15205,0.849258\C,-2.041352,-0.303259,0.639106\C,-2.563824,0.78
 4331,-0.278394\H,-2.466532,-0.230711,1.638459\H,-2.231572,-1.297666,0.
 233936\H,-3.646451,0.687965,-0.381059\H,-2.33859,1.769497,0.13215\H,-2
 .113593,0.701479,-1.267844\O,1.402975,1.650632,-0.388204\H,1.494461,2.

 Normal termination of Gaussian 16 at Sat Aug 16 20:36:44 2025.
