 Gaussian 16, Revision A.03,
 Gaussian 16:  ES64L-G16RevA.03 25-Dec-2016

 -------------------
 # freq 6-31+g m062x
 -------------------

 -------------------
 Title Card Required
 -------------------
 Symbolic Z-matrix:
 Charge =  0 Multiplicity = 2

                         Standard orientation:
 ---------------------------------------------------------------------
 Center     Atomic      Atomic             Coordinates (Angstroms)
 Number     Number       Type             X           Y           Z
 ---------------------------------------------------------------------
      1          6           0       -2.797537   -0.439658   -0.412753
      2          1           0       -3.839669   -0.486096   -0.631697
      3          6           0       -1.625253   -0.194459   -0.104489
      4          6           0       -0.219835   -0.598754    0.144829
      5          8           0        0.138398   -1.193457    1.118287
      6          8           0        0.561272   -0.165310   -0.839984
      7          6           0        1.981030   -0.319019   -0.631224
      8          6           0        2.502025    0.754009    0.304219
      9          1           0        2.406841   -0.230030   -1.628937
     10          1           0        2.171469   -1.319772   -0.242151
     11          1           0        3.584588    0.656114    0.406128
     12          1           0        2.276604    1.745558   -0.090416
     13          1           0        2.051052    0.655314    1.291880
     14          8           0       -1.467255    1.579390    0.414696
     15          1           0       -1.552789    2.001211   -0.452286
 ---------------------------------------------------------------------

 SCF Done:  E(UM062X) =  -419.955578605     A.U. after   21 cycles

 The electronic state is 2-A.
 Alpha  occ. eigenvalues --  -19.70882 -19.67043 -19.66668 -10.73173 -10.63367
 Alpha  occ. eigenvalues --  -10.61723 -10.61138 -10.54485  -1.28384  -1.19055
 Alpha  occ. eigenvalues --   -1.12058  -0.92349  -0.88590  -0.78931  -0.71644
 Alpha  occ. eigenvalues --   -0.65077  -0.62988  -0.59265  -0.57441  -0.54238
 Alpha  occ. eigenvalues --   -0.53542  -0.49522  -0.48404  -0.46547  -0.45396
 Alpha  occ. eigenvalues --   -0.42193  -0.41342  -0.38597  -0.38068  -0.37594
 Alpha  occ. eigenvalues --   -0.32130
 Alpha virt. eigenvalues --   -0.00580   0.01673   0.02196   0.02785   0.03655
 Alpha virt. eigenvalues --    0.03838   0.05126   0.06459   0.07436   0.07942
 Alpha virt. eigenvalues --    0.08524   0.09028   0.09523   0.11524   0.12553

  Beta  occ. eigenvalues --  -19.70884 -19.66689 -19.65988 -10.73120 -10.63522
  Beta  occ. eigenvalues --  -10.61722 -10.60663 -10.54486  -1.28376  -1.19080
  Beta  occ. eigenvalues --   -1.08460  -0.91401  -0.87921  -0.78546  -0.71148
  Beta  occ. eigenvalues --   -0.64898  -0.62143  -0.59081  -0.57244  -0.54011
  Beta  occ. eigenvalues --   -0.51834  -0.49163  -0.46952  -0.45376  -0.42311
  Beta  occ. eigenvalues --   -0.42055  -0.39409  -0.38514  -0.36836  -0.36238
  Beta virt. eigenvalues --   -0.09831   0.00534   0.01588   0.02348   0.02951
  Beta virt. eigenvalues --    0.03708   0.04007   0.04976   0.06349   0.07534
  Beta virt. eigenvalues --    0.07814   0.08560   0.08859   0.09604   0.11846

 Mulliken charges and spin densities:
               1          2
     1  C    0.346028   0.786679
     2  H    0.303473  -0.028249
     3  C   -0.414369  -0.318869
     4  C    0.054059   0.052658
     5  O   -0.331627  -0.008804
     6  O   -0.205577  -0.002831
     7  C   -0.248837   0.000958
     8  C   -0.558620   0.001077
     9  H    0.220298  -0.000010
    10  H    0.236151  -0.000215
    11  H    0.206665  -0.000062
    12  H    0.221725   0.000005
    13  H    0.242103   0.000037
    14  O   -0.489958   0.533732
    15  H    0.418487  -0.016106
 Sum of Mulliken charges =  -0.00000   1.00000

 Dipole moment (field-independent basis, Debye):
    X=              0.0672    Y=              0.1054    Z=             -3.3758  Tot=              3.3781
 Quadrupole moment (field-independent basis, Debye-Ang):
   XX=            -32.5242   YY=            -49.2930   ZZ=            -52.4750
   XY=              1.9850   XZ=              3.8466   YZ=             -0.4696

  Exact polarizability:  85.155   7.153  69.725   5.161   1.233  56.218
 Approx polarizability:  87.585   9.198  76.814   9.491  -2.219  69.974

 ******    3 imaginary frequencies (negative Signs) ******

                      1                      2                      3
                      A                      A                      A
 Frequencies --   -716.7702              -508.8086               -86.4949
 Red. masses --     12.3752                 1.0643                 6.9764
 Frc consts  --      3.7460                 0.1623                 0.0308
 IR Inten    --      2.2865               120.0638                 2.3217

                      4                      5                      6
                      A                      A                      A
 Frequencies --     18.0249                48.8308               126.8253
 Red. masses --      2.6950                 3.5245                 2.4684
 Frc consts  --      0.0005                 0.0050                 0.0234
 IR Inten    --      3.1766                 3.7242                 3.6725

                      7                      8                      9
                      A                      A                      A
 Frequencies --    185.5128               209.0221               266.0898
 Red. masses --      1.4742                 7.8669                 3.1649
 Frc consts  --      0.0299                 0.2025                 0.1320
 IR Inten    --      3.1100                 2.4095                 7.0399

                     10                     11                     12
                      A                      A                      A
 Frequencies --    312.5405               425.0375               473.2562
 Red. masses --      3.0310                 3.4453                 1.4443
 Frc consts  --      0.1744                 0.3667                 0.1906
 IR Inten    --     15.3819                 2.0127                41.0303

                     13                     14                     15
                      A                      A                      A
 Frequencies --    570.3967               594.4472               712.1902
 Red. masses --      3.8253                 4.3491                 7.9785
 Frc consts  --      0.7333                 0.9055                 2.3843
 IR Inten    --      6.3783                13.5473                59.2209

                     16                     17                     18
                      A                      A                      A
 Frequencies --    725.6644               805.1441               824.5476
 Red. masses --      1.2521                 1.3682                 1.3173
 Frc consts  --      0.3885                 0.5226                 0.5277
 IR Inten    --     56.1684                27.7396                28.6918

                     19                     20                     21
                      A                      A                      A
 Frequencies --    896.0843               937.2196              1105.4448
 Red. masses --      3.2764                 2.4814                 4.1970
 Frc consts  --      1.5501                 1.2842                 3.0218
 IR Inten    --     21.1929                 3.8574                11.4629

                     22                     23                     24
                      A                      A                      A
 Frequencies --   1157.1153              1227.1155              1315.0689
 Red. masses --      2.0670                 1.7529                 2.6196
 Frc consts  --      1.6306                 1.5552                 2.6692
 IR Inten    --     16.1080                 8.2344               388.7114

                     25                     26                     27
                      A                      A                      A
 Frequencies --   1364.6259              1440.1278              1458.7714
 Red. masses --      1.4919                 1.3463                 1.2478
 Frc consts  --      1.6369                 1.6452                 1.5645
 IR Inten    --    181.6214                19.2527                20.7194

                     28                     29                     30
                      A                      A                      A
 Frequencies --   1526.7541              1536.6800              1544.8221
 Red. masses --      1.0411                 1.0524                 1.0897
 Frc consts  --      1.4299                 1.4642                 1.5321
 IR Inten    --     14.7712                 3.0041                25.6142

                     31                     32                     33
                      A                      A                      A
 Frequencies --   1918.1493              2035.6526              3107.9890
 Red. masses --     11.6643                 6.9028                 1.0352
 Frc consts  --     25.2856                16.8533                 5.8915
 IR Inten    --    301.3320                57.1485                11.6473

                     34                     35                     36
                      A                      A                      A
 Frequencies --   3138.8989              3188.0102              3191.3077
 Red. masses --      1.0602                 1.1007                 1.1023
 Frc consts  --      6.1544                 6.5911                 6.6146
 IR Inten    --     20.8251                12.8587                 7.2098

                     37                     38                     39
                      A                      A                      A
 Frequencies --   3212.1423              3503.0231              3853.9573
 Red. masses --      1.1051                 1.1382                 1.0672
 Frc consts  --      6.7181                 8.2292                 9.3394
 IR Inten    --     16.2428                68.3863                30.6135

 - Thermochemistry -
 -------------------
 Temperature   298.150 Kelvin.  Pressure   1.00000 Atm.
 Atom     1 has atomic number  6 and mass  12.00000

 Molecular mass:   115.03952 amu.
 Principal axes and moments of inertia in atomic units:
                           1         2         3
     Eigenvalues --   484.448771377.009861522.25511
           X            0.99988   0.01237   0.00879
           Y           -0.01259   0.99960   0.02539
           Z           -0.00847  -0.02550   0.99964
 This molecule is an asymmetric top.
 Rotational symmetry number  1.
 Warning -- assumption of classical behavior for rotation
           may cause significant error
 Rotational temperatures (Kelvin)      0.17879     0.06290     0.05690
 Rotational constants (GHZ):           3.72535     1.31062     1.18557
    3 imaginary frequencies ignored.
 Zero-point vibrational energy     292824.8 (Joules/Mol)
                                   69.98682 (Kcal/Mol)
 Warning -- explicit consideration of  11 degrees of freedom as
           vibrations may cause significant error
 Vibrational temperatures:     25.93    70.26   182.47   266.91   300.74
          (Kelvin)            382.84   449.68   611.53   680.91   820.67
                              855.28  1024.68  1044.07  1158.42  1186.34
                             1289.27  1348.45  1590.49  1664.83  1765.55
                             1892.09  1963.39  2072.02  2098.85  2196.66
                             2210.94  2222.65  2759.79  2928.85  4471.70
                             4516.18  4586.84  4591.58  4621.56  5040.07
                             5544.99

 Zero-point correction=                           0.111531 (Hartree/Particle)
 Thermal correction to Energy=                    0.120225
 Thermal correction to Enthalpy=                  0.121169
 Thermal correction to Gibbs Free Energy=         0.075575
 Sum of electronic and zero-point Energies=           -419.844048
 Sum of electronic and thermal Energies=              -419.835354
 Sum of electronic and thermal Enthalpies=            -419.834410
 Sum of electronic and thermal Free Energies=         -419.880004

                     E (Thermal)             CV                S
                      KCal/Mol        Cal/Mol-Kelvin    Cal/Mol-Kelvin
 Total                   75.442             28.946             95.960
 Electronic               0.000              0.000              1.377
 Translational            0.889              2.981             40.136
 Rotational               0.889              2.981             28.409
 Vibrational             73.665             22.985             26.039
 Vibration     1          0.593              1.986              6.841
 Vibration     2          0.595              1.978              4.864
 Vibration     3          0.611              1.926              2.994
 Vibration     4          0.632              1.860              2.272
 Vibration     5          0.642              1.827              2.052
 Vibration     6          0.672              1.735              1.621
 Vibration     7          0.701              1.650              1.349
 Vibration     8          0.787              1.416              0.875
 Vibration     9          0.830              1.309              0.728
 Vibration    10          0.926              1.095              0.503
 Vibration    11          0.952              1.044              0.459

 Normal termination of Gaussian 16 at Fri Jun 20 13:49:48 2025.
