 Gaussian 16, Revision A.03,
 Gaussian 16:  ES64L-G16RevA.03 25-Dec-2016

 --------------------------
 # freq 6-311++g(d,p) m062x
 --------------------------

 -------------------
 Title Card Required
 -------------------
 Symbolic Z-matrix:
 Charge =  0 Multiplicity = 2

                         Standard orientation:
 ---------------------------------------------------------------------
 Center     Atomic      Atomic             Coordinates (Angstroms)
 Number     Number       Type             X           Y           Z
 ---------------------------------------------------------------------
      1          6           0       -2.799330   -0.437515   -0.407806
      2          1           0       -3.841340   -0.486949   -0.625769
      3          6           0       -1.627215   -0.236974   -0.113822
      4          6           0       -0.219691   -0.599020    0.149448
      5          8           0        0.139919   -1.183583    1.128759
      6          8           0        0.560962   -0.171562   -0.838568
      7          6           0        1.980594   -0.324139   -0.629087
      8          6           0        2.502395    0.756137    0.297434
      9          1           0        2.406092   -0.243397   -1.627658
     10          1           0        2.170856   -1.321771   -0.231958
     11          1           0        3.584988    0.658992    0.399721
     12          1           0        2.277116    1.744537   -0.105181
     13          1           0        2.051774    0.665335    1.286007
     14          8           0       -1.465281    1.608209    0.409392
     15          1           0       -1.554811    2.007812   -0.468831
 ---------------------------------------------------------------------

 SCF Done:  E(UM062X) =  -420.202751900     A.U. after   22 cycles

 The electronic state is 2-A.
 Alpha  occ. eigenvalues --  -19.68374 -19.64798 -19.63378 -10.70782 -10.60801
 Alpha  occ. eigenvalues --  -10.60636 -10.59266 -10.53616  -1.25884  -1.16649
 Alpha  occ. eigenvalues --   -1.11021  -0.91452  -0.87803  -0.78372  -0.70957
 Alpha  occ. eigenvalues --   -0.64803  -0.62460  -0.58890  -0.57191  -0.53935
 Alpha  occ. eigenvalues --   -0.53193  -0.49685  -0.48538  -0.46150  -0.45305
 Alpha  occ. eigenvalues --   -0.42041  -0.41349  -0.38808  -0.38374  -0.37253
 Alpha  occ. eigenvalues --   -0.32957
 Alpha virt. eigenvalues --   -0.00542  -0.00482   0.00441   0.01424   0.02231
 Alpha virt. eigenvalues --    0.02608   0.03229   0.04420   0.05490   0.06006
 Alpha virt. eigenvalues --    0.07049   0.07800   0.07946   0.10195   0.10402

  Beta  occ. eigenvalues --  -19.68378 -19.63606 -19.63398 -10.70746 -10.60908
  Beta  occ. eigenvalues --  -10.60635 -10.58905 -10.53616  -1.25883  -1.16689
  Beta  occ. eigenvalues --   -1.06556  -0.90567  -0.87145  -0.78001  -0.70537
  Beta  occ. eigenvalues --   -0.64641  -0.61808  -0.58811  -0.56911  -0.53487
  Beta  occ. eigenvalues --   -0.51524  -0.49057  -0.46703  -0.45307  -0.42001
  Beta  occ. eigenvalues --   -0.41524  -0.39093  -0.38593  -0.36645  -0.36409
  Beta virt. eigenvalues --   -0.09924  -0.00410   0.00366   0.00775   0.01714
  Beta virt. eigenvalues --    0.02354   0.02802   0.03227   0.04565   0.05561
  Beta virt. eigenvalues --    0.05944   0.07146   0.07607   0.08004   0.10341

 Mulliken charges and spin densities:
               1          2
     1  C   -0.123497   0.664196
     2  H    0.214990  -0.021998
     3  C    0.313084  -0.287382
     4  C   -0.387891   0.037670
     5  O   -0.190300  -0.009967
     6  O    0.001785  -0.002243
     7  C   -0.281283   0.000330
     8  C   -0.423921   0.002335
     9  H    0.191854   0.000278
    10  H    0.192671  -0.000095
    11  H    0.167139  -0.000032
    12  H    0.162952  -0.000571
    13  H    0.195766  -0.001423
    14  O   -0.255617   0.631543
    15  H    0.222268  -0.012640
 Sum of Mulliken charges =  -0.00000   1.00000

 Dipole moment (field-independent basis, Debye):
    X=              0.0380    Y=              0.1634    Z=             -3.1709  Tot=              3.1753
 Quadrupole moment (field-independent basis, Debye-Ang):
   XX=            -32.6485   YY=            -48.8545   ZZ=            -51.1747
   XY=              2.0086   XZ=              3.5029   YZ=             -0.3665

  Exact polarizability:  90.343   7.684  74.645   5.495   2.259  58.799
 Approx polarizability:  95.530   8.464  83.839   9.177  -0.972  75.750

 ******    1 imaginary frequencies (negative Signs) ******

                      1                      2                      3
                      A                      A                      A
 Frequencies --   -685.8608                52.9304                72.9840
 Red. masses --     12.5056                 2.8375                 3.6200
 Frc consts  --      3.4660                 0.0047                 0.0114
 IR Inten    --     39.5616                14.9637                 2.2717

                      4                      5                      6
                      A                      A                      A
 Frequencies --    100.8960               134.8195               182.1211
 Red. masses --      2.1717                 1.9320                 1.9954
 Frc consts  --      0.0130                 0.0207                 0.0390
 IR Inten    --     34.1584                22.6077                13.5174

                      7                      8                      9
                      A                      A                      A
 Frequencies --    202.1593               229.5787               266.7637
 Red. masses --      6.4371                 1.6234                 2.9887
 Frc consts  --      0.1550                 0.0504                 0.1253
 IR Inten    --      5.4379                 4.8094                 4.8457

                     10                     11                     12
                      A                      A                      A
 Frequencies --    339.6140               431.7427               562.1717
 Red. masses --      3.0130                 3.7411                 3.5063
 Frc consts  --      0.2047                 0.4109                 0.6529
 IR Inten    --     11.9919                 1.8648                 8.8707

                     13                     14                     15
                      A                      A                      A
 Frequencies --    593.4918               602.3133               716.5785
 Red. masses --      1.8363                 2.8827                 1.3084
 Frc consts  --      0.3811                 0.6162                 0.3958
 IR Inten    --     17.7827                18.9707                39.8382

                     16                     17                     18
                      A                      A                      A
 Frequencies --    766.6002               800.4830               851.3636
 Red. masses --      9.2974                 1.2104                 1.1700
 Frc consts  --      3.2192                 0.4570                 0.4996
 IR Inten    --     40.7969                 5.8393                62.0082

                     19                     20                     21
                      A                      A                      A
 Frequencies --    896.3805               921.3610              1072.1242
 Red. masses --      3.2029                 2.6782                 4.0808
 Frc consts  --      1.5163                 1.3395                 2.7636
 IR Inten    --     17.8553                 5.9865                24.6232

                     22                     23                     24
                      A                      A                      A
 Frequencies --   1127.9791              1202.8054              1275.3160
 Red. masses --      2.0940                 1.7801                 4.4907
 Frc consts  --      1.5698                 1.5173                 4.3032
 IR Inten    --     21.1654                 8.9981               553.0993

                     25                     26                     27
                      A                      A                      A
 Frequencies --   1344.3573              1401.3339              1430.3232
 Red. masses --      1.2015                 1.2695                 1.3641
 Frc consts  --      1.2794                 1.4688                 1.6442
 IR Inten    --     66.0891                18.3282                12.9453

                     28                     29                     30
                      A                      A                      A
 Frequencies --   1491.2046              1501.9201              1514.4413
 Red. masses --      1.0404                 1.0532                 1.0923
 Frc consts  --      1.3631                 1.3998                 1.4760
 IR Inten    --     10.7865                 1.3247                19.6550

                     31                     32                     33
                      A                      A                      A
 Frequencies --   1854.7813              2050.3850              3076.0197
 Red. masses --     11.9112                 6.6743                 1.0354
 Frc consts  --     24.1431                16.5320                 5.7723
 IR Inten    --    345.3084                74.8015                 8.9698

                     34                     35                     36
                      A                      A                      A
 Frequencies --   3107.7835              3151.6334              3155.3830
 Red. masses --      1.0609                 1.1017                 1.1047
 Frc consts  --      6.0371                 6.4474                 6.4801
 IR Inten    --     19.4502                14.1092                 3.0038

                     37                     38                     39
                      A                      A                      A
 Frequencies --   3175.6126              3466.0298              3827.2008
 Red. masses --      1.1071                 1.1410                 1.0676
 Frc consts  --      6.5780                 8.0761                 9.2132
 IR Inten    --     14.2958                75.1379                54.7849

 - Thermochemistry -
 -------------------
 Temperature   298.150 Kelvin.  Pressure   1.00000 Atm.
 Atom     1 has atomic number  6 and mass  12.00000

 Molecular mass:   115.03952 amu.
 Principal axes and moments of inertia in atomic units:
                           1         2         3
     Eigenvalues --   490.235041378.048501527.91108
           X            0.99989   0.01240   0.00864
           Y           -0.01260   0.99965   0.02340
           Z           -0.00835  -0.02351   0.99969
 This molecule is an asymmetric top.
 Rotational symmetry number  1.
 Warning -- assumption of classical behavior for rotation
           may cause significant error
 Rotational temperatures (Kelvin)      0.17668     0.06285     0.05669
 Rotational constants (GHZ):           3.68138     1.30964     1.18118
    1 imaginary frequencies ignored.
 Zero-point vibrational energy     292791.9 (Joules/Mol)
                                   69.97895 (Kcal/Mol)
 Warning -- explicit consideration of  13 degrees of freedom as
           vibrations may cause significant error
 Vibrational temperatures:     76.16   105.01   145.17   193.98   262.03
          (Kelvin)            290.86   330.31   383.81   488.63   621.18
                              808.84   853.90   866.59  1031.00  1102.97
                             1151.72  1224.92  1289.69  1325.63  1542.55
                             1622.91  1730.57  1834.90  1934.23  2016.21
                             2057.92  2145.51  2160.93  2178.94  2668.62
                             2950.05  4425.71  4471.41  4534.50  4539.89
                             4569.00  4986.84  5506.49

 Zero-point correction=                           0.111519 (Hartree/Particle)
 Thermal correction to Energy=                    0.121214
 Thermal correction to Enthalpy=                  0.122158
 Thermal correction to Gibbs Free Energy=         0.075643
 Sum of electronic and zero-point Energies=           -420.091233
 Sum of electronic and thermal Energies=              -420.081538
 Sum of electronic and thermal Enthalpies=            -420.080593
 Sum of electronic and thermal Free Energies=         -420.127109

                     E (Thermal)             CV                S
                      KCal/Mol        Cal/Mol-Kelvin    Cal/Mol-Kelvin
 Total                   76.063             32.395             97.901
 Electronic               0.000              0.000              1.377
 Translational            0.889              2.981             40.136
 Rotational               0.889              2.981             28.425
 Vibrational             74.286             26.433             27.962
 Vibration     1          0.596              1.976              4.705
 Vibration     2          0.599              1.967              4.071
 Vibration     3          0.604              1.948              3.437
 Vibration     4          0.613              1.919              2.876
 Vibration     5          0.630              1.864              2.307
 Vibration     6          0.639              1.837              2.113
 Vibration     7          0.652              1.796              1.882
 Vibration     8          0.672              1.734              1.617
 Vibration     9          0.720              1.596              1.214
 Vibration    10          0.793              1.401              0.853
 Vibration    11          0.918              1.113              0.520
 Vibration    12          0.951              1.046              0.461
 Vibration    13          0.961              1.027              0.446

 1\1\GINC-AJ\Freq\UM062X\6-311++G(d,p)\C5H7O3(2)\AAYUSH\16-Aug-2025\0\\
 # freq 6-311++g(d,p) m062x\\Title Card Required\\0,2\C,2.738361,-0.414
 564,0.415288\H,3.780453,-0.465674,0.632473\C,1.566124,-0.211745,0.1233
 62\C,0.15854,-0.571767,-0.142355\O,-0.201362,-1.148359,-1.126273\O,-0.
 621803,-0.152454,0.849389\C,-2.041495,-0.303454,0.639172\C,-2.563724,0
 .784291,-0.278325\H,-2.466647,-0.230898,1.638518\H,-2.231805,-1.297833
 ,0.233988\H,-3.646344,0.68788,-0.381019\H,-2.338394,1.769397,0.132256\
 H,-2.113444,0.701597,-1.267765\O,1.403833,1.637628,-0.384731\H,1.49363

 Normal termination of Gaussian 16 at Sat Aug 16 20:34:23 2025.
