 Gaussian 16, Revision A.03,
 Gaussian 16:  ES64L-G16RevA.03 25-Dec-2016

 --------------------------
 # ccsd(t)/6-311++g(d,p) sp
 --------------------------

 -------------------
 Title Card Required
 -------------------
 Symbolic Z-matrix:
 Charge =  0 Multiplicity = 2

                         Standard orientation:
 ---------------------------------------------------------------------
 Center     Atomic      Atomic             Coordinates (Angstroms)
 Number     Number       Type             X           Y           Z
 ---------------------------------------------------------------------
      1          6           0       -2.814891   -0.443698   -0.386411
      2          1           0       -3.862092   -0.434512   -0.580593
      3          6           0       -1.636553   -0.436894   -0.150012
      4          6           0       -0.222728   -0.622303    0.167439
      5          8           0        0.154327   -1.129848    1.184185
      6          8           0        0.556098   -0.204833   -0.830132
      7          6           0        1.976131   -0.348208   -0.618930
      8          6           0        2.505360    0.766433    0.260648
      9          1           0        2.398527   -0.309688   -1.621512
     10          1           0        2.166162   -1.328961   -0.181407
     11          1           0        3.588235    0.671065    0.361877
     12          1           0        2.281770    1.738589   -0.180994
     13          1           0        2.058690    0.716251    1.253731
     14          8           0       -1.451969    1.764059    0.379213
     15          1           0       -1.542865    2.020252   -0.553636
 ---------------------------------------------------------------------

 SCF Done:  E(UHF) =  -417.989522586     A.U. after   38 cycles
 E2 =    -0.1260934515D+01 EUMP2 =    -0.41925045710117D+03
 CCSD(T)= -0.41935639226D+03

 The electronic state is 2-A.
 Alpha  occ. eigenvalues --  -20.62961 -20.61336 -20.55760 -11.41524 -11.29735
 Alpha  occ. eigenvalues --  -11.26788 -11.25786 -11.22465  -1.48162  -1.38570
 Alpha  occ. eigenvalues --   -1.37894  -1.07801  -1.04209  -0.92623  -0.83816
 Alpha  occ. eigenvalues --   -0.76477  -0.73062  -0.69508  -0.68078  -0.67059
 Alpha  occ. eigenvalues --   -0.65008  -0.63184  -0.58294  -0.55903  -0.54044
 Alpha  occ. eigenvalues --   -0.53954  -0.50524  -0.47827  -0.46276  -0.42832
 Alpha  occ. eigenvalues --   -0.42121
 Alpha virt. eigenvalues --    0.03658   0.04411   0.05634   0.06296   0.07299
 Alpha virt. eigenvalues --    0.08913   0.09405   0.09854   0.11025   0.11682
 Alpha virt. eigenvalues --    0.13595   0.13724   0.14415   0.16179   0.16457

  Beta  occ. eigenvalues --  -20.61340 -20.58875 -20.56066 -11.41299 -11.29735
  Beta  occ. eigenvalues --  -11.26817 -11.25549 -11.22466  -1.48289  -1.38379
  Beta  occ. eigenvalues --   -1.23327  -1.07843  -1.03743  -0.92096  -0.83612
  Beta  occ. eigenvalues --   -0.76401  -0.72472  -0.69689  -0.66750  -0.63542
  Beta  occ. eigenvalues --   -0.63070  -0.58529  -0.55348  -0.54112  -0.50685
  Beta  occ. eigenvalues --   -0.50523  -0.48223  -0.47077  -0.42910  -0.42423
  Beta virt. eigenvalues --    0.03685   0.04366   0.05057   0.06294   0.07094
  Beta virt. eigenvalues --    0.08527   0.09329   0.09522   0.10639   0.10921
  Beta virt. eigenvalues --    0.12481   0.13771   0.13898   0.14986   0.16332

 Mulliken charges and spin densities:
               1          2
     1  C   -0.506348   0.587276
     2  H    0.224616  -0.041289
     3  C    0.980270  -0.505667
     4  C   -0.682903   0.077077
     5  O   -0.264595  -0.063209
     6  O   -0.083064  -0.000886
     7  C   -0.143135   0.000848
     8  C   -0.385686   0.000721
     9  H    0.164384  -0.000148
    10  H    0.178585  -0.000255
    11  H    0.137221   0.000049
    12  H    0.136277  -0.000164
    13  H    0.187602  -0.000320
    14  O   -0.160424   0.986045
    15  H    0.217201  -0.040079
 Sum of Mulliken charges =  -0.00000   1.00000

 Dipole moment (field-independent basis, Debye):
    X=              0.0767    Y=              1.2449    Z=             -3.1842  Tot=              3.4198
 Quadrupole moment (field-independent basis, Debye-Ang):
   XX=            -33.5923   YY=            -47.5741   ZZ=            -51.7554
   XY=             -0.1223   XZ=              2.8823   YZ=             -0.2845

 4\PMP3-0=-419.2834666\MP4SDQ=-419.3028828\CCSD=-419.3037096\CCSD(T)=-4
 Normal termination of Gaussian 16 at Sun Aug  3 22:25:59 2025.
