 Gaussian 16, Revision A.03,
 Gaussian 16:  ES64L-G16RevA.03 25-Dec-2016

 -------------------
 # freq 6-31+g m062x
 -------------------

 -------------------
 Title Card Required
 -------------------
 Symbolic Z-matrix:
 Charge =  0 Multiplicity = 2

                         Standard orientation:
 ---------------------------------------------------------------------
 Center     Atomic      Atomic             Coordinates (Angstroms)
 Number     Number       Type             X           Y           Z
 ---------------------------------------------------------------------
      1          6           0       -2.801500   -0.436857   -0.403157
      2          1           0       -3.844002   -0.482359   -0.618483
      3          6           0       -1.628940   -0.279021   -0.122479
      4          6           0       -0.220073   -0.600446    0.153752
      5          8           0        0.141882   -1.173447    1.139402
      6          8           0        0.560623   -0.177788   -0.837063
      7          6           0        1.980065   -0.329190   -0.626974
      8          6           0        2.502824    0.758242    0.290498
      9          1           0        2.405292   -0.256736   -1.626333
     10          1           0        2.170157   -1.323610   -0.221750
     11          1           0        3.585457    0.661907    0.393112
     12          1           0        2.277722    1.743456   -0.120067
     13          1           0        2.052638    0.675292    1.279954
     14          8           0       -1.463154    1.637746    0.403784
     15          1           0       -1.556327    2.013596   -0.485257
 ---------------------------------------------------------------------

 SCF Done:  E(UM062X) =  -419.953368168     A.U. after   23 cycles

 The electronic state is 2-A.
 Alpha  occ. eigenvalues --  -19.70767 -19.68117 -19.66433 -10.73121 -10.61659
 Alpha  occ. eigenvalues --  -10.61343 -10.60320 -10.54472  -1.28210  -1.18882
 Alpha  occ. eigenvalues --   -1.12880  -0.91972  -0.88376  -0.78802  -0.71431
 Alpha  occ. eigenvalues --   -0.64895  -0.62660  -0.58976  -0.57216  -0.54200
 Alpha  occ. eigenvalues --   -0.53568  -0.50004  -0.48707  -0.46522  -0.45327
 Alpha  occ. eigenvalues --   -0.42110  -0.41507  -0.38990  -0.38341  -0.37275
 Alpha  occ. eigenvalues --   -0.33838
 Alpha virt. eigenvalues --   -0.00868   0.01780   0.02293   0.03282   0.03639
 Alpha virt. eigenvalues --    0.03777   0.05133   0.06366   0.07473   0.07944
 Alpha virt. eigenvalues --    0.08501   0.09015   0.09575   0.11793   0.12569

  Beta  occ. eigenvalues --  -19.70771 -19.66693 -19.66455 -10.73087 -10.61658
  Beta  occ. eigenvalues --  -10.61421 -10.60035 -10.54473  -1.28215  -1.18916
  Beta  occ. eigenvalues --   -1.07506  -0.91373  -0.87941  -0.78589  -0.71182
  Beta  occ. eigenvalues --   -0.64793  -0.62058  -0.58832  -0.57038  -0.53987
  Beta  occ. eigenvalues --   -0.51358  -0.49231  -0.46910  -0.45345  -0.42077
  Beta  occ. eigenvalues --   -0.41088  -0.38918  -0.38398  -0.36808  -0.36688
  Beta virt. eigenvalues --   -0.09759   0.00221   0.01778   0.02391   0.03355
  Beta virt. eigenvalues --    0.03681   0.04041   0.05054   0.06392   0.07564
  Beta virt. eigenvalues --    0.07873   0.08588   0.08991   0.09673   0.12044

 Mulliken charges and spin densities:
               1          2
     1  C    0.196509   0.450806
     2  H    0.315585  -0.016581
     3  C   -0.340856  -0.183139
     4  C    0.082281   0.035804
     5  O   -0.329512  -0.009674
     6  O   -0.205704  -0.003806
     7  C   -0.250597  -0.000455
     8  C   -0.556021   0.001247
     9  H    0.219601  -0.000009
    10  H    0.235670  -0.000178
    11  H    0.206747  -0.000045
    12  H    0.220221  -0.000036
    13  H    0.242500  -0.000013
    14  O   -0.448704   0.753204
    15  H    0.412281  -0.027126
 Sum of Mulliken charges =  -0.00000   1.00000

 Dipole moment (field-independent basis, Debye):
    X=              0.0959    Y=              0.3879    Z=             -3.2999  Tot=              3.3240
 Quadrupole moment (field-independent basis, Debye-Ang):
   XX=            -32.7041   YY=            -48.7172   ZZ=            -52.4348
   XY=              1.5426   XZ=              3.6694   YZ=             -0.4077

  Exact polarizability:  86.564   7.518  70.972   5.442   1.274  56.290
 Approx polarizability:  90.900   7.964  72.249  10.038  -3.604  69.774

 ******    4 imaginary frequencies (negative Signs) ******

                      1                      2                      3
                      A                      A                      A
 Frequencies --   -539.0762              -507.7964              -113.6046
 Red. masses --      9.3078                 1.0948                 6.4203
 Frc consts  --      1.5937                 0.1663                 0.0488
 IR Inten    --     42.0449               123.2509                 2.3158

                      4                      5                      6
                      A                      A                      A
 Frequencies --    -31.3624                38.0935                99.1709
 Red. masses --      3.6133                 2.8134                 3.3622
 Frc consts  --      0.0021                 0.0024                 0.0195
 IR Inten    --      4.0986                 1.2189                 5.6408

                      7                      8                      9
                      A                      A                      A
 Frequencies --    160.4466               179.5050               221.0240
 Red. masses --      5.0104                 1.4030                 4.1542
 Frc consts  --      0.0760                 0.0266                 0.1196
 IR Inten    --      1.9166                 1.8637                 0.8083

                     10                     11                     12
                      A                      A                      A
 Frequencies --    311.1076               418.7821               528.2141
 Red. masses --      2.9262                 3.7183                 1.5062
 Frc consts  --      0.1669                 0.3842                 0.2476
 IR Inten    --     14.5642                 1.3266                65.9008

                     13                     14                     15
                      A                      A                      A
 Frequencies --    572.9148               643.4591               658.7282
 Red. masses --      3.4361                 2.7088                 1.3764
 Frc consts  --      0.6645                 0.6608                 0.3519
 IR Inten    --      6.5588                64.1463                19.6710

                     16                     17                     18
                      A                      A                      A
 Frequencies --    719.2399               753.4179               816.9529
 Red. masses --      5.1710                 1.4472                 1.2860
 Frc consts  --      1.5761                 0.4840                 0.5057
 IR Inten    --     62.5389                48.7125                 7.4257

                     19                     20                     21
                      A                      A                      A
 Frequencies --    897.4281               941.4870              1108.5786
 Red. masses --      3.3603                 2.4952                 4.1930
 Frc consts  --      1.5945                 1.3031                 3.0360
 IR Inten    --     20.2762                 5.5066                10.7165

                     22                     23                     24
                      A                      A                      A
 Frequencies --   1157.8431              1227.6813              1318.6603
 Red. masses --      2.0821                 1.7570                 2.4506
 Frc consts  --      1.6446                 1.5602                 2.5106
 IR Inten    --     16.4515                 7.3294               381.8333

                     25                     26                     27
                      A                      A                      A
 Frequencies --   1366.2046              1441.0723              1458.2750
 Red. masses --      1.5411                 1.3522                 1.2529
 Frc consts  --      1.6948                 1.6545                 1.5698
 IR Inten    --    203.9733                23.9397                20.3940

                     28                     29                     30
                      A                      A                      A
 Frequencies --   1526.7641              1536.9081              1544.7339
 Red. masses --      1.0413                 1.0536                 1.0889
 Frc consts  --      1.4302                 1.4663                 1.5309
 IR Inten    --     14.7433                 3.0900                26.7720

                     31                     32                     33
                      A                      A                      A
 Frequencies --   1921.0369              2186.3059              3107.6773
 Red. masses --     12.2359                 6.1401                 1.0352
 Frc consts  --     26.6046                17.2921                 5.8903
 IR Inten    --    320.1277                90.1977                11.9310

                     34                     35                     36
                      A                      A                      A
 Frequencies --   3138.2339              3187.1381              3191.1674
 Red. masses --      1.0601                 1.1007                 1.1024
 Frc consts  --      6.1514                 6.5877                 6.6143
 IR Inten    --     20.9264                13.0501                 7.5889

                     37                     38                     39
                      A                      A                      A
 Frequencies --   3211.7198              3517.4783              3833.3534
 Red. masses --      1.1050                 1.1564                 1.0672
 Frc consts  --      6.7158                 8.4301                 9.2396
 IR Inten    --     16.5015                63.6005                20.3847

 - Thermochemistry -
 -------------------
 Temperature   298.150 Kelvin.  Pressure   1.00000 Atm.
 Atom     1 has atomic number  6 and mass  12.00000

 Molecular mass:   115.03952 amu.
 Principal axes and moments of inertia in atomic units:
                           1         2         3
     Eigenvalues --   496.482861379.179681534.07292
           X            0.99989   0.01237   0.00847
           Y           -0.01254   0.99969   0.02137
           Z           -0.00820  -0.02147   0.99974
 This molecule is an asymmetric top.
 Rotational symmetry number  1.
 Warning -- assumption of classical behavior for rotation
           may cause significant error
 Rotational temperatures (Kelvin)      0.17446     0.06280     0.05646
 Rotational constants (GHZ):           3.63505     1.30856     1.17644
    4 imaginary frequencies ignored.
 Zero-point vibrational energy     292731.0 (Joules/Mol)
                                   69.96439 (Kcal/Mol)
 Warning -- explicit consideration of   9 degrees of freedom as
           vibrations may cause significant error
 Vibrational temperatures:     54.81   142.68   230.85   258.27   318.00
          (Kelvin)            447.61   602.53   759.98   824.30   925.79
                              947.76  1034.83  1084.00  1175.41  1291.20
                             1354.59  1595.00  1665.88  1766.36  1897.26
                             1965.66  2073.38  2098.13  2196.67  2211.27
                             2222.53  2763.94  3145.61  4471.25  4515.22
                             4585.58  4591.38  4620.95  5060.87  5515.34

 Zero-point correction=                           0.111495 (Hartree/Particle)
 Thermal correction to Energy=                    0.119493
 Thermal correction to Enthalpy=                  0.120437
 Thermal correction to Gibbs Free Energy=         0.077232
 Sum of electronic and zero-point Energies=           -419.841873
 Sum of electronic and thermal Energies=              -419.833875
 Sum of electronic and thermal Enthalpies=            -419.832931
 Sum of electronic and thermal Free Energies=         -419.876136

                     E (Thermal)             CV                S
                      KCal/Mol        Cal/Mol-Kelvin    Cal/Mol-Kelvin
 Total                   74.983             27.118             90.933
 Electronic               0.000              0.000              1.377
 Translational            0.889              2.981             40.136
 Rotational               0.889              2.981             28.442
 Vibrational             73.206             21.157             20.978
 Vibration     1          0.594              1.982              5.356
 Vibration     2          0.604              1.950              3.471
 Vibration     3          0.622              1.891              2.545
 Vibration     4          0.629              1.867              2.334
 Vibration     5          0.648              1.809              1.951
 Vibration     6          0.700              1.653              1.356
 Vibration     7          0.782              1.429              0.896
 Vibration     8          0.883              1.188              0.591
 Vibration     9          0.929              1.090              0.499

 Normal termination of Gaussian 16 at Fri Jun 20 13:54:33 2025.
