 Gaussian 16, Revision A.03,
 Gaussian 16:  ES64L-G16RevA.03 25-Dec-2016

 -------------------
 # freq 6-31+g m062x
 -------------------

 -------------------
 Title Card Required
 -------------------
 Symbolic Z-matrix:
 Charge =  0 Multiplicity = 2

                         Standard orientation:
 ---------------------------------------------------------------------
 Center     Atomic      Atomic             Coordinates (Angstroms)
 Number     Number       Type             X           Y           Z
 ---------------------------------------------------------------------
      1          6           0       -2.798467   -0.438456   -0.410243
      2          1           0       -3.840449   -0.487224   -0.628887
      3          6           0       -1.626247   -0.215702   -0.109230
      4          6           0       -0.219688   -0.598830    0.147167
      5          8           0        0.139128   -1.188514    1.123548
      6          8           0        0.561108   -0.168455   -0.839281
      7          6           0        1.980816   -0.321602   -0.630157
      8          6           0        2.502213    0.755072    0.300813
      9          1           0        2.406453   -0.236746   -1.628314
     10          1           0        2.171157   -1.320802   -0.237050
     11          1           0        3.584790    0.657534    0.402911
     12          1           0        2.276858    1.745047   -0.097819
     13          1           0        2.051413    0.660346    1.288939
     14          8           0       -1.466256    1.593784    0.412078
     15          1           0       -1.553827    2.004442   -0.460641
 ---------------------------------------------------------------------

 SCF Done:  E(UM062X) =  -419.954212735     A.U. after   21 cycles

 The electronic state is 2-A.
 Alpha  occ. eigenvalues --  -19.70863 -19.67228 -19.66623 -10.73191 -10.62869
 Alpha  occ. eigenvalues --  -10.61713 -10.60992 -10.54482  -1.28358  -1.19029
 Alpha  occ. eigenvalues --   -1.12154  -0.92296  -0.88559  -0.78913  -0.71603
 Alpha  occ. eigenvalues --   -0.65045  -0.62959  -0.59194  -0.57389  -0.54204
 Alpha  occ. eigenvalues --   -0.53477  -0.49620  -0.48487  -0.46528  -0.45384
 Alpha  occ. eigenvalues --   -0.42173  -0.41328  -0.38644  -0.38205  -0.37545
 Alpha  occ. eigenvalues --   -0.32530
 Alpha virt. eigenvalues --   -0.00694   0.01691   0.02219   0.02897   0.03654
 Alpha virt. eigenvalues --    0.03820   0.05120   0.06425   0.07439   0.07925
 Alpha virt. eigenvalues --    0.08521   0.09021   0.09531   0.11583   0.12561

  Beta  occ. eigenvalues --  -19.70866 -19.66646 -19.66063 -10.73143 -10.63008
  Beta  occ. eigenvalues --  -10.61712 -10.60567 -10.54483  -1.28355  -1.19059
  Beta  occ. eigenvalues --   -1.08107  -0.91430  -0.87957  -0.78578  -0.71181
  Beta  occ. eigenvalues --   -0.64883  -0.62172  -0.59025  -0.57201  -0.54011
  Beta  occ. eigenvalues --   -0.51609  -0.49173  -0.46935  -0.45372  -0.42133
  Beta  occ. eigenvalues --   -0.41866  -0.39264  -0.38503  -0.36854  -0.36271
  Beta virt. eigenvalues --   -0.09935   0.00469   0.01629   0.02354   0.03034
  Beta virt. eigenvalues --    0.03701   0.04020   0.04990   0.06349   0.07538
  Beta virt. eigenvalues --    0.07820   0.08572   0.08895   0.09621   0.11892

 Mulliken charges and spin densities:
               1          2
     1  C    0.326800   0.705492
     2  H    0.306618  -0.025268
     3  C   -0.404752  -0.292464
     4  C    0.053124   0.047631
     5  O   -0.330951  -0.009658
     6  O   -0.205341  -0.003280
     7  C   -0.250059   0.000618
     8  C   -0.557609   0.001132
     9  H    0.220172  -0.000010
    10  H    0.236045  -0.000213
    11  H    0.206677  -0.000063
    12  H    0.221476  -0.000007
    13  H    0.242186   0.000025
    14  O   -0.480412   0.595214
    15  H    0.416025  -0.019151
 Sum of Mulliken charges =  -0.00000   1.00000

 Dipole moment (field-independent basis, Debye):
    X=              0.0683    Y=              0.1413    Z=             -3.3632  Tot=              3.3668
 Quadrupole moment (field-independent basis, Debye-Ang):
   XX=            -32.5028   YY=            -49.1815   ZZ=            -52.4558
   XY=              1.9454   XZ=              3.8240   YZ=             -0.4497

  Exact polarizability:  85.614   7.440  70.619   5.309   1.445  56.302
 Approx polarizability:  88.627   9.208  76.271   9.766  -2.362  70.001

 ******    3 imaginary frequencies (negative Signs) ******

                      1                      2                      3
                      A                      A                      A
 Frequencies --   -714.8225              -509.5970               -92.4654
 Red. masses --     12.6976                 1.0653                 6.9499
 Frc consts  --      3.8227                 0.1630                 0.0350
 IR Inten    --     15.3653               119.4164                 2.1649

                      4                      5                      6
                      A                      A                      A
 Frequencies --      5.8441                45.2445               119.2841
 Red. masses --      2.8422                 3.3398                 2.7427
 Frc consts  --      0.0001                 0.0040                 0.0230
 IR Inten    --      3.5675                 2.9415                 4.2315

                      7                      8                      9
                      A                      A                      A
 Frequencies --    182.7628               198.1308               255.1916
 Red. masses --      1.3953                 7.9665                 3.5881
 Frc consts  --      0.0275                 0.1843                 0.1377
 IR Inten    --      3.2374                 1.9624                 4.0983

                     10                     11                     12
                      A                      A                      A
 Frequencies --    311.9535               423.3403               532.2823
 Red. masses --      2.9982                 3.6571                 1.4055
 Frc consts  --      0.1719                 0.3862                 0.2346
 IR Inten    --     15.1049                 1.8734                41.8460

                     13                     14                     15
                      A                      A                      A
 Frequencies --    567.3913               591.4521               708.4103
 Red. masses --      3.1449                 3.9925                 4.8563
 Frc consts  --      0.5965                 0.8229                 1.4359
 IR Inten    --      5.6113                14.9538                84.6942

                     16                     17                     18
                      A                      A                      A
 Frequencies --    724.7865               772.9881               817.0247
 Red. masses --      1.3002                 1.5598                 1.3024
 Frc consts  --      0.4024                 0.5491                 0.5122
 IR Inten    --     49.7683                39.6909                 9.6166

                     19                     20                     21
                      A                      A                      A
 Frequencies --    895.7776               938.1560              1106.1472
 Red. masses --      3.3146                 2.4830                 4.1977
 Frc consts  --      1.5670                 1.2876                 3.0261
 IR Inten    --     21.0254                 4.3585                11.4169

                     22                     23                     24
                      A                      A                      A
 Frequencies --   1157.2619              1227.2379              1315.8350
 Red. masses --      2.0700                 1.7536                 2.5807
 Frc consts  --      1.6334                 1.5561                 2.6326
 IR Inten    --     16.1038                 8.1377               387.8377

                     25                     26                     27
                      A                      A                      A
 Frequencies --   1364.9861              1440.3597              1458.6647
 Red. masses --      1.5023                 1.3478                 1.2488
 Frc consts  --      1.6492                 1.6474                 1.5656
 IR Inten    --    186.4065                20.3418                20.7267

                     28                     29                     30
                      A                      A                      A
 Frequencies --   1526.7381              1536.7257              1544.8171
 Red. masses --      1.0412                 1.0526                 1.0896
 Frc consts  --      1.4299                 1.4645                 1.5321
 IR Inten    --     14.8081                 3.0533                25.9829

                     31                     32                     33
                      A                      A                      A
 Frequencies --   1919.7654              2073.4599              3107.9302
 Red. masses --     11.9466                 6.6692                 1.0352
 Frc consts  --     25.9413                16.8934                 5.8913
 IR Inten    --    311.6484                66.3946                11.6577

                     34                     35                     36
                      A                      A                      A
 Frequencies --   3138.7539              3187.8555              3191.2894
 Red. masses --      1.0602                 1.1007                 1.1024
 Frc consts  --      6.1538                 6.5904                 6.6146
 IR Inten    --     20.8232                12.8996                 7.2548

                     37                     38                     39
                      A                      A                      A
 Frequencies --   3212.0728              3506.4376              3848.1635
 Red. masses --      1.1051                 1.1422                 1.0672
 Frc consts  --      6.7177                 8.2745                 9.3114
 IR Inten    --     16.2767                67.1602                28.0817

 - Thermochemistry -
 -------------------
 Temperature   298.150 Kelvin.  Pressure   1.00000 Atm.
 Atom     1 has atomic number  6 and mass  12.00000

 Molecular mass:   115.03952 amu.
 Principal axes and moments of inertia in atomic units:
                           1         2         3
     Eigenvalues --   487.300191377.535751525.04547
           X            0.99989   0.01240   0.00872
           Y           -0.01261   0.99962   0.02440
           Z           -0.00841  -0.02451   0.99966
 This molecule is an asymmetric top.
 Rotational symmetry number  1.
 Warning -- assumption of classical behavior for rotation
           may cause significant error
 Rotational temperatures (Kelvin)      0.17774     0.06288     0.05679
 Rotational constants (GHZ):           3.70355     1.31012     1.18340
    3 imaginary frequencies ignored.
 Zero-point vibrational energy     292813.1 (Joules/Mol)
                                   69.98400 (Kcal/Mol)
 Warning -- explicit consideration of  11 degrees of freedom as
           vibrations may cause significant error
 Vibrational temperatures:      8.41    65.10   171.62   262.95   285.07
          (Kelvin)            367.16   448.83   609.09   765.84   816.35
                              850.97  1019.24  1042.81  1112.16  1175.52
                             1288.82  1349.80  1591.50  1665.04  1765.72
                             1893.19  1963.91  2072.36  2098.69  2196.64
                             2211.01  2222.65  2762.11  2983.25  4471.62
                             4515.97  4586.61  4591.55  4621.46  5044.98
                             5536.65

 Zero-point correction=                           0.111527 (Hartree/Particle)
 Thermal correction to Energy=                    0.120281
 Thermal correction to Enthalpy=                  0.121225
 Thermal correction to Gibbs Free Energy=         0.074384
 Sum of electronic and zero-point Energies=           -419.842686
 Sum of electronic and thermal Energies=              -419.833932
 Sum of electronic and thermal Enthalpies=            -419.832988
 Sum of electronic and thermal Free Energies=         -419.879829

                     E (Thermal)             CV                S
                      KCal/Mol        Cal/Mol-Kelvin    Cal/Mol-Kelvin
 Total                   75.477             28.952             98.585
 Electronic               0.000              0.000              1.377
 Translational            0.889              2.981             40.136
 Rotational               0.889              2.981             28.417
 Vibrational             73.700             22.990             28.655
 Vibration     1          0.593              1.987              9.078
 Vibration     2          0.595              1.979              5.015
 Vibration     3          0.609              1.933              3.112
 Vibration     4          0.630              1.863              2.300
 Vibration     5          0.637              1.842              2.150
 Vibration     6          0.666              1.754              1.694
 Vibration     7          0.700              1.651              1.352
 Vibration     8          0.786              1.419              0.881
 Vibration     9          0.887              1.179              0.582
 Vibration    10          0.923              1.102              0.509
 Vibration    11          0.949              1.050              0.465

 Normal termination of Gaussian 16 at Fri Jun 20 13:39:31 2025.
