 Gaussian 16, Revision A.03,
 Gaussian 16:  ES64L-G16RevA.03 25-Dec-2016

 --------------------------
 # freq 6-311++g(d,p) m062x
 --------------------------

 -------------------
 Title Card Required
 -------------------
 Symbolic Z-matrix:
 Charge =  0 Multiplicity = 2

                         Standard orientation:
 ---------------------------------------------------------------------
 Center     Atomic      Atomic             Coordinates (Angstroms)
 Number     Number       Type             X           Y           Z
 ---------------------------------------------------------------------
      1          6           0       -2.788627   -0.448950   -0.426304
      2          1           0       -3.834673   -0.456016   -0.640328
      3          6           0       -1.621407   -0.090355   -0.079020
      4          6           0       -0.222881   -0.598551    0.132545
      5          8           0        0.135136   -1.218872    1.090341
      6          8           0        0.562421   -0.148651   -0.843373
      7          6           0        1.982141   -0.305024   -0.636312
      8          6           0        2.500730    0.748952    0.322296
      9          1           0        2.409486   -0.194428   -1.631212
     10          1           0        2.173621   -1.313374   -0.268090
     11          1           0        3.583251    0.649934    0.423553
     12          1           0        2.274991    1.748463   -0.051625
     13          1           0        2.048858    0.629195    1.307267
     14          8           0       -1.473412    1.506590    0.426611
     15          1           0       -1.548434    1.987265   -0.407434
 ---------------------------------------------------------------------

 SCF Done:  E(UM062X) =  -420.222022336     A.U. after   18 cycles

 The electronic state is 2-A.
 Alpha  occ. eigenvalues --  -19.68300 -19.64428 -19.63415 -10.70339 -10.63352
 Alpha  occ. eigenvalues --  -10.60597 -10.59518 -10.53633  -1.25781  -1.16555
 Alpha  occ. eigenvalues --   -1.11799  -0.91120  -0.87704  -0.78200  -0.70925
 Alpha  occ. eigenvalues --   -0.64772  -0.61862  -0.59293  -0.57632  -0.54854
 Alpha  occ. eigenvalues --   -0.53123  -0.49361  -0.48458  -0.46337  -0.45283
 Alpha  occ. eigenvalues --   -0.42171  -0.41619  -0.38570  -0.37564  -0.37078
 Alpha  occ. eigenvalues --   -0.31251
 Alpha virt. eigenvalues --   -0.00547   0.00282   0.00519   0.01476   0.02215
 Alpha virt. eigenvalues --    0.02964   0.03103   0.04400   0.05532   0.06039
 Alpha virt. eigenvalues --    0.07186   0.07837   0.08124   0.10178   0.10303

  Beta  occ. eigenvalues --  -19.68297 -19.63903 -19.63420 -10.70284 -10.63509
  Beta  occ. eigenvalues --  -10.60596 -10.58864 -10.53633  -1.25748  -1.16554
  Beta  occ. eigenvalues --   -1.09964  -0.90004  -0.86537  -0.77530  -0.70020
  Beta  occ. eigenvalues --   -0.64552  -0.60901  -0.59035  -0.57289  -0.54150
  Beta  occ. eigenvalues --   -0.52783  -0.48825  -0.47011  -0.45263  -0.44755
  Beta  occ. eigenvalues --   -0.41928  -0.40393  -0.38516  -0.36832  -0.35634
  Beta virt. eigenvalues --   -0.08392  -0.00538   0.00470   0.01149   0.01727
  Beta virt. eigenvalues --    0.02373   0.03108   0.03302   0.04583   0.05529
  Beta virt. eigenvalues --    0.05937   0.07205   0.07774   0.08032   0.10257

 Mulliken charges and spin densities:
               1          2
     1  C    0.093462   1.045969
     2  H    0.228504  -0.027517
     3  C   -0.058849  -0.326058
     4  C   -0.237730   0.054668
     5  O   -0.195479  -0.000944
     6  O    0.003977   0.001559
     7  C   -0.287861   0.001733
     8  C   -0.423721   0.001281
     9  H    0.191200   0.000239
    10  H    0.193952  -0.000173
    11  H    0.165516  -0.000066
    12  H    0.163704  -0.000119
    13  H    0.195513  -0.000814
    14  O   -0.280155   0.249077
    15  H    0.247964   0.001164
 Sum of Mulliken charges =  -0.00000   1.00000

 Dipole moment (field-independent basis, Debye):
    X=              0.1104    Y=              0.3947    Z=             -3.1105  Tot=              3.1374
 Quadrupole moment (field-independent basis, Debye-Ang):
   XX=            -33.5629   YY=            -48.9250   ZZ=            -51.3229
   XY=              1.4675   XZ=              3.3409   YZ=             -0.3643

  Exact polarizability:  87.648   5.817  67.368   4.591   0.427  58.159
 Approx polarizability:  89.275   6.934  80.665   7.180  -1.977  75.033

 ******    2 imaginary frequencies (negative Signs) ******

                      1                      2                      3
                      A                      A                      A
 Frequencies --   -450.9168               -34.7256                89.9792
 Red. masses --      4.3775                 1.3366                 3.3778
 Frc consts  --      0.5244                 0.0009                 0.0161
 IR Inten    --    100.9012                54.7970                 4.5525

                      4                      5                      6
                      A                      A                      A
 Frequencies --    112.0861               128.7990               192.2500
 Red. masses --      3.0645                 2.9444                 1.6217
 Frc consts  --      0.0227                 0.0288                 0.0353
 IR Inten    --      9.5993                18.2713                 2.1831

                      7                      8                      9
                      A                      A                      A
 Frequencies --    213.7756               247.6090               274.6251
 Red. masses --      1.2905                 1.9964                 7.0682
 Frc consts  --      0.0347                 0.0721                 0.3141
 IR Inten    --     16.4034                 8.9626                 1.7263

                     10                     11                     12
                      A                      A                      A
 Frequencies --    343.0626               364.4463               449.1611
 Red. masses --      3.1706                 8.6468                 3.6078
 Frc consts  --      0.2199                 0.6767                 0.4288
 IR Inten    --     15.4209                 0.8103                 4.4100

                     13                     14                     15
                      A                      A                      A
 Frequencies --    600.4235               626.6400               697.2757
 Red. masses --      4.5208                 4.9672                 1.3593
 Frc consts  --      0.9602                 1.1492                 0.3894
 IR Inten    --      3.4344                18.8724                40.3433

                     16                     17                     18
                      A                      A                      A
 Frequencies --    786.4660               798.8340               891.5096
 Red. masses --     10.4240                 1.2118                 3.2642
 Frc consts  --      3.7988                 0.4556                 1.5285
 IR Inten    --     15.7938                 4.8657                16.8121

                     19                     20                     21
                      A                      A                      A
 Frequencies --    917.1427              1068.4288              1086.6892
 Red. masses --      2.6218                 4.0018                 1.1810
 Frc consts  --      1.2993                 2.6915                 0.8217
 IR Inten    --      0.5237                26.0044                40.3531

                     22                     23                     24
                      A                      A                      A
 Frequencies --   1127.3394              1201.9739              1270.1942
 Red. masses --      2.0896                 1.7850                 4.7033
 Frc consts  --      1.5647                 1.5194                 4.4709
 IR Inten    --     21.1331                 9.7867               539.8299

                     25                     26                     27
                      A                      A                      A
 Frequencies --   1342.9815              1401.0051              1429.4871
 Red. masses --      1.1921                 1.2664                 1.3570
 Frc consts  --      1.2668                 1.4645                 1.6337
 IR Inten    --     59.0545                15.3329                11.5906

                     28                     29                     30
                      A                      A                      A
 Frequencies --   1491.3785              1501.5492              1513.7455
 Red. masses --      1.0402                 1.0532                 1.0917
 Frc consts  --      1.3632                 1.3991                 1.4739
 IR Inten    --     10.3151                 1.1488                17.5403

                     31                     32                     33
                      A                      A                      A
 Frequencies --   1809.3003              1873.2873              3075.9744
 Red. masses --      7.7703                10.8818                 1.0354
 Frc consts  --     14.9869                22.4989                 5.7719
 IR Inten    --     73.8758               259.3216                 9.1513

                     34                     35                     36
                      A                      A                      A
 Frequencies --   3108.7263              3151.8320              3154.9467
 Red. masses --      1.0608                 1.1018                 1.1045
 Frc consts  --      6.0399                 6.4488                 6.4776
 IR Inten    --     19.7732                13.8421                 3.4021

                     37                     38                     39
                      A                      A                      A
 Frequencies --   3175.4500              3430.7089              3858.2585
 Red. masses --      1.1073                 1.1225                 1.0675
 Frc consts  --      6.5786                 7.7842                 9.3624
 IR Inten    --     14.4812                74.3719                64.0532

 - Thermochemistry -
 -------------------
 Temperature   298.150 Kelvin.  Pressure   1.00000 Atm.
 Atom     1 has atomic number  6 and mass  12.00000

 Molecular mass:   115.03952 amu.
 Principal axes and moments of inertia in atomic units:
                           1         2         3
     Eigenvalues --   471.092351373.560181508.65101
           X            0.99989   0.01193   0.00909
           Y           -0.01220   0.99947   0.03018
           Z           -0.00873  -0.03029   0.99950
 This molecule is an asymmetric top.
 Rotational symmetry number  1.
 Warning -- assumption of classical behavior for rotation
           may cause significant error
 Rotational temperatures (Kelvin)      0.18386     0.06306     0.05741
 Rotational constants (GHZ):           3.83097     1.31391     1.19626
    2 imaginary frequencies ignored.
 Zero-point vibrational energy     291932.7 (Joules/Mol)
                                   69.77360 (Kcal/Mol)
 Warning -- explicit consideration of  11 degrees of freedom as
           vibrations may cause significant error
 Vibrational temperatures:    129.46   161.27   185.31   276.60   307.58
          (Kelvin)            356.25   395.12   493.59   524.36   646.24
                              863.88   901.60  1003.22  1131.55  1149.34
                             1282.68  1319.56  1537.23  1563.50  1621.99
                             1729.37  1827.53  1932.25  2015.73  2056.71
                             2145.76  2160.39  2177.94  2603.18  2695.24
                             4425.64  4472.76  4534.78  4539.26  4568.76
                             4936.02  5551.17

 Zero-point correction=                           0.111191 (Hartree/Particle)
 Thermal correction to Energy=                    0.120038
 Thermal correction to Enthalpy=                  0.120982
 Thermal correction to Gibbs Free Energy=         0.076986
 Sum of electronic and zero-point Energies=           -420.110831
 Sum of electronic and thermal Energies=              -420.101984
 Sum of electronic and thermal Enthalpies=            -420.101040
 Sum of electronic and thermal Free Energies=         -420.145036

                     E (Thermal)             CV                S
                      KCal/Mol        Cal/Mol-Kelvin    Cal/Mol-Kelvin
 Total                   75.325             30.414             92.598
 Electronic               0.000              0.000              1.377
 Translational            0.889              2.981             40.136
 Rotational               0.889              2.981             28.370
 Vibrational             73.548             24.452             22.715
 Vibration     1          0.602              1.956              3.661
 Vibration     2          0.607              1.939              3.232
 Vibration     3          0.611              1.924              2.964
 Vibration     4          0.634              1.851              2.206
 Vibration     5          0.644              1.820              2.011
 Vibration     6          0.661              1.767              1.748
 Vibration     7          0.677              1.720              1.567
 Vibration     8          0.722              1.589              1.198
 Vibration     9          0.738              1.545              1.103
 Vibration    10          0.808              1.363              0.798
 Vibration    11          0.959              1.031              0.449

 1\1\GINC-AJ\Freq\UM062X\6-311++G(d,p)\C5H7O3(2)\AAYUSH\16-Aug-2025\0\\
 # freq 6-311++g(d,p) m062x\\Title Card Required\\0,2\C,2.728458,-0.436
 122,0.416651\H,3.774866,-0.450202,0.628551\C,1.560348,-0.065892,0.0849
 18\C,0.161914,-0.567136,-0.143201\O,-0.197159,-1.151572,-1.122919\O,-0
 .62215,-0.154747,0.850129\C,-2.042077,-0.304601,0.639692\C,-2.563185,0
 .78397,-0.278016\H,-2.467857,-0.231655,1.638727\H,-2.233291,-1.298668,
 0.234364\H,-3.645786,0.687793,-0.381131\H,-2.337694,1.769023,0.132621\
 H,-2.112853,0.701521,-1.267511\O,1.410115,1.54869,-0.360448\H,1.486109

 Normal termination of Gaussian 16 at Sat Aug 16 20:18:17 2025.
