 Gaussian 16, Revision A.03,
 Gaussian 16:  ES64L-G16RevA.03 25-Dec-2016

 --------------------------
 # freq 6-311++g(d,p) m062x
 --------------------------

 -------------------
 Title Card Required
 -------------------
 Symbolic Z-matrix:
 Charge =  0 Multiplicity = 2

                         Standard orientation:
 ---------------------------------------------------------------------
 Center     Atomic      Atomic             Coordinates (Angstroms)
 Number     Number       Type             X           Y           Z
 ---------------------------------------------------------------------
      1          6           0       -2.801500   -0.436857   -0.403157
      2          1           0       -3.844002   -0.482359   -0.618483
      3          6           0       -1.628940   -0.279021   -0.122479
      4          6           0       -0.220073   -0.600446    0.153752
      5          8           0        0.141882   -1.173447    1.139402
      6          8           0        0.560623   -0.177788   -0.837063
      7          6           0        1.980065   -0.329190   -0.626974
      8          6           0        2.502824    0.758242    0.290498
      9          1           0        2.405292   -0.256736   -1.626333
     10          1           0        2.170157   -1.323610   -0.221750
     11          1           0        3.585457    0.661907    0.393112
     12          1           0        2.277722    1.743456   -0.120067
     13          1           0        2.052638    0.675292    1.279954
     14          8           0       -1.463154    1.637746    0.403784
     15          1           0       -1.556327    2.013596   -0.485257
 ---------------------------------------------------------------------

 SCF Done:  E(UM062X) =  -420.201852325     A.U. after   23 cycles

 The electronic state is 2-A.
 Alpha  occ. eigenvalues --  -19.68324 -19.65470 -19.63270 -10.70740 -10.60608
 Alpha  occ. eigenvalues --  -10.59747 -10.58788 -10.53617  -1.25805  -1.16565
 Alpha  occ. eigenvalues --   -1.11606  -0.91232  -0.87674  -0.78297  -0.70848
 Alpha  occ. eigenvalues --   -0.64704  -0.62270  -0.58790  -0.57068  -0.54088
 Alpha  occ. eigenvalues --   -0.53288  -0.49948  -0.48650  -0.46173  -0.45279
 Alpha  occ. eigenvalues --   -0.42014  -0.41533  -0.39002  -0.38489  -0.37045
 Alpha  occ. eigenvalues --   -0.33778
 Alpha virt. eigenvalues --   -0.00670  -0.00509   0.00467   0.01382   0.02213
 Alpha virt. eigenvalues --    0.02727   0.03354   0.04463   0.05468   0.06034
 Alpha virt. eigenvalues --    0.07083   0.07815   0.07944   0.10185   0.10488

  Beta  occ. eigenvalues --  -19.68329 -19.64116 -19.63290 -10.70712 -10.60608
  Beta  occ. eigenvalues --  -10.59816 -10.58512 -10.53618  -1.25809  -1.16606
  Beta  occ. eigenvalues --   -1.06219  -0.90546  -0.87140  -0.78021  -0.70550
  Beta  occ. eigenvalues --   -0.64584  -0.61714  -0.58717  -0.56791  -0.53484
  Beta  occ. eigenvalues --   -0.51542  -0.49102  -0.46688  -0.45299  -0.41991
  Beta  occ. eigenvalues --   -0.41057  -0.38889  -0.38444  -0.36832  -0.36503
  Beta virt. eigenvalues --   -0.09800  -0.00404   0.00281   0.00682   0.01691
  Beta virt. eigenvalues --    0.02320   0.02874   0.03332   0.04596   0.05555
  Beta virt. eigenvalues --    0.05994   0.07181   0.07647   0.08014   0.10333

 Mulliken charges and spin densities:
               1          2
     1  C   -0.354252   0.506282
     2  H    0.206573  -0.017953
     3  C    0.526981  -0.219836
     4  C   -0.381744   0.025948
     5  O   -0.189759  -0.009633
     6  O    0.001856  -0.002667
     7  C   -0.279130  -0.000508
     8  C   -0.423754   0.002358
     9  H    0.191931   0.000219
    10  H    0.192886  -0.000092
    11  H    0.167983  -0.000004
    12  H    0.162053  -0.000586
    13  H    0.195626  -0.001407
    14  O   -0.237800   0.734877
    15  H    0.220549  -0.016996
 Sum of Mulliken charges =  -0.00000   1.00000

 Dipole moment (field-independent basis, Debye):
    X=              0.0685    Y=              0.3456    Z=             -3.1248  Tot=              3.1446
 Quadrupole moment (field-independent basis, Debye-Ang):
   XX=            -32.8090   YY=            -48.5668   ZZ=            -51.1726
   XY=              1.6938   XZ=              3.3925   YZ=             -0.3420

  Exact polarizability:  91.042   7.825  75.206   5.596   2.213  58.819
 Approx polarizability:  97.055   7.674  81.333   9.354  -1.752  75.617

 ******    1 imaginary frequencies (negative Signs) ******

                      1                      2                      3
                      A                      A                      A
 Frequencies --   -580.0144                24.6380                63.6688
 Red. masses --     12.2560                 3.2917                 4.0332
 Frc consts  --      2.4293                 0.0012                 0.0096
 IR Inten    --     69.3683                10.7461                 2.2968

                      4                      5                      6
                      A                      A                      A
 Frequencies --    100.4108               135.0889               173.4507
 Red. masses --      2.1454                 1.9525                 4.9687
 Frc consts  --      0.0127                 0.0210                 0.0881
 IR Inten    --     33.7272                21.2555                16.1246

                      7                      8                      9
                      A                      A                      A
 Frequencies --    182.4067               226.6411               255.1805
 Red. masses --      2.1153                 1.5596                 2.9079
 Frc consts  --      0.0415                 0.0472                 0.1116
 IR Inten    --      6.2190                 4.1822                 5.7828

                     10                     11                     12
                      A                      A                      A
 Frequencies --    339.0674               428.8704               559.6697
 Red. masses --      2.9544                 3.8131                 4.0964
 Frc consts  --      0.2001                 0.4132                 0.7560
 IR Inten    --     11.7420                 1.5448                 5.3346

                     13                     14                     15
                      A                      A                      A
 Frequencies --    598.3377               668.3074               720.8608
 Red. masses --      5.1833                 1.3044                 1.2808
 Frc consts  --      1.0933                 0.3433                 0.3921
 IR Inten    --      7.6156                30.6037                40.7150

                     16                     17                     18
                      A                      A                      A
 Frequencies --    767.1466               771.9221               802.4460
 Red. masses --      7.9127                 1.2007                 1.2147
 Frc consts  --      2.7437                 0.4215                 0.4608
 IR Inten    --     60.9722                53.2561                 6.5292

                     19                     20                     21
                      A                      A                      A
 Frequencies --    895.9625               923.7203              1073.6929
 Red. masses --      3.2884                 2.7001                 4.1041
 Frc consts  --      1.5553                 1.3574                 2.7876
 IR Inten    --     15.9846                 6.0263                24.1034

                     22                     23                     24
                      A                      A                      A
 Frequencies --   1128.1964              1203.1536              1277.3854
 Red. masses --      2.0968                 1.7794                 4.4500
 Frc consts  --      1.5725                 1.5177                 4.2782
 IR Inten    --     21.5791                 8.1425               558.7178

                     25                     26                     27
                      A                      A                      A
 Frequencies --   1344.7043              1401.3174              1430.5369
 Red. masses --      1.2031                 1.2704                 1.3671
 Frc consts  --      1.2818                 1.4698                 1.6484
 IR Inten    --     68.1342                19.5729                12.9461

                     28                     29                     30
                      A                      A                      A
 Frequencies --   1491.2622              1502.1314              1514.5475
 Red. masses --      1.0405                 1.0536                 1.0920
 Frc consts  --      1.3634                 1.4007                 1.4758
 IR Inten    --     10.8003                 1.3988                20.0456

                     31                     32                     33
                      A                      A                      A
 Frequencies --   1854.7253              2119.6613              3075.8356
 Red. masses --     12.0214                 6.3603                 1.0354
 Frc consts  --     24.3649                16.8368                 5.7717
 IR Inten    --    349.0808                92.2702                 9.1098

                     34                     35                     36
                      A                      A                      A
 Frequencies --   3107.4822              3151.1917              3155.3044
 Red. masses --      1.0608                 1.1018                 1.1046
 Frc consts  --      6.0356                 6.4460                 6.4796
 IR Inten    --     19.4773                14.0554                 3.2931

                     37                     38                     39
                      A                      A                      A
 Frequencies --   3175.3452              3474.0885              3820.4367
 Red. masses --      1.1071                 1.1494                 1.0675
 Frc consts  --      6.5768                 8.1737                 9.1798
 IR Inten    --     14.3835                71.6275                48.6107

 - Thermochemistry -
 -------------------
 Temperature   298.150 Kelvin.  Pressure   1.00000 Atm.
 Atom     1 has atomic number  6 and mass  12.00000

 Molecular mass:   115.03952 amu.
 Principal axes and moments of inertia in atomic units:
                           1         2         3
     Eigenvalues --   496.482861379.179681534.07292
           X            0.99989   0.01237   0.00847
           Y           -0.01254   0.99969   0.02137
           Z           -0.00820  -0.02147   0.99974
 This molecule is an asymmetric top.
 Rotational symmetry number  1.
 Warning -- assumption of classical behavior for rotation
           may cause significant error
 Rotational temperatures (Kelvin)      0.17446     0.06280     0.05646
 Rotational constants (GHZ):           3.63505     1.30856     1.17644
    1 imaginary frequencies ignored.
 Zero-point vibrational energy     292719.0 (Joules/Mol)
                                   69.96152 (Kcal/Mol)
 Warning -- explicit consideration of  12 degrees of freedom as
           vibrations may cause significant error
 Vibrational temperatures:     35.45    91.61   144.47   194.36   249.56
          (Kelvin)            262.44   326.09   367.15   487.84   617.05
                              805.24   860.87   961.55  1037.16  1103.75
                             1110.62  1154.54  1289.09  1329.03  1544.80
                             1623.22  1731.07  1837.87  1934.73  2016.18
                             2058.22  2145.59  2161.23  2179.10  2668.54
                             3049.72  4425.44  4470.97  4533.86  4539.78
                             4568.61  4998.44  5496.76

 Zero-point correction=                           0.111491 (Hartree/Particle)
 Thermal correction to Energy=                    0.121320
 Thermal correction to Enthalpy=                  0.122265
 Thermal correction to Gibbs Free Energy=         0.074727
 Sum of electronic and zero-point Energies=           -420.090362
 Sum of electronic and thermal Energies=              -420.080532
 Sum of electronic and thermal Enthalpies=            -420.079588
 Sum of electronic and thermal Free Energies=         -420.127125

                     E (Thermal)             CV                S
                      KCal/Mol        Cal/Mol-Kelvin    Cal/Mol-Kelvin
 Total                   76.130             32.446            100.052
 Electronic               0.000              0.000              1.377
 Translational            0.889              2.981             40.136
 Rotational               0.889              2.981             28.442
 Vibrational             74.352             26.484             30.096
 Vibration     1          0.593              1.985              6.220
 Vibration     2          0.597              1.972              4.340
 Vibration     3          0.604              1.949              3.446
 Vibration     4          0.613              1.918              2.872
 Vibration     5          0.627              1.875              2.398
 Vibration     6          0.630              1.864              2.304
 Vibration     7          0.650              1.800              1.905
 Vibration     8          0.666              1.754              1.695
 Vibration     9          0.719              1.597              1.217
 Vibration    10          0.790              1.407              0.862
 Vibration    11          0.915              1.119              0.524
 Vibration    12          0.956              1.035              0.453

 Optimization completed on the basis of negligible forces.
    -- Stationary point found.

 1\1\GINC-AJ\Freq\UM062X\6-311++G(d,p)\C5H7O3(2)\AAYUSH\16-Aug-2025\0\\
 # freq 6-311++g(d,p) m062x\\Title Card Required\\0,2\C,2.74037683,-0.4
 1069836,0.41519015\H,3.78287883,-0.45620036,0.63051615\C,1.56781683,-0
 .25286236,0.13451215\C,0.15894983,-0.57428736,-0.14171885\O,-0.2030051
 7,-1.14728836,-1.12736885\O,-0.62174617,-0.15162936,0.84909615\C,-2.04
 118817,-0.30303136,0.63900715\C,-2.56394717,0.78440064,-0.27846485\H,-
 2.46641517,-0.23057736,1.63836615\H,-2.23128017,-1.29745136,0.23378315
 \H,-3.64658017,0.68806564,-0.38107885\H,-2.33884517,1.76961464,0.13210

 Normal termination of Gaussian 16 at Sat Aug 16 20:39:05 2025.
