 Gaussian 16, Revision A.03,
 Gaussian 16:  ES64L-G16RevA.03 25-Dec-2016

 --------------------------
 # freq 6-311++g(d,p) m062x
 --------------------------

 -------------------
 Title Card Required
 -------------------
 Symbolic Z-matrix:
 Charge =  0 Multiplicity = 2

                         Standard orientation:
 ---------------------------------------------------------------------
 Center     Atomic      Atomic             Coordinates (Angstroms)
 Number     Number       Type             X           Y           Z
 ---------------------------------------------------------------------
      1          6           0       -2.809525   -0.439428   -0.392269
      2          1           0       -3.854764   -0.457144   -0.596128
      3          6           0       -1.633285   -0.380365   -0.141326
      4          6           0       -0.221569   -0.610332    0.163037
      5          8           0        0.148798   -1.146752    1.166951
      6          8           0        0.558761   -0.193781   -0.832865
      7          6           0        1.978127   -0.341474   -0.621844
      8          6           0        2.504363    0.763297    0.272203
      9          1           0        2.402117   -0.290340   -1.623142
     10          1           0        2.167671   -1.327498   -0.196190
     11          1           0        3.587130    0.668268    0.374674
     12          1           0        2.279983    1.740285   -0.158190
     13          1           0        2.055814    0.700634    1.263813
     14          8           0       -1.456586    1.714883    0.388907
     15          1           0       -1.554403    2.020808   -0.527593
 ---------------------------------------------------------------------

 SCF Done:  E(UM062X) =  -420.204645522     A.U. after   24 cycles

 The electronic state is 2-A.
 Alpha  occ. eigenvalues --  -19.68243 -19.66925 -19.63081 -10.70610 -10.60557
 Alpha  occ. eigenvalues --  -10.58132 -10.57797 -10.53609  -1.25647  -1.16399
 Alpha  occ. eigenvalues --   -1.12844  -0.90781  -0.87363  -0.78131  -0.70664
 Alpha  occ. eigenvalues --   -0.64528  -0.61790  -0.58580  -0.56816  -0.54810
 Alpha  occ. eigenvalues --   -0.53420  -0.50375  -0.48832  -0.46288  -0.45233
 Alpha  occ. eigenvalues --   -0.42301  -0.41976  -0.39264  -0.38478  -0.36622
 Alpha  occ. eigenvalues --   -0.35281
 Alpha virt. eigenvalues --   -0.00942  -0.00495   0.00498   0.01338   0.02191
 Alpha virt. eigenvalues --    0.02837   0.03627   0.04569   0.05431   0.06078
 Alpha virt. eigenvalues --    0.07156   0.07915   0.07945   0.10116   0.10580

  Beta  occ. eigenvalues --  -19.68248 -19.65390 -19.63097 -10.70594 -10.60557
  Beta  occ. eigenvalues --  -10.58123 -10.57673 -10.53609  -1.25655  -1.16433
  Beta  occ. eigenvalues --   -1.05833  -0.90427  -0.87038  -0.77987  -0.70524
  Beta  occ. eigenvalues --   -0.64474  -0.61458  -0.58517  -0.56545  -0.53488
  Beta  occ. eigenvalues --   -0.51971  -0.49207  -0.46663  -0.45269  -0.41979
  Beta  occ. eigenvalues --   -0.40425  -0.38775  -0.38035  -0.37769  -0.36339
  Beta virt. eigenvalues --   -0.08960  -0.00453  -0.00156   0.00580   0.01659
  Beta virt. eigenvalues --    0.02253   0.02938   0.03605   0.04690   0.05531
  Beta virt. eigenvalues --    0.06097   0.07235   0.07821   0.08016   0.10254

 Mulliken charges and spin densities:
               1          2
     1  C   -1.239348   0.210433
     2  H    0.188498  -0.010312
     3  C    1.238179  -0.082703
     4  C   -0.227028   0.033374
     5  O   -0.189159  -0.006773
     6  O    0.000795  -0.002401
     7  C   -0.267937  -0.000982
     8  C   -0.425353   0.001045
     9  H    0.193228   0.000099
    10  H    0.194053  -0.000052
    11  H    0.169398   0.000033
    12  H    0.159785  -0.000240
    13  H    0.195471  -0.001282
    14  O   -0.212328   0.881030
    15  H    0.221746  -0.021269
 Sum of Mulliken charges =  -0.00000   1.00000

 Dipole moment (field-independent basis, Debye):
    X=              0.1389    Y=              0.7171    Z=             -3.0545  Tot=              3.1406
 Quadrupole moment (field-independent basis, Debye-Ang):
   XX=            -33.2995   YY=            -48.0560   ZZ=            -51.2314
   XY=              0.9087   XZ=              3.1063   YZ=             -0.4123

  Exact polarizability:  91.442   5.408  67.934   5.037   0.012  58.416
 Approx polarizability:  98.548   3.868  73.461   8.813  -4.171  75.142

 ******    1 imaginary frequencies (negative Signs) ******

                      1                      2                      3
                      A                      A                      A
 Frequencies --    -40.3829                14.1254                84.3484
 Red. masses --      4.2514                 4.9081                 8.8375
 Frc consts  --      0.0041                 0.0006                 0.0370
 IR Inten    --      3.4302                 7.7329                11.1171

                      4                      5                      6
                      A                      A                      A
 Frequencies --    109.7125               132.2208               158.4553
 Red. masses --      3.4415                 3.7549                 2.6745
 Frc consts  --      0.0244                 0.0387                 0.0396
 IR Inten    --      6.8142                 5.8459                14.5377

                      7                      8                      9
                      A                      A                      A
 Frequencies --    193.3762               224.8294               249.5502
 Red. masses --      1.4548                 1.6354                 2.0947
 Frc consts  --      0.0321                 0.0487                 0.0769
 IR Inten    --     39.2990                 3.0792                23.3252

                     10                     11                     12
                      A                      A                      A
 Frequencies --    339.6488               425.6868               554.6000
 Red. masses --      2.9093                 3.8982                 3.3326
 Frc consts  --      0.1977                 0.4162                 0.6039
 IR Inten    --     12.5391                 0.9847                11.4553

                     13                     14                     15
                      A                      A                      A
 Frequencies --    587.3018               632.8689               730.1740
 Red. masses --      1.9522                 1.9595                 1.3156
 Frc consts  --      0.3967                 0.4624                 0.4133
 IR Inten    --     34.8361                62.7179                36.7208

                     16                     17                     18
                      A                      A                      A
 Frequencies --    736.4787               774.7115               803.0057
 Red. masses --      1.3251                 7.9869                 1.2134
 Frc consts  --      0.4235                 2.8243                 0.4610
 IR Inten    --     20.1449                50.6158                 5.3112

                     19                     20                     21
                      A                      A                      A
 Frequencies --    896.6091               927.4321              1076.7614
 Red. masses --      3.2276                 2.7385                 4.1273
 Frc consts  --      1.5287                 1.3878                 2.8194
 IR Inten    --     14.5967                 5.1314                22.4943

                     22                     23                     24
                      A                      A                      A
 Frequencies --   1128.8395              1203.7906              1283.1985
 Red. masses --      2.0994                 1.7773                 4.3188
 Frc consts  --      1.5762                 1.5174                 4.1898
 IR Inten    --     22.3187                 5.9672               574.4717

                     25                     26                     27
                      A                      A                      A
 Frequencies --   1345.8834              1401.5526              1431.4357
 Red. masses --      1.2085                 1.2726                 1.3743
 Frc consts  --      1.2897                 1.4728                 1.6591
 IR Inten    --     75.3657                23.2330                11.3666

                     28                     29                     30
                      A                      A                      A
 Frequencies --   1491.3948              1502.4586              1514.5161
 Red. masses --      1.0408                 1.0558                 1.0901
 Frc consts  --      1.3640                 1.4042                 1.4732
 IR Inten    --     10.4918                 1.4979                20.0829

                     31                     32                     33
                      A                      A                      A
 Frequencies --   1852.7486              2220.8557              3075.6334
 Red. masses --     12.0822                 5.9399                 1.0355
 Frc consts  --     24.4360                17.2611                 5.7711
 IR Inten    --    338.5411                70.3891                 9.9345

                     34                     35                     36
                      A                      A                      A
 Frequencies --   3106.6690              3150.2877              3155.3078
 Red. masses --      1.0606                 1.1019                 1.1047
 Frc consts  --      6.0313                 6.4431                 6.4799
 IR Inten    --     19.6397                14.1850                 3.8330

                     37                     38                     39
                      A                      A                      A
 Frequencies --   3174.8266              3486.7313              3800.0558
 Red. masses --      1.1070                 1.1634                 1.0673
 Frc consts  --      6.5740                 8.3334                 9.0804
 IR Inten    --     14.5264                68.3521                37.4777

 - Thermochemistry -
 -------------------
 Temperature   298.150 Kelvin.  Pressure   1.00000 Atm.
 Atom     1 has atomic number  6 and mass  12.00000

 Molecular mass:   115.03952 amu.
 Principal axes and moments of inertia in atomic units:
                           1         2         3
     Eigenvalues --   514.083121382.600601551.78392
           X            0.99989   0.01218   0.00796
           Y           -0.01231   0.99979   0.01636
           Z           -0.00776  -0.01645   0.99983
 This molecule is an asymmetric top.
 Rotational symmetry number  1.
 Warning -- assumption of classical behavior for rotation
           may cause significant error
 Rotational temperatures (Kelvin)      0.16848     0.06265     0.05582
 Rotational constants (GHZ):           3.51060     1.30532     1.16301
    1 imaginary frequencies ignored.
 Zero-point vibrational energy     292954.0 (Joules/Mol)
                                   70.01768 (Kcal/Mol)
 Warning -- explicit consideration of  12 degrees of freedom as
           vibrations may cause significant error
 Vibrational temperatures:     20.32   121.36   157.85   190.24   227.98
          (Kelvin)            278.23   323.48   359.05   488.68   612.47
                              797.95   845.00   910.56  1050.56  1059.63
                             1114.64  1155.35  1290.02  1334.37  1549.22
                             1624.15  1731.99  1846.24  1936.43  2016.52
                             2059.52  2145.78  2161.70  2179.05  2665.69
                             3195.32  4425.15  4469.80  4532.56  4539.78
                             4567.87  5016.63  5467.43

 Zero-point correction=                           0.111580 (Hartree/Particle)
 Thermal correction to Energy=                    0.121430
 Thermal correction to Enthalpy=                  0.122374
 Thermal correction to Gibbs Free Energy=         0.074511
 Sum of electronic and zero-point Energies=           -420.093065
 Sum of electronic and thermal Energies=              -420.083216
 Sum of electronic and thermal Enthalpies=            -420.082272
 Sum of electronic and thermal Free Energies=         -420.130135

                     E (Thermal)             CV                S
                      KCal/Mol        Cal/Mol-Kelvin    Cal/Mol-Kelvin
 Total                   76.198             32.575            100.737
 Electronic               0.000              0.000              1.377
 Translational            0.889              2.981             40.136
 Rotational               0.889              2.981             28.491
 Vibrational             74.421             26.613             30.733
 Vibration     1          0.593              1.986              7.325
 Vibration     2          0.601              1.960              3.787
 Vibration     3          0.606              1.941              3.274
 Vibration     4          0.612              1.921              2.913
 Vibration     5          0.621              1.893              2.568
 Vibration     6          0.635              1.849              2.195
 Vibration     7          0.649              1.803              1.920
 Vibration     8          0.662              1.764              1.734
 Vibration     9          0.720              1.596              1.214
 Vibration    10          0.788              1.414              0.873
 Vibration    11          0.910              1.130              0.535
 Vibration    12          0.944              1.059              0.472

 1\1\GINC-AJ\Freq\UM062X\6-311++G(d,p)\C5H7O3(2)\AAYUSH\16-Aug-2025\0\\
 # freq 6-311++g(d,p) m062x\\Title Card Required\\0,2\C,2.747796,-0.405
 727,0.416643\H,3.792777,-0.419657,0.622109\C,1.571888,-0.351375,0.1630
 91\C,0.16045,-0.586999,-0.138218\O,-0.208913,-1.143801,-1.131346\O,-0.
 620924,-0.149755,0.847948\C,-2.040092,-0.301199,0.638261\C,-2.564774,0
 .785162,-0.278957\H,-2.465285,-0.229323,1.637774\H,-2.229526,-1.295692
 ,0.232737\H,-3.647454,0.688471,-0.380786\H,-2.340513,1.770705,0.131534
 \H,-2.115039,0.701949,-1.268516\O,1.396711,1.732597,-0.410325\H,1.4935

 Normal termination of Gaussian 16 at Sat Aug 16 20:50:51 2025.
