 Gaussian 16, Revision A.03,
 Gaussian 16:  ES64L-G16RevA.03 25-Dec-2016

 --------------------------
 # freq 6-311++g(d,p) m062x
 --------------------------

 -------------------
 Title Card Required
 -------------------
 Symbolic Z-matrix:
 Charge =  0 Multiplicity = 2

                         Standard orientation:
 ---------------------------------------------------------------------
 Center     Atomic      Atomic             Coordinates (Angstroms)
 Number     Number       Type             X           Y           Z
 ---------------------------------------------------------------------
      1          6           0       -2.804103   -0.436930   -0.398689
      2          1           0       -3.847418   -0.475176   -0.610452
      3          6           0       -1.630645   -0.320564   -0.130493
      4          6           0       -0.220619   -0.602805    0.157808
      5          8           0        0.144158   -1.163136    1.150104
      6          8           0        0.560173   -0.184001   -0.835481
      7          6           0        1.979444   -0.334203   -0.624860
      8          6           0        2.503339    0.760275    0.283424
      9          1           0        2.404373   -0.270220   -1.624961
     10          1           0        2.169291   -1.325319   -0.211448
     11          1           0        3.586014    0.664663    0.386236
     12          1           0        2.278495    1.742225   -0.135156
     13          1           0        2.053641    0.685329    1.273721
     14          8           0       -1.460813    1.667836    0.397978
     15          1           0       -1.557038    2.018274   -0.501896
 ---------------------------------------------------------------------

 SCF Done:  E(UM062X) =  -420.202484890     A.U. after   23 cycles

 The electronic state is 2-A.
 Alpha  occ. eigenvalues --  -19.68275 -19.66159 -19.63165 -10.70669 -10.60580
 Alpha  occ. eigenvalues --  -10.58881 -10.58292 -10.53616  -1.25724  -1.16478
 Alpha  occ. eigenvalues --   -1.12214  -0.91008  -0.87530  -0.78217  -0.70747
 Alpha  occ. eigenvalues --   -0.64609  -0.62041  -0.58693  -0.56953  -0.54384
 Alpha  occ. eigenvalues --   -0.53361  -0.50180  -0.48738  -0.46220  -0.45256
 Alpha  occ. eigenvalues --   -0.41992  -0.41860  -0.39158  -0.38488  -0.36833
 Alpha  occ. eigenvalues --   -0.34489
 Alpha virt. eigenvalues --   -0.00768  -0.00505   0.00488   0.01352   0.02202
 Alpha virt. eigenvalues --    0.02796   0.03496   0.04511   0.05449   0.06063
 Alpha virt. eigenvalues --    0.07123   0.07852   0.07944   0.10166   0.10553

  Beta  occ. eigenvalues --  -19.68280 -19.64702 -19.63184 -10.70648 -10.60580
  Beta  occ. eigenvalues --  -10.58915 -10.58086 -10.53617  -1.25730  -1.16517
  Beta  occ. eigenvalues --   -1.06015  -0.90490  -0.87097  -0.78009  -0.70533
  Beta  occ. eigenvalues --   -0.64524  -0.61584  -0.58622  -0.56675  -0.53481
  Beta  occ. eigenvalues --   -0.51715  -0.49147  -0.46677  -0.45287  -0.41981
  Beta  occ. eigenvalues --   -0.40737  -0.38793  -0.38251  -0.37255  -0.36426
  Beta virt. eigenvalues --   -0.09425  -0.00412   0.00138   0.00626   0.01672
  Beta virt. eigenvalues --    0.02288   0.02920   0.03466   0.04637   0.05543
  Beta virt. eigenvalues --    0.06049   0.07214   0.07711   0.08018   0.10310

 Mulliken charges and spin densities:
               1          2
     1  C   -0.672822   0.363212
     2  H    0.198610  -0.014337
     3  C    0.785706  -0.152898
     4  C   -0.332621   0.023906
     5  O   -0.189533  -0.008508
     6  O    0.001910  -0.002653
     7  C   -0.275565  -0.001020
     8  C   -0.424082   0.002035
     9  H    0.192213   0.000153
    10  H    0.193329  -0.000079
    11  H    0.168803   0.000022
    12  H    0.161095  -0.000481
    13  H    0.195496  -0.001353
    14  O   -0.223521   0.811523
    15  H    0.220980  -0.019522
 Sum of Mulliken charges =  -0.00000   1.00000

 Dipole moment (field-independent basis, Debye):
    X=              0.1038    Y=              0.5377    Z=             -3.0831  Tot=              3.1314
 Quadrupole moment (field-independent basis, Debye-Ang):
   XX=            -33.0411   YY=            -48.2893   ZZ=            -51.1887
   XY=              1.3304   XZ=              3.2662   YZ=             -0.3442

  Exact polarizability:  91.330   7.070  72.943   5.425   1.419  58.651
 Approx polarizability:  97.907   6.210  77.945   9.211  -2.821  75.378

 ******    2 imaginary frequencies (negative Signs) ******

                      1                      2                      3
                      A                      A                      A
 Frequencies --   -393.7609               -25.3327                52.9943
 Red. masses --     12.0386                 4.0755                 4.4746
 Frc consts  --      1.0997                 0.0015                 0.0074
 IR Inten    --     48.1434                 4.8542                 2.4774

                      4                      5                      6
                      A                      A                      A
 Frequencies --    106.4750               138.9274               158.4866
 Red. masses --      2.7142                 2.1843                 4.2500
 Frc consts  --      0.0181                 0.0248                 0.0629
 IR Inten    --     20.1913                16.9591                13.5475

                      7                      8                      9
                      A                      A                      A
 Frequencies --    184.3564               224.7611               248.7193
 Red. masses --      1.6094                 1.5985                 2.5034
 Frc consts  --      0.0322                 0.0476                 0.0912
 IR Inten    --     27.6576                 3.3794                11.1020

                     10                     11                     12
                      A                      A                      A
 Frequencies --    338.8957               427.0170               557.1839
 Red. masses --      2.9179                 3.8533                 4.0316
 Frc consts  --      0.1974                 0.4140                 0.7374
 IR Inten    --     11.8687                 1.2678                 5.8784

                     13                     14                     15
                      A                      A                      A
 Frequencies --    598.2078               697.3806               712.0856
 Red. masses --      4.4637                 1.1681                 1.3050
 Frc consts  --      0.9411                 0.3347                 0.3899
 IR Inten    --      8.4397                99.8779                 3.1001

                     16                     17                     18
                      A                      A                      A
 Frequencies --    729.1856               769.9843               802.5089
 Red. masses --      1.3488                 8.3930                 1.2116
 Frc consts  --      0.4225                 2.9318                 0.4597
 IR Inten    --     38.0080                51.2376                 5.3024

                     19                     20                     21
                      A                      A                      A
 Frequencies --    896.3034               925.8269              1075.1638
 Red. masses --      3.2565                 2.7209                 4.1215
 Frc consts  --      1.5414                 1.3741                 2.8071
 IR Inten    --     15.2389                 5.7950                23.3223

                     22                     23                     24
                      A                      A                      A
 Frequencies --   1128.4541              1203.4926              1280.1497
 Red. masses --      2.0991                 1.7785                 4.3829
 Frc consts  --      1.5749                 1.5177                 4.2319
 IR Inten    --     22.0467                 7.0566               564.6112

                     25                     26                     27
                      A                      A                      A
 Frequencies --   1345.1052              1401.3518              1430.8273
 Red. masses --      1.2061                 1.2717                 1.3706
 Frc consts  --      1.2857                 1.4714                 1.6532
 IR Inten    --     71.4663                21.2148                12.4461

                     28                     29                     30
                      A                      A                      A
 Frequencies --   1491.3367              1502.3180              1514.5892
 Red. masses --      1.0406                 1.0543                 1.0914
 Frc consts  --      1.3636                 1.4020                 1.4752
 IR Inten    --     10.6967                 1.4320                20.2113

                     31                     32                     33
                      A                      A                      A
 Frequencies --   1854.1697              2175.0037              3075.6820
 Red. masses --     12.0653                 6.1217                 1.0354
 Frc consts  --     24.4391                17.0625                 5.7711
 IR Inten    --    346.2733                86.1207                 9.4039

                     34                     35                     36
                      A                      A                      A
 Frequencies --   3107.1541              3150.7431              3155.2671
 Red. masses --      1.0608                 1.1018                 1.1046
 Frc consts  --      6.0339                 6.4445                 6.4794
 IR Inten    --     19.5339                14.0760                 3.5720

                     37                     38                     39
                      A                      A                      A
 Frequencies --   3175.0826              3480.7176              3810.2242
 Red. masses --      1.1071                 1.1569                 1.0674
 Frc consts  --      6.5755                 8.2585                 9.1299
 IR Inten    --     14.4848                69.5742                43.2162

 - Thermochemistry -
 -------------------
 Temperature   298.150 Kelvin.  Pressure   1.00000 Atm.
 Atom     1 has atomic number  6 and mass  12.00000

 Molecular mass:   115.03952 amu.
 Principal axes and moments of inertia in atomic units:
                           1         2         3
     Eigenvalues --   503.127871380.409531540.70268
           X            0.99989   0.01231   0.00828
           Y           -0.01247   0.99973   0.01936
           Z           -0.00804  -0.01946   0.99978
 This molecule is an asymmetric top.
 Rotational symmetry number  1.
 Warning -- assumption of classical behavior for rotation
           may cause significant error
 Rotational temperatures (Kelvin)      0.17215     0.06275     0.05622
 Rotational constants (GHZ):           3.58704     1.30740     1.17138
    2 imaginary frequencies ignored.
 Zero-point vibrational energy     292643.3 (Joules/Mol)
                                   69.94342 (Kcal/Mol)
 Warning -- explicit consideration of  11 degrees of freedom as
           vibrations may cause significant error
 Vibrational temperatures:     76.25   153.19   199.89   228.03   265.25
          (Kelvin)            323.38   357.85   487.60   614.38   801.66
                              860.69  1003.38  1024.53  1049.14  1107.84
                             1154.63  1289.58  1332.06  1546.92  1623.59
                             1731.56  1841.85  1935.31  2016.23  2058.64
                             2145.70  2161.50  2179.16  2667.74  3129.35
                             4425.22  4470.50  4533.22  4539.73  4568.24
                             5007.98  5482.06

 Zero-point correction=                           0.111462 (Hartree/Particle)
 Thermal correction to Energy=                    0.120447
 Thermal correction to Enthalpy=                  0.121391
 Thermal correction to Gibbs Free Energy=         0.076597
 Sum of electronic and zero-point Energies=           -420.091023
 Sum of electronic and thermal Energies=              -420.082038
 Sum of electronic and thermal Enthalpies=            -420.081094
 Sum of electronic and thermal Free Energies=         -420.125887

                     E (Thermal)             CV                S
                      KCal/Mol        Cal/Mol-Kelvin    Cal/Mol-Kelvin
 Total                   75.582             30.519             94.277
 Electronic               0.000              0.000              1.377
 Translational            0.889              2.981             40.136
 Rotational               0.889              2.981             28.461
 Vibrational             73.804             24.557             24.303
 Vibration     1          0.596              1.976              4.702
 Vibration     2          0.605              1.944              3.332
 Vibration     3          0.615              1.914              2.819
 Vibration     4          0.621              1.893              2.568
 Vibration     5          0.631              1.861              2.284
 Vibration     6          0.649              1.803              1.920
 Vibration     7          0.662              1.765              1.740
 Vibration     8          0.719              1.598              1.217
 Vibration     9          0.789              1.411              0.868
 Vibration    10          0.913              1.124              0.529
 Vibration    11          0.956              1.036              0.453

 1\1\GINC-AJ\Freq\UM062X\6-311++G(d,p)\C5H7O3(2)\AAYUSH\16-Aug-2025\0\\
 # freq 6-311++g(d,p) m062x\\Title Card Required\\0,2\C,2.742794,-0.407
 679,0.415368\H,3.786019,-0.444329,0.627854\C,1.569458,-0.293354,0.1457
 62\C,0.159513,-0.577758,-0.140802\O,-0.204936,-1.146093,-1.128656\O,-0
 .621625,-0.150797,0.848735\C,-2.04083,-0.302533,0.638771\C,-2.564224,0
 .784588,-0.278591\H,-2.466153,-0.23037,1.638148\H,-2.230635,-1.296955,
 0.233354\H,-3.64687,0.688275,-0.381058\H,-2.339425,1.769881,0.132083\H
 ,-2.114138,0.701539,-1.268065\O,1.400087,1.690705,-0.398925\H,1.495995

 Normal termination of Gaussian 16 at Sat Aug 16 20:43:48 2025.
