 Gaussian 16, Revision A.03,
 Gaussian 16:  ES64L-G16RevA.03 25-Dec-2016

 --------------------------
 # freq 6-311++g(d,p) m062x
 --------------------------

 -------------------
 Title Card Required
 -------------------
 Symbolic Z-matrix:
 Charge =  0 Multiplicity = 2

                         Standard orientation:
 ---------------------------------------------------------------------
 Center     Atomic      Atomic             Coordinates (Angstroms)
 Number     Number       Type             X           Y           Z
 ---------------------------------------------------------------------
      1          6           0       -2.813256   -0.442171   -0.388080
      2          1           0       -3.859817   -0.442228   -0.585730
      3          6           0       -1.635349   -0.418414   -0.147739
      4          6           0       -0.222317   -0.617800    0.166093
      5          8           0        0.152417   -1.135473    1.178456
      6          8           0        0.557146   -0.200949   -0.831024
      7          6           0        1.976896   -0.346047   -0.619889
      8          6           0        2.505072    0.765349    0.264517
      9          1           0        2.399915   -0.303360   -1.622027
     10          1           0        2.166603   -1.328580   -0.186243
     11          1           0        3.587916    0.670208    0.366225
     12          1           0        2.281170    1.739071   -0.173501
     13          1           0        2.057670    0.711011    1.257078
     14          8           0       -1.453458    1.747380    0.382523
     15          1           0       -1.548568    2.020710   -0.544860
 ---------------------------------------------------------------------

 SCF Done:  E(UM062X) =  -420.206107312     A.U. after   23 cycles

 The electronic state is 2-A.
 Alpha  occ. eigenvalues --  -19.68246 -19.67279 -19.63065 -10.70603 -10.60556
 Alpha  occ. eigenvalues --  -10.57886 -10.57601 -10.53604  -1.25626  -1.16376
 Alpha  occ. eigenvalues --   -1.13099  -0.90693  -0.87292  -0.78093  -0.70636
 Alpha  occ. eigenvalues --   -0.64507  -0.61689  -0.58524  -0.56742  -0.55027
 Alpha  occ. eigenvalues --   -0.53451  -0.50420  -0.48881  -0.46328  -0.45225
 Alpha  occ. eigenvalues --   -0.42509  -0.41977  -0.39312  -0.38487  -0.36548
 Alpha  occ. eigenvalues --   -0.35681
 Alpha virt. eigenvalues --   -0.01065  -0.00492   0.00509   0.01354   0.02187
 Alpha virt. eigenvalues --    0.02851   0.03671   0.04599   0.05485   0.06152
 Alpha virt. eigenvalues --    0.07295   0.07939   0.07974   0.10297   0.10583

  Beta  occ. eigenvalues --  -19.68251 -19.65717 -19.63079 -10.70591 -10.60556
  Beta  occ. eigenvalues --  -10.57854 -10.57517 -10.53604  -1.25633  -1.16406
  Beta  occ. eigenvalues --   -1.05759  -0.90407  -0.87019  -0.77976  -0.70526
  Beta  occ. eigenvalues --   -0.64466  -0.61418  -0.58471  -0.56488  -0.53501
  Beta  occ. eigenvalues --   -0.52095  -0.49243  -0.46658  -0.45259  -0.41987
  Beta  occ. eigenvalues --   -0.40285  -0.38815  -0.38026  -0.37909  -0.36318
  Beta virt. eigenvalues --   -0.08813  -0.00552  -0.00292   0.00568   0.01669
  Beta virt. eigenvalues --    0.02238   0.02940   0.03660   0.04724   0.05582
  Beta virt. eigenvalues --    0.06189   0.07353   0.07928   0.08010   0.10447

 Mulliken charges and spin densities:
               1          2
     1  C   -0.394110   0.176081
     2  H    0.203388  -0.008627
     3  C    0.766113  -0.048529
     4  C   -0.616850   0.003355
     5  O   -0.189311  -0.005661
     6  O   -0.004153  -0.002436
     7  C   -0.262701  -0.001049
     8  C   -0.418495   0.000403
     9  H    0.192770   0.000024
    10  H    0.194147  -0.000102
    11  H    0.166702   0.000026
    12  H    0.158234  -0.000052
    13  H    0.195468  -0.001203
    14  O   -0.212227   0.909525
    15  H    0.221024  -0.021755
 Sum of Mulliken charges =  -0.00000   1.00000

 Dipole moment (field-independent basis, Debye):
    X=              0.1562    Y=              0.7704    Z=             -3.0550  Tot=              3.1545
 Quadrupole moment (field-independent basis, Debye-Ang):
   XX=            -33.4161   YY=            -48.0017   ZZ=            -51.2653
   XY=              0.7209   XZ=              3.0193   YZ=             -0.4903

  Exact polarizability:  91.393   4.475  65.254   4.832  -0.649  58.304
 Approx polarizability:  98.689   2.479  71.106   8.565  -4.785  75.016

 ******    1 imaginary frequencies (negative Signs) ******

                      1                      2                      3
                      A                      A                      A
 Frequencies --    -30.5605                39.5964               108.2709
 Red. masses --      4.5193                 4.8398                 3.6282
 Frc consts  --      0.0025                 0.0045                 0.0251
 IR Inten    --      2.6461                 2.5337                 7.7132

                      4                      5                      6
                      A                      A                      A
 Frequencies --    128.2505               154.6448               194.3610
 Red. masses --      3.6542                 2.4878                 1.4397
 Frc consts  --      0.0354                 0.0351                 0.0320
 IR Inten    --      6.7297                17.0300                41.8985

                      7                      8                      9
                      A                      A                      A
 Frequencies --    199.3064               229.0995               261.3993
 Red. masses --      6.3574                 1.5353                 2.6102
 Frc consts  --      0.1488                 0.0475                 0.1051
 IR Inten    --      1.7145                 7.5093                20.2230

                     10                     11                     12
                      A                      A                      A
 Frequencies --    341.1245               424.8745               547.4238
 Red. masses --      2.9423                 3.9276                 1.6549
 Frc consts  --      0.2017                 0.4177                 0.2922
 IR Inten    --     13.2436                 0.9400                51.4113

                     13                     14                     15
                      A                      A                      A
 Frequencies --    568.5153               618.6619               732.4323
 Red. masses --      2.0522                 4.2705                 1.3170
 Frc consts  --      0.3908                 0.9630                 0.4163
 IR Inten    --     36.2858                27.9116                37.6660

                     16                     17                     18
                      A                      A                      A
 Frequencies --    744.1634               777.3313               803.1208
 Red. masses --      1.3284                 7.7921                 1.2172
 Frc consts  --      0.4334                 2.7741                 0.4626
 IR Inten    --     22.6280                47.9465                 5.2713

                     19                     20                     21
                      A                      A                      A
 Frequencies --    896.6731               927.5631              1077.3826
 Red. masses --      3.2169                 2.7506                 4.1204
 Frc consts  --      1.5239                 1.3943                 2.8179
 IR Inten    --     14.3564                 4.8950                22.3573

                     22                     23                     24
                      A                      A                      A
 Frequencies --   1129.0150              1203.8613              1283.9366
 Red. masses --      2.0971                 1.7766                 4.3283
 Frc consts  --      1.5749                 1.5170                 4.2039
 IR Inten    --     22.0896                 5.6051               581.1332

                     25                     26                     27
                      A                      A                      A
 Frequencies --   1346.5835              1401.7819              1431.9515
 Red. masses --      1.2071                 1.2721                 1.3750
 Frc consts  --      1.2896                 1.4728                 1.6612
 IR Inten    --     75.7914                23.8874                10.6961

                     28                     29                     30
                      A                      A                      A
 Frequencies --   1491.4015              1502.4869              1514.4461
 Red. masses --      1.0409                 1.0570                 1.0889
 Frc consts  --      1.3641                 1.4059                 1.4714
 IR Inten    --     10.4309                 1.5772                19.7568

                     31                     32                     33
                      A                      A                      A
 Frequencies --   1851.7290              2237.1452              3075.6689
 Red. masses --     12.0843                 5.8749                 1.0355
 Frc consts  --     24.4133                17.3235                 5.7714
 IR Inten    --    333.9907                65.3791                10.2478

                     34                     35                     36
                      A                      A                      A
 Frequencies --   3106.4013              3150.0791              3155.3861
 Red. masses --      1.0606                 1.1019                 1.1048
 Frc consts  --      6.0298                 6.4423                 6.4807
 IR Inten    --     19.6292                14.3472                 3.8547

                     37                     38                     39
                      A                      A                      A
 Frequencies --   3174.7786              3488.1746              3795.7861
 Red. masses --      1.1069                 1.1659                 1.0672
 Frc consts  --      6.5734                 8.3578                 9.0597
 IR Inten    --     14.4974                67.6931                34.4035

 - Thermochemistry -
 -------------------
 Temperature   298.150 Kelvin.  Pressure   1.00000 Atm.
 Atom     1 has atomic number  6 and mass  12.00000

 Molecular mass:   115.03952 amu.
 Principal axes and moments of inertia in atomic units:
                           1         2         3
     Eigenvalues --   522.023421383.993491559.66345
           X            0.99990   0.01211   0.00772
           Y           -0.01222   0.99982   0.01443
           Z           -0.00755  -0.01453   0.99987
 This molecule is an asymmetric top.
 Rotational symmetry number  1.
 Warning -- assumption of classical behavior for rotation
           may cause significant error
 Rotational temperatures (Kelvin)      0.16592     0.06258     0.05553
 Rotational constants (GHZ):           3.45720     1.30401     1.15714
    1 imaginary frequencies ignored.
 Zero-point vibrational energy     293771.8 (Joules/Mol)
                                   70.21314 (Kcal/Mol)
 Warning -- explicit consideration of  13 degrees of freedom as
           vibrations may cause significant error
 Vibrational temperatures:     56.97   155.78   184.52   222.50   279.64
          (Kelvin)            286.76   329.62   376.10   490.80   611.30
                              787.62   817.97   890.12  1053.81  1070.69
                             1118.41  1155.51  1290.11  1334.56  1550.11
                             1624.40  1732.09  1847.30  1937.43  2016.85
                             2060.26  2145.79  2161.74  2178.95  2664.23
                             3218.75  4425.20  4469.42  4532.26  4539.90
                             4567.80  5018.71  5461.29

 Zero-point correction=                           0.111892 (Hartree/Particle)
 Thermal correction to Energy=                    0.121492
 Thermal correction to Enthalpy=                  0.122436
 Thermal correction to Gibbs Free Energy=         0.076289
 Sum of electronic and zero-point Energies=           -420.094216
 Sum of electronic and thermal Energies=              -420.084615
 Sum of electronic and thermal Enthalpies=            -420.083671
 Sum of electronic and thermal Free Energies=         -420.129819

                     E (Thermal)             CV                S
                      KCal/Mol        Cal/Mol-Kelvin    Cal/Mol-Kelvin
 Total                   76.237             32.491             97.125
 Electronic               0.000              0.000              1.377
 Translational            0.889              2.981             40.136
 Rotational               0.889              2.981             28.512
 Vibrational             74.460             26.530             27.100
 Vibration     1          0.594              1.981              5.279
 Vibration     2          0.606              1.943              3.300
 Vibration     3          0.611              1.925              2.972
 Vibration     4          0.620              1.897              2.614
 Vibration     5          0.635              1.848              2.186
 Vibration     6          0.637              1.841              2.139
 Vibration     7          0.652              1.797              1.886
 Vibration     8          0.669              1.743              1.652
 Vibration     9          0.721              1.593              1.207
 Vibration    10          0.787              1.416              0.876
 Vibration    11          0.903              1.145              0.550
 Vibration    12          0.925              1.099              0.507
 Vibration    13          0.979              0.992              0.419

 1\1\GINC-AJ\Freq\UM062X\6-311++G(d,p)\C5H7O3(2)\AAYUSH\23-Jun-2025\0\\
 # freq 6-311++g(d,p) m062x\\Title Card Required\\0,2\C,-2.813256,-0.44
 2171,-0.38808\H,-3.859817,-0.442228,-0.58573\C,-1.635349,-0.418414,-0.
 147739\C,-0.222317,-0.6178,0.166093\O,0.152417,-1.135473,1.178456\O,0.
 557146,-0.200949,-0.831024\C,1.976896,-0.346047,-0.619889\C,2.505072,0
 .765349,0.264517\H,2.399915,-0.30336,-1.622027\H,2.166603,-1.32858,-0.
 186243\H,3.587916,0.670208,0.366225\H,2.28117,1.739071,-0.173501\H,2.0
 5767,0.711011,1.257078\O,-1.453458,1.74738,0.382523\H,-1.548568,2.0207

 Normal termination of Gaussian 16 at Mon Jun 23 05:04:09 2025.
