 Gaussian 16, Revision A.03,
 Gaussian 16:  ES64L-G16RevA.03 25-Dec-2016

 --------------------------
 # ccsd(t)/6-311++g(d,p) sp
 --------------------------

 -------------------
 Title Card Required
 -------------------
 Symbolic Z-matrix:
 Charge =  0 Multiplicity = 2

                         Standard orientation:
 ---------------------------------------------------------------------
 Center     Atomic      Atomic             Coordinates (Angstroms)
 Number     Number       Type             X           Y           Z
 ---------------------------------------------------------------------
      1          6           0       -2.802681   -0.436694   -0.400884
      2          1           0       -3.845501   -0.479418   -0.614701
      3          6           0       -1.629798   -0.299951   -0.126558
      4          6           0       -0.220310   -0.601366    0.155840
      5          8           0        0.142934   -1.168348    1.144700
      6          8           0        0.560432   -0.180877   -0.836290
      7          6           0        1.979780   -0.331698   -0.625919
      8          6           0        2.503059    0.759259    0.287010
      9          1           0        2.404870   -0.263416   -1.625650
     10          1           0        2.169767   -1.324489   -0.216646
     11          1           0        3.585712    0.663311    0.389758
     12          1           0        2.278066    1.742860   -0.127528
     13          1           0        2.053101    0.680250    1.276885
     14          8           0       -1.462026    1.652653    0.400898
     15          1           0       -1.557035    2.016175   -0.493506
 ---------------------------------------------------------------------

 SCF Done:  E(UHF) =  -417.979811144     A.U. after   37 cycles
 E2 =    -0.1256847931D+01 EUMP2 =    -0.41923665907565D+03
 CCSD(T)= -0.41935308611D+03

 The electronic state is 2-A.
 Alpha  occ. eigenvalues --  -20.62283 -20.61218 -20.55635 -11.41381 -11.29689
 Alpha  occ. eigenvalues --  -11.27035 -11.26192 -11.22456  -1.48122  -1.38088
 Alpha  occ. eigenvalues --   -1.37788  -1.07948  -1.04373  -0.92692  -0.83736
 Alpha  occ. eigenvalues --   -0.76488  -0.73113  -0.69508  -0.68357  -0.66398
 Alpha  occ. eigenvalues --   -0.64438  -0.62953  -0.58050  -0.55553  -0.54003
 Alpha  occ. eigenvalues --   -0.53570  -0.50453  -0.47596  -0.45977  -0.43234
 Alpha  occ. eigenvalues --   -0.42075
 Alpha virt. eigenvalues --    0.03671   0.04407   0.05599   0.06284   0.07322
 Alpha virt. eigenvalues --    0.08831   0.09495   0.10386   0.11052   0.11722
 Alpha virt. eigenvalues --    0.13505   0.13685   0.14272   0.15924   0.16448

  Beta  occ. eigenvalues --  -20.61224 -20.58446 -20.56048 -11.41037 -11.29689
  Beta  occ. eigenvalues --  -11.27972 -11.24953 -11.22459  -1.48288  -1.38447
  Beta  occ. eigenvalues --   -1.24403  -1.07843  -1.03602  -0.91763  -0.83203
  Beta  occ. eigenvalues --   -0.76313  -0.72060  -0.69709  -0.67181  -0.63690
  Beta  occ. eigenvalues --   -0.62870  -0.58370  -0.55495  -0.54115  -0.50727
  Beta  occ. eigenvalues --   -0.50524  -0.48147  -0.47141  -0.43767  -0.42550
  Beta virt. eigenvalues --    0.03711   0.04354   0.04815   0.06283   0.06983
  Beta virt. eigenvalues --    0.08107   0.09244   0.09528   0.10610   0.11775
  Beta virt. eigenvalues --    0.12273   0.13666   0.13929   0.15436   0.16081

 Mulliken charges and spin densities:
               1          2
     1  C   -0.774600   1.044804
     2  H    0.214493  -0.075491
     3  C    0.884294  -0.929381
     4  C   -0.296007   0.172985
     5  O   -0.268110  -0.085582
     6  O   -0.079365   0.001612
     7  C   -0.159691   0.002040
     8  C   -0.392657   0.001166
     9  H    0.162474  -0.000057
    10  H    0.177253  -0.000029
    11  H    0.139182  -0.000101
    12  H    0.138951  -0.000148
    13  H    0.186215  -0.000890
    14  O   -0.160290   0.901664
    15  H    0.227857  -0.032592
 Sum of Mulliken charges =  -0.00000   1.00000

 Dipole moment (field-independent basis, Debye):
    X=              0.0287    Y=              1.1860    Z=             -3.1477  Tot=              3.3638
 Quadrupole moment (field-independent basis, Debye-Ang):
   XX=            -33.6004   YY=            -47.4984   ZZ=            -51.6157
   XY=              0.2483   XZ=              3.0329   YZ=              0.0327

 =-419.2795817\MP4SDQ=-419.2934309\CCSD=-419.2990769\CCSD(T)=-419.35308
 Normal termination of Gaussian 16 at Mon Aug  4 01:36:31 2025.
