 Gaussian 16, Revision A.03,
 Gaussian 16:  ES64L-G16RevA.03 25-Dec-2016

 -------------------
 # freq 6-31+g m062x
 -------------------

 -------------------
 Title Card Required
 -------------------
 Symbolic Z-matrix:
 Charge =  0 Multiplicity = 2

                         Standard orientation:
 ---------------------------------------------------------------------
 Center     Atomic      Atomic             Coordinates (Angstroms)
 Number     Number       Type             X           Y           Z
 ---------------------------------------------------------------------
      1          6           0       -2.799330   -0.437515   -0.407806
      2          1           0       -3.841340   -0.486949   -0.625769
      3          6           0       -1.627215   -0.236974   -0.113822
      4          6           0       -0.219691   -0.599020    0.149448
      5          8           0        0.139919   -1.183583    1.128759
      6          8           0        0.560962   -0.171562   -0.838568
      7          6           0        1.980594   -0.324139   -0.629087
      8          6           0        2.502395    0.756137    0.297434
      9          1           0        2.406092   -0.243397   -1.627658
     10          1           0        2.170856   -1.321771   -0.231958
     11          1           0        3.584988    0.658992    0.399721
     12          1           0        2.277116    1.744537   -0.105181
     13          1           0        2.051774    0.665335    1.286007
     14          8           0       -1.465281    1.608209    0.409392
     15          1           0       -1.554811    2.007812   -0.468831
 ---------------------------------------------------------------------

 SCF Done:  E(UM062X) =  -419.953432684     A.U. after   22 cycles

 The electronic state is 2-A.
 Alpha  occ. eigenvalues --  -19.70835 -19.67481 -19.66564 -10.73185 -10.62342
 Alpha  occ. eigenvalues --  -10.61698 -10.60792 -10.54479  -1.28317  -1.18988
 Alpha  occ. eigenvalues --   -1.12340  -0.92206  -0.88510  -0.78882  -0.71549
 Alpha  occ. eigenvalues --   -0.64999  -0.62885  -0.59121  -0.57332  -0.54188
 Alpha  occ. eigenvalues --   -0.53461  -0.49738  -0.48570  -0.46518  -0.45367
 Alpha  occ. eigenvalues --   -0.42152  -0.41346  -0.38733  -0.38301  -0.37469
 Alpha  occ. eigenvalues --   -0.32968
 Alpha virt. eigenvalues --   -0.00776   0.01717   0.02244   0.03027   0.03651
 Alpha virt. eigenvalues --    0.03804   0.05121   0.06397   0.07448   0.07922
 Alpha virt. eigenvalues --    0.08515   0.09017   0.09544   0.11650   0.12567

  Beta  occ. eigenvalues --  -19.70838 -19.66588 -19.66215 -10.73141 -10.62460
  Beta  occ. eigenvalues --  -10.61697 -10.60418 -10.54480  -1.28317  -1.19020
  Beta  occ. eigenvalues --   -1.07836  -0.91431  -0.87971  -0.78594  -0.71194
  Beta  occ. eigenvalues --   -0.64858  -0.62159  -0.58964  -0.57149  -0.54006
  Beta  occ. eigenvalues --   -0.51460  -0.49186  -0.46922  -0.45365  -0.42105
  Beta  occ. eigenvalues --   -0.41572  -0.39132  -0.38478  -0.36851  -0.36361
  Beta virt. eigenvalues --   -0.09953   0.00396   0.01678   0.02365   0.03138
  Beta virt. eigenvalues --    0.03693   0.04031   0.05009   0.06358   0.07545
  Beta virt. eigenvalues --    0.07834   0.08581   0.08931   0.09640   0.11943

 Mulliken charges and spin densities:
               1          2
     1  C    0.294064   0.619291
     2  H    0.309655  -0.022189
     3  C   -0.388727  -0.258530
     4  C    0.058003   0.042073
     5  O   -0.330420  -0.010020
     6  O   -0.205248  -0.003592
     7  C   -0.250803   0.000235
     8  C   -0.556803   0.001196
     9  H    0.220008  -0.000010
    10  H    0.235939  -0.000205
    11  H    0.206700  -0.000059
    12  H    0.221118  -0.000018
    13  H    0.242272   0.000012
    14  O   -0.469989   0.653959
    15  H    0.414229  -0.022143
 Sum of Mulliken charges =  -0.00000   1.00000

 Dipole moment (field-independent basis, Debye):
    X=              0.0746    Y=              0.2074    Z=             -3.3442  Tot=              3.3515
 Quadrupole moment (field-independent basis, Debye-Ang):
   XX=            -32.5332   YY=            -49.0381   ZZ=            -52.4421
   XY=              1.8485   XZ=              3.7837   YZ=             -0.4296

  Exact polarizability:  86.020   7.636  71.261   5.416   1.553  56.348
 Approx polarizability:  89.555   8.999  75.259   9.954  -2.665  69.968

 ******    4 imaginary frequencies (negative Signs) ******

                      1                      2                      3
                      A                      A                      A
 Frequencies --   -677.7976              -509.1973               -99.5730
 Red. masses --     12.6469                 1.0663                 6.8185
 Frc consts  --      3.4232                 0.1629                 0.0398
 IR Inten    --     33.5486               119.4195                 2.0379

                      4                      5                      6
                      A                      A                      A
 Frequencies --    -17.0599                41.8226               111.9469
 Red. masses --      3.0747                 3.1196                 2.9898
 Frc consts  --      0.0005                 0.0032                 0.0221
 IR Inten    --      3.9438                 2.1533                 4.8227

                      7                      8                      9
                      A                      A                      A
 Frequencies --    180.1082               186.6944               243.0573
 Red. masses --      1.4441                 5.5739                 3.8508
 Frc consts  --      0.0276                 0.1145                 0.1340
 IR Inten    --      4.0199                 0.7642                 2.2879

                     10                     11                     12
                      A                      A                      A
 Frequencies --    311.5313               421.4917               556.7832
 Red. masses --      2.9680                 3.7067                 2.8656
 Frc consts  --      0.1697                 0.3880                 0.5234
 IR Inten    --     14.8772                 1.7237                28.0057

                     13                     14                     15
                      A                      A                      A
 Frequencies --    580.8282               595.5799               694.2790
 Red. masses --      2.0353                 1.8618                 1.7817
 Frc consts  --      0.4046                 0.3891                 0.5060
 IR Inten    --      3.0412                34.1427               114.6367

                     16                     17                     18
                      A                      A                      A
 Frequencies --    718.1336               753.0950               816.5152
 Red. masses --      2.7640                 1.6135                 1.2967
 Frc consts  --      0.8398                 0.5391                 0.5093
 IR Inten    --     29.3583                39.6969                 8.2417

                     19                     20                     21
                      A                      A                      A
 Frequencies --    896.1596               939.2396              1106.9237
 Red. masses --      3.3314                 2.4863                 4.1975
 Frc consts  --      1.5763                 1.2923                 3.0303
 IR Inten    --     20.9056                 4.8511                11.3000

                     22                     23                     24
                      A                      A                      A
 Frequencies --   1157.4352              1227.3780              1316.7132
 Red. masses --      2.0737                 1.7546                 2.5379
 Frc consts  --      1.6368                 1.5573                 2.5924
 IR Inten    --     16.1650                 7.9525               386.2543

                     25                     26                     27
                      A                      A                      A
 Frequencies --   1365.3705              1440.5960              1458.5320
 Red. masses --      1.5144                 1.3493                 1.2501
 Frc consts  --      1.6634                 1.6499                 1.5668
 IR Inten    --    191.8472                21.5278                20.6877

                     28                     29                     30
                      A                      A                      A
 Frequencies --   1526.7367              1536.7824              1544.8023
 Red. masses --      1.0412                 1.0528                 1.0895
 Frc consts  --      1.4300                 1.4650                 1.5318
 IR Inten    --     14.8227                 3.0874                26.3181

                     31                     32                     33
                      A                      A                      A
 Frequencies --   1920.6257              2113.8664              3107.8501
 Red. masses --     12.1024                 6.4652                 1.0352
 Frc consts  --     26.3032                17.0211                 5.8910
 IR Inten    --    317.1870                78.5163                11.7036

                     34                     35                     36
                      A                      A                      A
 Frequencies --   3138.5896              3187.6384              3191.2626
 Red. masses --      1.0602                 1.1007                 1.1024
 Frc consts  --      6.1531                 6.5896                 6.6146
 IR Inten    --     20.8374                12.9495                 7.3325

                     37                     38                     39
                      A                      A                      A
 Frequencies --   3211.9717              3509.9618              3842.0679
 Red. masses --      1.1051                 1.1470                 1.0672
 Frc consts  --      6.7171                 8.3255                 9.2819
 IR Inten    --     16.3377                65.8074                25.2760

 - Thermochemistry -
 -------------------
 Temperature   298.150 Kelvin.  Pressure   1.00000 Atm.
 Atom     1 has atomic number  6 and mass  12.00000

 Molecular mass:   115.03952 amu.
 Principal axes and moments of inertia in atomic units:
                           1         2         3
     Eigenvalues --   490.235041378.048501527.91108
           X            0.99989   0.01240   0.00864
           Y           -0.01260   0.99965   0.02340
           Z           -0.00835  -0.02351   0.99969
 This molecule is an asymmetric top.
 Rotational symmetry number  1.
 Warning -- assumption of classical behavior for rotation
           may cause significant error
 Rotational temperatures (Kelvin)      0.17668     0.06285     0.05669
 Rotational constants (GHZ):           3.68138     1.30964     1.18118
    4 imaginary frequencies ignored.
 Zero-point vibrational energy     292800.2 (Joules/Mol)
                                   69.98093 (Kcal/Mol)
 Warning -- explicit consideration of  10 degrees of freedom as
           vibrations may cause significant error
 Vibrational temperatures:     60.17   161.07   259.14   268.61   349.71
          (Kelvin)            448.22   606.43   801.09   835.68   856.91
                              998.91  1033.23  1083.54  1174.78  1289.37
                             1351.36  1592.62  1665.29  1765.92  1894.46
                             1964.46  2072.70  2098.50  2196.63  2211.09
                             2222.63  2763.35  3041.38  4471.50  4515.73
                             4586.30  4591.52  4621.31  5050.05  5527.88

 Zero-point correction=                           0.111522 (Hartree/Particle)
 Thermal correction to Energy=                    0.119396
 Thermal correction to Enthalpy=                  0.120340
 Thermal correction to Gibbs Free Energy=         0.077586
 Sum of electronic and zero-point Energies=           -419.841911
 Sum of electronic and thermal Energies=              -419.834037
 Sum of electronic and thermal Enthalpies=            -419.833093
 Sum of electronic and thermal Free Energies=         -419.875847

                     E (Thermal)             CV                S
                      KCal/Mol        Cal/Mol-Kelvin    Cal/Mol-Kelvin
 Total                   74.922             26.995             89.983
 Electronic               0.000              0.000              1.377
 Translational            0.889              2.981             40.136
 Rotational               0.889              2.981             28.425
 Vibrational             73.144             21.033             20.044
 Vibration     1          0.594              1.980              5.171
 Vibration     2          0.607              1.940              3.235
 Vibration     3          0.629              1.867              2.327
 Vibration     4          0.632              1.858              2.260
 Vibration     5          0.659              1.774              1.780
 Vibration     6          0.700              1.652              1.354
 Vibration     7          0.784              1.424              0.887
 Vibration     8          0.912              1.125              0.530
 Vibration     9          0.938              1.073              0.484
 Vibration    10          0.953              1.041              0.457

 Normal termination of Gaussian 16 at Fri Jun 20 13:42:43 2025.
