 Gaussian 16, Revision A.03,
 Gaussian 16:  ES64L-G16RevA.03 25-Dec-2016

 --------------------------
 # freq 6-311++g(d,p) m062x
 --------------------------

 -------------------
 Title Card Required
 -------------------
 Symbolic Z-matrix:
 Charge =  0 Multiplicity = 2

                         Standard orientation:
 ---------------------------------------------------------------------
 Center     Atomic      Atomic             Coordinates (Angstroms)
 Number     Number       Type             X           Y           Z
 ---------------------------------------------------------------------
      1          6           0       -2.802681   -0.436694   -0.400884
      2          1           0       -3.845501   -0.479418   -0.614701
      3          6           0       -1.629798   -0.299951   -0.126558
      4          6           0       -0.220310   -0.601366    0.155840
      5          8           0        0.142934   -1.168348    1.144700
      6          8           0        0.560432   -0.180877   -0.836290
      7          6           0        1.979780   -0.331698   -0.625919
      8          6           0        2.503059    0.759259    0.287010
      9          1           0        2.404870   -0.263416   -1.625650
     10          1           0        2.169767   -1.324489   -0.216646
     11          1           0        3.585712    0.663311    0.389758
     12          1           0        2.278066    1.742860   -0.127528
     13          1           0        2.053101    0.680250    1.276885
     14          8           0       -1.462026    1.652653    0.400898
     15          1           0       -1.557035    2.016175   -0.493506
 ---------------------------------------------------------------------

 SCF Done:  E(UM062X) =  -420.202028993     A.U. after   23 cycles

 The electronic state is 2-A.
 Alpha  occ. eigenvalues --  -19.68298 -19.65826 -19.63214 -10.70704 -10.60594
 Alpha  occ. eigenvalues --  -10.59276 -10.58528 -10.53617  -1.25763  -1.16519
 Alpha  occ. eigenvalues --   -1.11922  -0.91114  -0.87601  -0.78255  -0.70793
 Alpha  occ. eigenvalues --   -0.64654  -0.62153  -0.58740  -0.57008  -0.54227
 Alpha  occ. eigenvalues --   -0.53330  -0.50072  -0.48697  -0.46196  -0.45267
 Alpha  occ. eigenvalues --   -0.42002  -0.41689  -0.39092  -0.38493  -0.36934
 Alpha  occ. eigenvalues --   -0.34153
 Alpha virt. eigenvalues --   -0.00719  -0.00508   0.00479   0.01365   0.02207
 Alpha virt. eigenvalues --    0.02768   0.03429   0.04488   0.05458   0.06050
 Alpha virt. eigenvalues --    0.07104   0.07832   0.07944   0.10176   0.10527

  Beta  occ. eigenvalues --  -19.68303 -19.64414 -19.63233 -10.70679 -10.60593
  Beta  occ. eigenvalues --  -10.59327 -10.58289 -10.53618  -1.25768  -1.16560
  Beta  occ. eigenvalues --   -1.06105  -0.90518  -0.87120  -0.78017  -0.70542
  Beta  occ. eigenvalues --   -0.64552  -0.61648  -0.58668  -0.56731  -0.53482
  Beta  occ. eigenvalues --   -0.51620  -0.49125  -0.46682  -0.45293  -0.41986
  Beta  occ. eigenvalues --   -0.40882  -0.38829  -0.38346  -0.37040  -0.36467
  Beta virt. eigenvalues --   -0.09623  -0.00406   0.00218   0.00650   0.01680
  Beta virt. eigenvalues --    0.02303   0.02903   0.03400   0.04616   0.05549
  Beta virt. eigenvalues --    0.06022   0.07199   0.07677   0.08017   0.10323

 Mulliken charges and spin densities:
               1          2
     1  C   -0.504744   0.431181
     2  H    0.202420  -0.016056
     3  C    0.651683  -0.184702
     4  C   -0.361675   0.023365
     5  O   -0.189637  -0.009095
     6  O    0.001948  -0.002698
     7  C   -0.277511  -0.000832
     8  C   -0.423848   0.002248
     9  H    0.192041   0.000184
    10  H    0.193089  -0.000087
    11  H    0.168419   0.000010
    12  H    0.161571  -0.000546
    13  H    0.195555  -0.001380
    14  O   -0.229951   0.776893
    15  H    0.220638  -0.018485
 Sum of Mulliken charges =  -0.00000   1.00000

 Dipole moment (field-independent basis, Debye):
    X=              0.0869    Y=              0.4463    Z=             -3.1021  Tot=              3.1353
 Quadrupole moment (field-independent basis, Debye-Ang):
   XX=            -32.9254   YY=            -48.4186   ZZ=            -51.1785
   XY=              1.5091   XZ=              3.3291   YZ=             -0.3382

  Exact polarizability:  91.228   7.541  74.374   5.536   1.883  58.748
 Approx polarizability:  97.549   6.987  79.660   9.310  -2.282  75.497

 ******    2 imaginary frequencies (negative Signs) ******

                      1                      2                      3
                      A                      A                      A
 Frequencies --   -490.0391               -10.1810                58.0783
 Red. masses --     12.1385                 3.7467                 4.2733
 Frc consts  --      1.7174                 0.0002                 0.0085
 IR Inten    --     62.9819                 6.9933                 2.4437

                      4                      5                      6
                      A                      A                      A
 Frequencies --    103.7949               137.5635               164.6981
 Red. masses --      2.3886                 1.9324                 5.6950
 Frc consts  --      0.0152                 0.0215                 0.0910
 IR Inten    --     27.1268                21.7162                12.1863

                      7                      8                      9
                      A                      A                      A
 Frequencies --    181.9318               225.5462               251.1622
 Red. masses --      1.7712                 1.5689                 2.7249
 Frc consts  --      0.0345                 0.0470                 0.1013
 IR Inten    --     17.8419                 3.8003                 7.8670

                     10                     11                     12
                      A                      A                      A
 Frequencies --    338.9065               427.8153               558.2574
 Red. masses --      2.9328                 3.8357                 4.0838
 Frc consts  --      0.1985                 0.4136                 0.7499
 IR Inten    --     11.7721                 1.3979                 5.5098

                     13                     14                     15
                      A                      A                      A
 Frequencies --    598.4261               691.2928               720.3829
 Red. masses --      4.9350                 1.2887                 1.2174
 Frc consts  --      1.0413                 0.3628                 0.3722
 IR Inten    --      7.6473                36.9732                45.8664

                     16                     17                     18
                      A                      A                      A
 Frequencies --    740.0905               768.4637               802.3396
 Red. masses --      1.2669                 8.6310                 1.2124
 Frc consts  --      0.4088                 3.0030                 0.4598
 IR Inten    --     58.6526                48.4238                 5.4280

                     19                     20                     21
                      A                      A                      A
 Frequencies --    896.1343               924.8576              1074.4514
 Red. masses --      3.2719                 2.7116                 4.1140
 Frc consts  --      1.5481                 1.3666                 2.7982
 IR Inten    --     15.5827                 5.9752                23.7219

                     22                     23                     24
                      A                      A                      A
 Frequencies --   1128.3209              1203.3310              1278.7788
 Red. masses --      2.0981                 1.7790                 4.4154
 Frc consts  --      1.5738                 1.5177                 4.2541
 IR Inten    --     21.8221                 7.5917               561.5019

                     25                     26                     27
                      A                      A                      A
 Frequencies --   1344.8921              1401.3263              1430.6690
 Red. masses --      1.2047                 1.2711                 1.3689
 Frc consts  --      1.2838                 1.4706                 1.6508
 IR Inten    --     69.7758                20.3929                12.7514

                     28                     29                     30
                      A                      A                      A
 Frequencies --   1491.2993              1502.2326              1514.5770
 Red. masses --      1.0406                 1.0539                 1.0917
 Frc consts  --      1.3635                 1.4013                 1.4755
 IR Inten    --     10.7593                 1.4205                20.1615

                     31                     32                     33
                      A                      A                      A
 Frequencies --   1854.5360              2150.0943              3075.7507
 Red. masses --     12.0489                 6.2270                 1.0354
 Frc consts  --     24.4157                16.9607                 5.7714
 IR Inten    --    348.2704                91.2654                 9.2400

                     34                     35                     36
                      A                      A                      A
 Frequencies --   3107.3307              3150.9663              3155.2744
 Red. masses --      1.0608                 1.1018                 1.1046
 Frc consts  --      6.0348                 6.4452                 6.4794
 IR Inten    --     19.5034                14.0548                 3.4413

                     37                     38                     39
                      A                      A                      A
 Frequencies --   3175.2089              3477.6849              3815.2916
 Red. masses --      1.1071                 1.1535                 1.0674
 Frc consts  --      6.5762                 8.2196                 9.1546
 IR Inten    --     14.4353                70.4020                45.6650

 - Thermochemistry -
 -------------------
 Temperature   298.150 Kelvin.  Pressure   1.00000 Atm.
 Atom     1 has atomic number  6 and mass  12.00000

 Molecular mass:   115.03952 amu.
 Principal axes and moments of inertia in atomic units:
                           1         2         3
     Eigenvalues --   499.735381379.764881537.29998
           X            0.99989   0.01234   0.00838
           Y           -0.01251   0.99971   0.02037
           Z           -0.00813  -0.02047   0.99976
 This molecule is an asymmetric top.
 Rotational symmetry number  1.
 Warning -- assumption of classical behavior for rotation
           may cause significant error
 Rotational temperatures (Kelvin)      0.17332     0.06277     0.05634
 Rotational constants (GHZ):           3.61139     1.30801     1.17397
    2 imaginary frequencies ignored.
 Zero-point vibrational energy     292617.1 (Joules/Mol)
                                   69.93716 (Kcal/Mol)
 Warning -- explicit consideration of  11 degrees of freedom as
           vibrations may cause significant error
 Vibrational temperatures:     83.56   149.34   197.92   236.96   261.76
          (Kelvin)            324.51   361.37   487.61   615.53   803.21
                              861.00   994.62  1036.47  1064.83  1105.65
                             1154.39  1289.34  1330.66  1545.90  1623.40
                             1731.32  1839.88  1935.00  2016.20  2058.41
                             2145.65  2161.38  2179.14  2668.26  3093.51
                             4425.32  4470.76  4533.54  4539.74  4568.42
                             5003.61  5489.35

 Zero-point correction=                           0.111452 (Hartree/Particle)
 Thermal correction to Energy=                    0.120418
 Thermal correction to Enthalpy=                  0.121362
 Thermal correction to Gibbs Free Energy=         0.076667
 Sum of electronic and zero-point Energies=           -420.090577
 Sum of electronic and thermal Energies=              -420.081611
 Sum of electronic and thermal Enthalpies=            -420.080667
 Sum of electronic and thermal Free Energies=         -420.125362

                     E (Thermal)             CV                S
                      KCal/Mol        Cal/Mol-Kelvin    Cal/Mol-Kelvin
 Total                   75.563             30.489             94.068
 Electronic               0.000              0.000              1.377
 Translational            0.889              2.981             40.136
 Rotational               0.889              2.981             28.451
 Vibrational             73.786             24.528             24.103
 Vibration     1          0.596              1.974              4.521
 Vibration     2          0.605              1.946              3.382
 Vibration     3          0.614              1.916              2.837
 Vibration     4          0.623              1.886              2.495
 Vibration     5          0.630              1.864              2.308
 Vibration     6          0.650              1.802              1.914
 Vibration     7          0.663              1.761              1.722
 Vibration     8          0.719              1.598              1.217
 Vibration     9          0.789              1.410              0.866
 Vibration    10          0.914              1.122              0.527
 Vibration    11          0.956              1.035              0.452

 1\1\GINC-AJ\Freq\UM062X\6-311++G(d,p)\C5H7O3(2)\AAYUSH\16-Aug-2025\0\\
 # freq 6-311++g(d,p) m062x\\Title Card Required\\0,2\C,2.741474,-0.408
 974,0.415205\H,3.784251,-0.450888,0.62939\C,1.56865,-0.273281,0.140105
 \C,0.159199,-0.575761,-0.141335\O,-0.20389,-1.146729,-1.127955\O,-0.62
 1707,-0.151209,0.848934\C,-2.041024,-0.302804,0.638909\C,-2.56407,0.78
 447,-0.278536\H,-2.466298,-0.230444,1.638274\H,-2.230989,-1.297236,0.2
 3363\H,-3.646709,0.688166,-0.381099\H,-2.3391,1.769732,0.132051\H,-2.1
 13929,0.701422,-1.267998\O,1.401086,1.677177,-0.395298\H,1.495947,2.04

 Normal termination of Gaussian 16 at Sat Aug 16 20:41:26 2025.
