 Gaussian 16, Revision A.03,
 Gaussian 16:  ES64L-G16RevA.03 25-Dec-2016

 -------------------
 # freq 6-31+g m062x
 -------------------

 -------------------
 Title Card Required
 -------------------
 Symbolic Z-matrix:
 Charge =  0 Multiplicity = 2

                         Standard orientation:
 ---------------------------------------------------------------------
 Center     Atomic      Atomic             Coordinates (Angstroms)
 Number     Number       Type             X           Y           Z
 ---------------------------------------------------------------------
      1          6           0       -2.793303   -0.444651   -0.420689
      2          1           0       -3.837192   -0.473312   -0.638091
      3          6           0       -1.622633   -0.131376   -0.089512
      4          6           0       -0.221187   -0.598731    0.137554
      5          8           0        0.136408   -1.208518    1.101940
      6          8           0        0.561893   -0.155538   -0.842041
      7          6           0        1.981676   -0.310883   -0.634347
      8          6           0        2.501346    0.750900    0.314790
      9          1           0        2.408265   -0.209164   -1.630505
     10          1           0        2.172609   -1.316220   -0.257614
     11          1           0        3.583878    0.652182    0.416226
     12          1           0        2.275746    1.747201   -0.067597
     13          1           0        2.049858    0.639855    1.300927
     14          8           0       -1.470640    1.535999    0.422096
     15          1           0       -1.549838    1.992359   -0.426082
 ---------------------------------------------------------------------

 SCF Done:  E(UM062X) =  -419.962925033     A.U. after   19 cycles

 The electronic state is 2-A.
 Alpha  occ. eigenvalues --  -19.70874 -19.66877 -19.66712 -10.72988 -10.64458
 Alpha  occ. eigenvalues --  -10.61717 -10.61258 -10.54497  -1.28366  -1.19032
 Alpha  occ. eigenvalues --   -1.12412  -0.92241  -0.88565  -0.78884  -0.71659
 Alpha  occ. eigenvalues --   -0.65084  -0.62799  -0.59498  -0.57566  -0.54614
 Alpha  occ. eigenvalues --   -0.53753  -0.49340  -0.48279  -0.46644  -0.45400
 Alpha  occ. eigenvalues --   -0.42255  -0.41485  -0.38511  -0.37698  -0.37548
 Alpha  occ. eigenvalues --   -0.31342
 Alpha virt. eigenvalues --   -0.00141   0.01662   0.02174   0.02623   0.03630
 Alpha virt. eigenvalues --    0.03907   0.05168   0.06561   0.07463   0.08082
 Alpha virt. eigenvalues --    0.08512   0.09062   0.09516   0.11408   0.12432

  Beta  occ. eigenvalues --  -19.70873 -19.66726 -19.66142 -10.72925 -10.64638
  Beta  occ. eigenvalues --  -10.61716 -10.60644 -10.54498  -1.28342  -1.19038
  Beta  occ. eigenvalues --   -1.09989  -0.91152  -0.87681  -0.78367  -0.70944
  Beta  occ. eigenvalues --   -0.64882  -0.61787  -0.59234  -0.57333  -0.54042
  Beta  occ. eigenvalues --   -0.52850  -0.49111  -0.47027  -0.45370  -0.43670
  Beta  occ. eigenvalues --   -0.42070  -0.39930  -0.38472  -0.36783  -0.36156
  Beta virt. eigenvalues --   -0.09186   0.00674   0.01542   0.02362   0.02886
  Beta virt. eigenvalues --    0.03703   0.04002   0.04969   0.06399   0.07542
  Beta virt. eigenvalues --    0.07874   0.08491   0.08778   0.09552   0.11765

 Mulliken charges and spin densities:
               1          2
     1  C    0.342725   0.973515
     2  H    0.292657  -0.034785
     3  C   -0.413555  -0.343940
     4  C    0.080442   0.057167
     5  O   -0.334575  -0.004141
     6  O   -0.206759  -0.001109
     7  C   -0.243524   0.001601
     8  C   -0.562257   0.000959
     9  H    0.220458  -0.000005
    10  H    0.236524  -0.000195
    11  H    0.206715  -0.000039
    12  H    0.221783   0.000036
    13  H    0.241786   0.000057
    14  O   -0.511454   0.359385
    15  H    0.429034  -0.008506
 Sum of Mulliken charges =  -0.00000   1.00000

 Dipole moment (field-independent basis, Debye):
    X=              0.0950    Y=              0.1934    Z=             -3.3629  Tot=              3.3698
 Quadrupole moment (field-independent basis, Debye-Ang):
   XX=            -32.8618   YY=            -49.4074   ZZ=            -52.5512
   XY=              1.7550   XZ=              3.8041   YZ=             -0.4982

  Exact polarizability:  83.893   6.277  66.663   4.709   0.386  55.880
 Approx polarizability:  84.558   8.396  75.876   8.490  -2.610  69.615

 ******    3 imaginary frequencies (negative Signs) ******

                      1                      2                      3
                      A                      A                      A
 Frequencies --   -575.1316              -500.9480               -75.0006
 Red. masses --      7.5229                 1.0649                 6.7064
 Frc consts  --      1.4661                 0.1575                 0.0222
 IR Inten    --     40.8205               124.5542                 2.2101

                      4                      5                      6
                      A                      A                      A
 Frequencies --     33.0539                58.9216               143.9722
 Red. masses --      2.5687                 3.5914                 1.8065
 Frc consts  --      0.0017                 0.0073                 0.0221
 IR Inten    --      2.5699                 6.3819                 2.9359

                      7                      8                      9
                      A                      A                      A
 Frequencies --    196.2602               221.3059               242.3554
 Red. masses --      1.8469                 1.5784                 3.3576
 Frc consts  --      0.0419                 0.0455                 0.1162
 IR Inten    --      5.1899                20.6484                 9.5444

                     10                     11                     12
                      A                      A                      A
 Frequencies --    314.7648               349.1263               435.1976
 Red. masses --      3.0750                 6.0502                 3.7538
 Frc consts  --      0.1795                 0.4345                 0.4189
 IR Inten    --     17.8432                 4.3090                 4.5526

                     13                     14                     15
                      A                      A                      A
 Frequencies --    585.0410               605.6932               718.2804
 Red. masses --      4.3100                 4.6921                 1.3108
 Frc consts  --      0.8692                 1.0142                 0.3985
 IR Inten    --      4.5877                17.9329                54.4710

                     16                     17                     18
                      A                      A                      A
 Frequencies --    724.3818               812.7404               887.5479
 Red. masses --      8.6292                 1.3292                 2.5887
 Frc consts  --      2.6678                 0.5173                 1.2015
 IR Inten    --     33.1765                 8.3339                22.7075

                     19                     20                     21
                      A                      A                      A
 Frequencies --    935.3035               950.5292              1103.8137
 Red. masses --      2.4430                 1.3853                 4.1954
 Frc consts  --      1.2591                 0.7374                 3.0117
 IR Inten    --      1.6357                39.8150                11.3377

                     22                     23                     24
                      A                      A                      A
 Frequencies --   1156.7673              1226.8148              1313.0757
 Red. masses --      2.0619                 1.7527                 2.7338
 Frc consts  --      1.6256                 1.5543                 2.7772
 IR Inten    --     16.4349                 8.2422               390.9338

                     25                     26                     27
                      A                      A                      A
 Frequencies --   1363.5385              1439.4263              1458.8764
 Red. masses --      1.4638                 1.3424                 1.2455
 Frc consts  --      1.6035                 1.6387                 1.5618
 IR Inten    --    169.0979                16.5066                20.6013

                     28                     29                     30
                      A                      A                      A
 Frequencies --   1526.8671              1536.6449              1544.8088
 Red. masses --      1.0411                 1.0522                 1.0895
 Frc consts  --      1.4300                 1.4638                 1.5319
 IR Inten    --     14.5840                 2.8244                24.5156

                     31                     32                     33
                      A                      A                      A
 Frequencies --   1901.2801              1955.4684              3107.9962
 Red. masses --      9.0011                 8.7792                 1.0352
 Frc consts  --     19.1707                19.7791                 5.8914
 IR Inten    --    176.6248               139.4899                11.7496

                     34                     35                     36
                      A                      A                      A
 Frequencies --   3139.3083              3188.1350              3191.2117
 Red. masses --      1.0601                 1.1008                 1.1023
 Frc consts  --      6.1558                 6.5920                 6.6137
 IR Inten    --     20.9083                12.6073                 7.4295

                     37                     38                     39
                      A                      A                      A
 Frequencies --   3212.0888              3490.1722              3868.1079
 Red. masses --      1.1052                 1.1301                 1.0670
 Frc consts  --      6.7184                 8.1105                 9.4066
 IR Inten    --     16.3292                68.0259                35.7657

 - Thermochemistry -
 -------------------
 Temperature   298.150 Kelvin.  Pressure   1.00000 Atm.
 Atom     1 has atomic number  6 and mass  12.00000

 Molecular mass:   115.03952 amu.
 Principal axes and moments of inertia in atomic units:
                           1         2         3
     Eigenvalues --   476.287991375.162001514.09475
           X            0.99989   0.01218   0.00898
           Y           -0.01243   0.99952   0.02830
           Z           -0.00864  -0.02841   0.99956
 This molecule is an asymmetric top.
 Rotational symmetry number  1.
 Warning -- assumption of classical behavior for rotation
           may cause significant error
 Rotational temperatures (Kelvin)      0.18185     0.06298     0.05721
 Rotational constants (GHZ):           3.78918     1.31238     1.19196
    3 imaginary frequencies ignored.
 Zero-point vibrational energy     292719.5 (Joules/Mol)
                                   69.96164 (Kcal/Mol)
 Warning -- explicit consideration of  11 degrees of freedom as
           vibrations may cause significant error
 Vibrational temperatures:     47.56    84.78   207.14   282.37   318.41
          (Kelvin)            348.70   452.88   502.31   626.15   841.74
                              871.46  1033.45  1042.22  1169.35  1276.98
                             1345.69  1367.60  1588.14  1664.33  1765.11
                             1889.22  1961.83  2071.01  2099.00  2196.82
                             2210.89  2222.64  2735.52  2813.48  4471.71
                             4516.76  4587.02  4591.44  4621.48  5021.58
                             5565.34

 Zero-point correction=                           0.111491 (Hartree/Particle)
 Thermal correction to Energy=                    0.120160
 Thermal correction to Enthalpy=                  0.121104
 Thermal correction to Gibbs Free Energy=         0.076277
 Sum of electronic and zero-point Energies=           -419.851434
 Sum of electronic and thermal Energies=              -419.842765
 Sum of electronic and thermal Enthalpies=            -419.841821
 Sum of electronic and thermal Free Energies=         -419.886648

                     E (Thermal)             CV                S
                      KCal/Mol        Cal/Mol-Kelvin    Cal/Mol-Kelvin
 Total                   75.401             28.940             94.347
 Electronic               0.000              0.000              1.377
 Translational            0.889              2.981             40.136
 Rotational               0.889              2.981             28.385
 Vibrational             73.624             22.978             24.448
 Vibration     1          0.594              1.983              5.637
 Vibration     2          0.596              1.974              4.493
 Vibration     3          0.616              1.909              2.750
 Vibration     4          0.636              1.845              2.168
 Vibration     5          0.648              1.809              1.948
 Vibration     6          0.659              1.775              1.786
 Vibration     7          0.702              1.645              1.337
 Vibration     8          0.726              1.577              1.170
 Vibration     9          0.796              1.394              0.842
 Vibration    10          0.942              1.064              0.476
 Vibration    11          0.964              1.020              0.440

 Normal termination of Gaussian 16 at Fri Jun 20 13:52:57 2025.
