 Gaussian 16, Revision A.03,
 Gaussian 16:  ES64L-G16RevA.03 25-Dec-2016

 --------------------------
 # ccsd(t)/6-311++g(d,p) sp
 --------------------------

 -------------------
 Title Card Required
 -------------------
 Symbolic Z-matrix:
 Charge =  0 Multiplicity = 2

                         Standard orientation:
 ---------------------------------------------------------------------
 Center     Atomic      Atomic             Coordinates (Angstroms)
 Number     Number       Type             X           Y           Z
 ---------------------------------------------------------------------
      1          6           0       -2.805822   -0.437542   -0.396532
      2          1           0       -3.849741   -0.469755   -0.605882
      3          6           0       -1.631470   -0.340812   -0.134256
      4          6           0       -0.220936   -0.604876    0.159636
      5          8           0        0.145598   -1.157771    1.155653
      6          8           0        0.559812   -0.187177   -0.834635
      7          6           0        1.979056   -0.336658   -0.623846
      8          6           0        2.503658    0.761289    0.279739
      9          1           0        2.403739   -0.276939   -1.624336
     10          1           0        2.168778   -1.326097   -0.206347
     11          1           0        3.586361    0.665953    0.382529
     12          1           0        2.278947    1.741595   -0.142798
     13          1           0        2.054288    0.690387    1.270469
     14          8           0       -1.459480    1.683298    0.395020
     15          1           0       -1.556719    2.019647   -0.510378
 ---------------------------------------------------------------------

 SCF Done:  E(UHF) =  -417.982661318     A.U. after   38 cycles
 E2 =    -0.1258092765D+01 EUMP2 =    -0.41924075408266D+03
 CCSD(T)= -0.41935374286D+03

 The electronic state is 2-A.
 Alpha  occ. eigenvalues --  -20.62559 -20.61240 -20.55649 -11.41417 -11.29694
 Alpha  occ. eigenvalues --  -11.26886 -11.25919 -11.22459  -1.48116  -1.38325
 Alpha  occ. eigenvalues --   -1.37797  -1.07871  -1.04317  -0.92678  -0.83755
 Alpha  occ. eigenvalues --   -0.76464  -0.73087  -0.69497  -0.68308  -0.66647
 Alpha  occ. eigenvalues --   -0.64713  -0.63021  -0.58117  -0.55707  -0.54010
 Alpha  occ. eigenvalues --   -0.53692  -0.50468  -0.47643  -0.46041  -0.43075
 Alpha  occ. eigenvalues --   -0.42071
 Alpha virt. eigenvalues --    0.03664   0.04403   0.05596   0.06283   0.07316
 Alpha virt. eigenvalues --    0.08850   0.09473   0.10228   0.10989   0.11658
 Alpha virt. eigenvalues --    0.13499   0.13698   0.14302   0.15851   0.16440

  Beta  occ. eigenvalues --  -20.61245 -20.58609 -20.56043 -11.41103 -11.29694
  Beta  occ. eigenvalues --  -11.27464 -11.25071 -11.22461  -1.48276  -1.38424
  Beta  occ. eigenvalues --   -1.23992  -1.07862  -1.03643  -0.91876  -0.83349
  Beta  occ. eigenvalues --   -0.76326  -0.72175  -0.69696  -0.67043  -0.63632
  Beta  occ. eigenvalues --   -0.62945  -0.58424  -0.55455  -0.54114  -0.50685
  Beta  occ. eigenvalues --   -0.50552  -0.48169  -0.47129  -0.43406  -0.42491
  Beta virt. eigenvalues --    0.03701   0.04351   0.04893   0.06284   0.07026
  Beta virt. eigenvalues --    0.08239   0.09270   0.09516   0.10624   0.11514
  Beta virt. eigenvalues --    0.12304   0.13654   0.13919   0.15282   0.15991

 Mulliken charges and spin densities:
               1          2
     1  C   -1.174327   0.888549
     2  H    0.208842  -0.064842
     3  C    1.216939  -0.810700
     4  C   -0.230987   0.165962
     5  O   -0.266660  -0.081752
     6  O   -0.078473   0.000993
     7  C   -0.155322   0.001946
     8  C   -0.392441   0.000826
     9  H    0.163251  -0.000046
    10  H    0.177630  -0.000041
    11  H    0.140024  -0.000086
    12  H    0.138191  -0.000133
    13  H    0.186551  -0.000761
    14  O   -0.157784   0.935268
    15  H    0.224566  -0.035185
 Sum of Mulliken charges =  -0.00000   1.00000

 Dipole moment (field-independent basis, Debye):
    X=              0.0451    Y=              1.2430    Z=             -3.1459  Tot=              3.3828
 Quadrupole moment (field-independent basis, Debye-Ang):
   XX=            -33.6120   YY=            -47.4417   ZZ=            -51.6484
   XY=              0.0886   XZ=              2.9895   YZ=             -0.0333

 \PMP3-0=-419.2801951\MP4SDQ=-419.2961493\CCSD=-419.3002015\CCSD(T)=-41
 Normal termination of Gaussian 16 at Sun Aug  3 13:43:53 2025.
