 Gaussian 16, Revision A.03,
 Gaussian 16:  ES64L-G16RevA.03 25-Dec-2016

 --------------------------
 # freq 6-311++g(d,p) m062x
 --------------------------

 -------------------
 Title Card Required
 -------------------
 Symbolic Z-matrix:
 Charge =  0 Multiplicity = 2

                         Standard orientation:
 ---------------------------------------------------------------------
 Center     Atomic      Atomic             Coordinates (Angstroms)
 Number     Number       Type             X           Y           Z
 ---------------------------------------------------------------------
      1          6           0       -2.811421   -0.440695   -0.390163
      2          1           0       -3.857341   -0.449891   -0.590970
      3          6           0       -1.634287   -0.399598   -0.144627
      4          6           0       -0.221919   -0.613828    0.164595
      5          8           0        0.150574   -1.141132    1.172684
      6          8           0        0.558031   -0.197267   -0.831948
      7          6           0        1.977556   -0.343789   -0.620863
      8          6           0        2.504727    0.764314    0.268373
      9          1           0        2.401092   -0.296905   -1.622579
     10          1           0        2.167119   -1.328079   -0.191190
     11          1           0        3.587531    0.669288    0.370521
     12          1           0        2.280562    1.739660   -0.165862
     13          1           0        2.056705    0.705803    1.260447
     14          8           0       -1.455050    1.730999    0.385758
     15          1           0       -1.552032    2.020906   -0.536206
 ---------------------------------------------------------------------

 SCF Done:  E(UM062X) =  -420.205418726     A.U. after   24 cycles

 The electronic state is 2-A.
 Alpha  occ. eigenvalues --  -19.68243 -19.67114 -19.63070 -10.70604 -10.60556
 Alpha  occ. eigenvalues --  -10.57991 -10.57689 -10.53606  -1.25634  -1.16385
 Alpha  occ. eigenvalues --   -1.12983  -0.90732  -0.87324  -0.78110  -0.70648
 Alpha  occ. eigenvalues --   -0.64515  -0.61734  -0.58550  -0.56778  -0.54925
 Alpha  occ. eigenvalues --   -0.53436  -0.50404  -0.48857  -0.46309  -0.45229
 Alpha  occ. eigenvalues --   -0.42412  -0.41975  -0.39289  -0.38481  -0.36579
 Alpha  occ. eigenvalues --   -0.35491
 Alpha virt. eigenvalues --   -0.01003  -0.00494   0.00498   0.01337   0.02188
 Alpha virt. eigenvalues --    0.02844   0.03651   0.04585   0.05429   0.06074
 Alpha virt. eigenvalues --    0.07162   0.07932   0.07947   0.10093   0.10582

  Beta  occ. eigenvalues --  -19.68248 -19.65564 -19.63085 -10.70591 -10.60555
  Beta  occ. eigenvalues --  -10.57970 -10.57586 -10.53607  -1.25642  -1.16417
  Beta  occ. eigenvalues --   -1.05792  -0.90414  -0.87026  -0.77981  -0.70525
  Beta  occ. eigenvalues --   -0.64468  -0.61434  -0.58492  -0.56514  -0.53494
  Beta  occ. eigenvalues --   -0.52037  -0.49225  -0.46660  -0.45264  -0.41982
  Beta  occ. eigenvalues --   -0.40349  -0.38791  -0.37997  -0.37879  -0.36325
  Beta virt. eigenvalues --   -0.08872  -0.00490  -0.00238   0.00570   0.01658
  Beta virt. eigenvalues --    0.02245   0.02939   0.03635   0.04706   0.05529
  Beta virt. eigenvalues --    0.06101   0.07237   0.07859   0.08013   0.10231

 Mulliken charges and spin densities:
               1          2
     1  C   -1.431051   0.176297
     2  H    0.185177  -0.009307
     3  C    1.404049  -0.066847
     4  C   -0.202061   0.035126
     5  O   -0.188990  -0.006227
     6  O    0.000041  -0.002333
     7  C   -0.264960  -0.000898
     8  C   -0.425840   0.000718
     9  H    0.193742   0.000091
    10  H    0.194209  -0.000047
    11  H    0.169337   0.000031
    12  H    0.159368  -0.000167
    13  H    0.195582  -0.001257
    14  O   -0.210426   0.896496
    15  H    0.221824  -0.021676
 Sum of Mulliken charges =  -0.00000   1.00000

 Dipole moment (field-independent basis, Debye):
    X=              0.1476    Y=              0.7492    Z=             -3.0523  Tot=              3.1463
 Quadrupole moment (field-independent basis, Debye-Ang):
   XX=            -33.3613   YY=            -48.0214   ZZ=            -51.2468
   XY=              0.8076   XZ=              3.0606   YZ=             -0.4471

  Exact polarizability:  91.458   4.921  66.533   4.926  -0.348  58.376
 Approx polarizability:  98.674   3.159  72.264   8.679  -4.503  75.107

 ******    1 imaginary frequencies (negative Signs) ******

                      1                      2                      3
                      A                      A                      A
 Frequencies --    -35.9330                37.6221               107.7678
 Red. masses --      4.4365                 4.7843                 3.4375
 Frc consts  --      0.0034                 0.0040                 0.0235
 IR Inten    --      3.0265                 3.1055                10.6308

                      4                      5                      6
                      A                      A                      A
 Frequencies --    129.8125               146.2854               175.2179
 Red. masses --      3.6671                 3.2394                 5.6400
 Frc consts  --      0.0364                 0.0408                 0.1020
 IR Inten    --      6.3569                13.9856                 4.3401

                      7                      8                      9
                      A                      A                      A
 Frequencies --    195.0595               226.4107               253.8187
 Red. masses --      1.4605                 1.5830                 2.1707
 Frc consts  --      0.0327                 0.0478                 0.0824
 IR Inten    --     39.5499                 4.2965                25.4158

                     10                     11                     12
                      A                      A                      A
 Frequencies --    340.1810               425.3878               552.5882
 Red. masses --      2.9188                 3.9151                 2.6144
 Frc consts  --      0.1990                 0.4174                 0.4703
 IR Inten    --     12.9008                 0.9319                21.6836

                     13                     14                     15
                      A                      A                      A
 Frequencies --    577.8240               623.4611               730.9247
 Red. masses --      1.6584                 2.9628                 1.3138
 Frc consts  --      0.3262                 0.6785                 0.4135
 IR Inten    --     47.8705                42.5140                37.1426

                     16                     17                     18
                      A                      A                      A
 Frequencies --    741.2124               776.0895               803.0966
 Red. masses --      1.3270                 7.8684                 1.2152
 Frc consts  --      0.4295                 2.7923                 0.4618
 IR Inten    --     21.3281                49.4892                 5.3232

                     19                     20                     21
                      A                      A                      A
 Frequencies --    896.6388               927.5693              1077.1096
 Red. masses --      3.2217                 2.7435                 4.1244
 Frc consts  --      1.5260                 1.3907                 2.8192
 IR Inten    --     14.4979                 4.9844                22.3685

                     22                     23                     24
                      A                      A                      A
 Frequencies --   1128.9402              1203.8173              1283.7003
 Red. masses --      2.0985                 1.7770                 4.3146
 Frc consts  --      1.5758                 1.5173                 4.1891
 IR Inten    --     22.2474                 5.7900               577.7548

                     25                     26                     27
                      A                      A                      A
 Frequencies --   1346.1896              1401.6495              1431.6619
 Red. masses --      1.2083                 1.2725                 1.3749
 Frc consts  --      1.2901                 1.4729                 1.6604
 IR Inten    --     75.9199                23.6493                11.0298

                     28                     29                     30
                      A                      A                      A
 Frequencies --   1491.3972              1502.4662              1514.4652
 Red. masses --      1.0409                 1.0564                 1.0895
 Frc consts  --      1.3640                 1.4051                 1.4723
 IR Inten    --     10.4451                 1.5384                19.9755

                     31                     32                     33
                      A                      A                      A
 Frequencies --   1852.2364              2230.0569              3075.6481
 Red. masses --     12.0831                 5.9039                 1.0355
 Frc consts  --     24.4244                17.2989                 5.7713
 IR Inten    --    336.2710                67.3976                10.0951

                     34                     35                     36
                      A                      A                      A
 Frequencies --   3106.5301              3150.1801              3155.3438
 Red. masses --      1.0606                 1.1019                 1.1047
 Frc consts  --      6.0305                 6.4427                 6.4803
 IR Inten    --     19.6639                14.2420                 3.8680

                     37                     38                     39
                      A                      A                      A
 Frequencies --   3174.7904              3487.7936              3797.8671
 Red. masses --      1.1070                 1.1648                 1.0673
 Frc consts  --      6.5737                 8.3481                 9.0698
 IR Inten    --     14.5082                68.0531                35.8426

 - Thermochemistry -
 -------------------
 Temperature   298.150 Kelvin.  Pressure   1.00000 Atm.
 Atom     1 has atomic number  6 and mass  12.00000

 Molecular mass:   115.03952 amu.
 Principal axes and moments of inertia in atomic units:
                           1         2         3
     Eigenvalues --   517.983641383.322631555.68633
           X            0.99990   0.01214   0.00784
           Y           -0.01226   0.99981   0.01539
           Z           -0.00765  -0.01548   0.99985
 This molecule is an asymmetric top.
 Rotational symmetry number  1.
 Warning -- assumption of classical behavior for rotation
           may cause significant error
 Rotational temperatures (Kelvin)      0.16721     0.06261     0.05568
 Rotational constants (GHZ):           3.48417     1.30464     1.16009
    1 imaginary frequencies ignored.
 Zero-point vibrational energy     293556.5 (Joules/Mol)
                                   70.16168 (Kcal/Mol)
 Warning -- explicit consideration of  12 degrees of freedom as
           vibrations may cause significant error
 Vibrational temperatures:     54.13   155.05   186.77   210.47   252.10
          (Kelvin)            280.65   325.75   365.19   489.44   612.04
                              795.05   831.36   897.02  1051.64  1066.44
                             1116.62  1155.48  1290.06  1334.57  1549.72
                             1624.29  1732.02  1846.96  1936.87  2016.66
                             2059.84  2145.79  2161.71  2178.98  2664.96
                             3208.55  4425.17  4469.60  4532.41  4539.84
                             4567.82  5018.16  5464.28

 Zero-point correction=                           0.111810 (Hartree/Particle)
 Thermal correction to Energy=                    0.121470
 Thermal correction to Enthalpy=                  0.122414
 Thermal correction to Gibbs Free Energy=         0.076048
 Sum of electronic and zero-point Energies=           -420.093609
 Sum of electronic and thermal Energies=              -420.083948
 Sum of electronic and thermal Enthalpies=            -420.083004
 Sum of electronic and thermal Free Energies=         -420.129370

                     E (Thermal)             CV                S
                      KCal/Mol        Cal/Mol-Kelvin    Cal/Mol-Kelvin
 Total                   76.224             32.519             97.585
 Electronic               0.000              0.000              1.377
 Translational            0.889              2.981             40.136
 Rotational               0.889              2.981             28.501
 Vibrational             74.446             26.557             27.571
 Vibration     1          0.594              1.982              5.381
 Vibration     2          0.606              1.943              3.309
 Vibration     3          0.612              1.923              2.949
 Vibration     4          0.617              1.907              2.720
 Vibration     5          0.627              1.873              2.379
 Vibration     6          0.636              1.847              2.179
 Vibration     7          0.650              1.801              1.907
 Vibration     8          0.665              1.756              1.704
 Vibration     9          0.720              1.595              1.211
 Vibration    10          0.787              1.415              0.874
 Vibration    11          0.908              1.134              0.539
 Vibration    12          0.934              1.079              0.489

 1\1\GINC-AJ\Freq\UM062X\6-311++G(d,p)\C5H7O3(2)\AAYUSH\16-Aug-2025\0\\
 # freq 6-311++g(d,p) m062x\\Title Card Required\\0,2\C,2.74951,-0.4055
 92,0.417252\H,3.795114,-0.410352,0.619849\C,1.572778,-0.369979,0.16894
 8\C,0.16077,-0.591071,-0.137073\O,-0.21046,-1.142958,-1.132389\O,-0.62
 0484,-0.14959,0.84765\C,-2.039763,-0.300563,0.63805\C,-2.564956,0.7854
 75,-0.279139\H,-2.464815,-0.2287,1.637641\H,-2.229205,-1.295083,0.2325
 6\H,-3.647654,0.688505,-0.380586\H,-2.340924,1.771149,0.131187\H,-2.11
 544,0.702215,-1.268766\O,1.395527,1.746938,-0.41425\H,1.491249,2.05951

 Normal termination of Gaussian 16 at Sat Aug 16 20:53:15 2025.
