 Gaussian 16, Revision A.03,
 Gaussian 16:  ES64L-G16RevA.03 25-Dec-2016

 -------------------
 # freq 6-31+g m062x
 -------------------

 -------------------
 Title Card Required
 -------------------
 Symbolic Z-matrix:
 Charge =  0 Multiplicity = 2

                         Standard orientation:
 ---------------------------------------------------------------------
 Center     Atomic      Atomic             Coordinates (Angstroms)
 Number     Number       Type             X           Y           Z
 ---------------------------------------------------------------------
      1          6           0       -2.802681   -0.436694   -0.400884
      2          1           0       -3.845501   -0.479418   -0.614701
      3          6           0       -1.629798   -0.299951   -0.126558
      4          6           0       -0.220310   -0.601366    0.155840
      5          8           0        0.142934   -1.168348    1.144700
      6          8           0        0.560432   -0.180877   -0.836290
      7          6           0        1.979780   -0.331698   -0.625919
      8          6           0        2.503059    0.759259    0.287010
      9          1           0        2.404870   -0.263416   -1.625650
     10          1           0        2.169767   -1.324489   -0.216646
     11          1           0        3.585712    0.663311    0.389758
     12          1           0        2.278066    1.742860   -0.127528
     13          1           0        2.053101    0.680250    1.276885
     14          8           0       -1.462026    1.652653    0.400898
     15          1           0       -1.557035    2.016175   -0.493506
 ---------------------------------------------------------------------

 SCF Done:  E(UM062X) =  -419.953878657     A.U. after   23 cycles

 The electronic state is 2-A.
 Alpha  occ. eigenvalues --  -19.70735 -19.68450 -19.66368 -10.73077 -10.61639
 Alpha  occ. eigenvalues --  -10.60910 -10.60077 -10.54468  -1.28156  -1.18829
 Alpha  occ. eigenvalues --   -1.13165  -0.91857  -0.88307  -0.78762  -0.71378
 Alpha  occ. eigenvalues --   -0.64845  -0.62536  -0.58908  -0.57163  -0.54235
 Alpha  occ. eigenvalues --   -0.53653  -0.50126  -0.48761  -0.46532  -0.45307
 Alpha  occ. eigenvalues --   -0.42092  -0.41642  -0.39092  -0.38330  -0.37178
 Alpha  occ. eigenvalues --   -0.34230
 Alpha virt. eigenvalues --   -0.00886   0.01812   0.02314   0.03396   0.03633
 Alpha virt. eigenvalues --    0.03770   0.05143   0.06364   0.07485   0.07967
 Alpha virt. eigenvalues --    0.08495   0.09015   0.09593   0.11862   0.12565

  Beta  occ. eigenvalues --  -19.70739 -19.66970 -19.66390 -10.73048 -10.61639
  Beta  occ. eigenvalues --  -10.60970 -10.59830 -10.54468  -1.28163  -1.18862
  Beta  occ. eigenvalues --   -1.07409  -0.91332  -0.87914  -0.78577  -0.71167
  Beta  occ. eigenvalues --   -0.64759  -0.61994  -0.58767  -0.56984  -0.53976
  Beta  occ. eigenvalues --   -0.51373  -0.49260  -0.46905  -0.45334  -0.42065
  Beta  occ. eigenvalues --   -0.40901  -0.38839  -0.38353  -0.36928  -0.36741
  Beta virt. eigenvalues --   -0.09591   0.00125   0.01822   0.02403   0.03455
  Beta virt. eigenvalues --    0.03679   0.04041   0.05077   0.06415   0.07573
  Beta virt. eigenvalues --    0.07897   0.08590   0.09013   0.09689   0.12090

 Mulliken charges and spin densities:
               1          2
     1  C    0.140511   0.375378
     2  H    0.318948  -0.014240
     3  C   -0.313357  -0.148193
     4  C    0.098007   0.036362
     5  O   -0.328928  -0.009179
     6  O   -0.206173  -0.003756
     7  C   -0.249623  -0.000691
     8  C   -0.556006   0.001200
     9  H    0.219377  -0.000008
    10  H    0.235496  -0.000162
    11  H    0.206766  -0.000036
    12  H    0.219767  -0.000042
    13  H    0.242664  -0.000023
    14  O   -0.439193   0.792374
    15  H    0.411742  -0.028983
 Sum of Mulliken charges =  -0.00000   1.00000

 Dipole moment (field-independent basis, Debye):
    X=              0.1075    Y=              0.4813    Z=             -3.2801  Tot=              3.3169
 Quadrupole moment (field-independent basis, Debye-Ang):
   XX=            -32.8136   YY=            -48.5635   ZZ=            -52.4373
   XY=              1.3720   XZ=              3.6080   YZ=             -0.4092

  Exact polarizability:  86.687   7.166  69.902   5.363   0.890  56.197
 Approx polarizability:  91.300   7.198  70.495   9.955  -4.163  69.639

 ******    4 imaginary frequencies (negative Signs) ******

                      1                      2                      3
                      A                      A                      A
 Frequencies --   -506.5873              -447.5780              -118.5661
 Red. masses --      1.0947                 8.8192                 6.2504
 Frc consts  --      0.1655                 1.0409                 0.0518
 IR Inten    --    114.9435                40.7851                 2.7508

                      4                      5                      6
                      A                      A                      A
 Frequencies --    -36.0349                38.4336                92.2614
 Red. masses --      3.7940                 2.7651                 3.5019
 Frc consts  --      0.0029                 0.0024                 0.0176
 IR Inten    --      3.9139                 1.1065                 5.7291

                      7                      8                      9
                      A                      A                      A
 Frequencies --    149.6599               178.7702               211.7263
 Red. masses --      5.0894                 1.3751                 4.2096
 Frc consts  --      0.0672                 0.0259                 0.1112
 IR Inten    --      1.3321                 2.0575                 0.6702

                     10                     11                     12
                      A                      A                      A
 Frequencies --    310.9993               417.9681               498.1780
 Red. masses --      2.9129                 3.6953                 1.2585
 Frc consts  --      0.1660                 0.3804                 0.1840
 IR Inten    --     14.4702                 1.1873                88.0941

                     13                     14                     15
                      A                      A                      A
 Frequencies --    569.8387               633.0858               681.1985
 Red. masses --      3.8448                 3.8632                 1.4496
 Frc consts  --      0.7356                 0.9123                 0.3963
 IR Inten    --      5.3859                43.1773                13.3389

                     16                     17                     18
                      A                      A                      A
 Frequencies --    723.3782               757.4046               817.2647
 Red. masses --      4.3506                 1.4274                 1.2819
 Frc consts  --      1.3413                 0.4824                 0.5045
 IR Inten    --     75.0219                50.3419                 7.0488

                     19                     20                     21
                      A                      A                      A
 Frequencies --    898.0525               942.5251              1109.3836
 Red. masses --      3.3720                 2.4995                 4.1892
 Frc consts  --      1.6023                 1.3083                 3.0377
 IR Inten    --     19.8489                 5.6124                10.2638

                     22                     23                     24
                      A                      A                      A
 Frequencies --   1158.0561              1227.8268              1319.7723
 Red. masses --      2.0861                 1.7580                 2.3992
 Frc consts  --      1.6483                 1.5615                 2.4622
 IR Inten    --     16.6867                 6.9144               378.1505

                     25                     26                     27
                      A                      A                      A
 Frequencies --   1366.6802              1441.3109              1458.1764
 Red. masses --      1.5584                 1.3540                 1.2544
 Frc consts  --      1.7150                 1.6572                 1.5715
 IR Inten    --    211.5208                25.2651                20.1226

                     28                     29                     30
                      A                      A                      A
 Frequencies --   1526.7886              1536.9609              1544.6783
 Red. masses --      1.0414                 1.0542                 1.0884
 Frc consts  --      1.4303                 1.4672                 1.5301
 IR Inten    --     14.6506                 3.0619                26.8953

                     31                     32                     33
                      A                      A                      A
 Frequencies --   1920.9841              2216.7236              3107.6073
 Red. masses --     12.2674                 6.0105                 1.0352
 Frc consts  --     26.6716                17.4014                 5.8901
 IR Inten    --    319.1636                88.0161                12.1079

                     34                     35                     36
                      A                      A                      A
 Frequencies --   3138.0510              3186.8940              3191.1324
 Red. masses --      1.0601                 1.1008                 1.1024
 Frc consts  --      6.1506                 6.5868                 6.6142
 IR Inten    --     20.9786                13.1319                 7.7193

                     37                     38                     39
                      A                      A                      A
 Frequencies --   3211.6113              3520.7689              3827.7940
 Red. masses --      1.1050                 1.1608                 1.0672
 Frc consts  --      6.7152                 8.4776                 9.2127
 IR Inten    --     16.5868                62.7651                18.7850

 - Thermochemistry -
 -------------------
 Temperature   298.150 Kelvin.  Pressure   1.00000 Atm.
 Atom     1 has atomic number  6 and mass  12.00000

 Molecular mass:   115.03952 amu.
 Principal axes and moments of inertia in atomic units:
                           1         2         3
     Eigenvalues --   499.735381379.764881537.29998
           X            0.99989   0.01234   0.00838
           Y           -0.01251   0.99971   0.02037
           Z           -0.00813  -0.02047   0.99976
 This molecule is an asymmetric top.
 Rotational symmetry number  1.
 Warning -- assumption of classical behavior for rotation
           may cause significant error
 Rotational temperatures (Kelvin)      0.17332     0.06277     0.05634
 Rotational constants (GHZ):           3.61139     1.30801     1.17397
    4 imaginary frequencies ignored.
 Zero-point vibrational energy     292678.0 (Joules/Mol)
                                   69.95173 (Kcal/Mol)
 Warning -- explicit consideration of   9 degrees of freedom as
           vibrations may cause significant error
 Vibrational temperatures:     55.30   132.74   215.33   257.21   304.63
          (Kelvin)            447.46   601.36   716.77   819.87   910.87
                              980.09  1040.78  1089.74  1175.86  1292.10
                             1356.08  1596.16  1666.18  1766.57  1898.86
                             1966.35  2073.72  2097.99  2196.71  2211.34
                             2222.45  2763.87  3189.37  4471.15  4514.96
                             4585.23  4591.33  4620.79  5065.60  5507.34

 Zero-point correction=                           0.111475 (Hartree/Particle)
 Thermal correction to Energy=                    0.119535
 Thermal correction to Enthalpy=                  0.120479
 Thermal correction to Gibbs Free Energy=         0.077081
 Sum of electronic and zero-point Energies=           -419.842403
 Sum of electronic and thermal Energies=              -419.834343
 Sum of electronic and thermal Enthalpies=            -419.833399
 Sum of electronic and thermal Free Energies=         -419.876798

                     E (Thermal)             CV                S
                      KCal/Mol        Cal/Mol-Kelvin    Cal/Mol-Kelvin
 Total                   75.010             27.182             91.340
 Electronic               0.000              0.000              1.377
 Translational            0.889              2.981             40.136
 Rotational               0.889              2.981             28.451
 Vibrational             73.232             21.221             21.375
 Vibration     1          0.594              1.982              5.338
 Vibration     2          0.602              1.955              3.612
 Vibration     3          0.618              1.903              2.677
 Vibration     4          0.629              1.868              2.341
 Vibration     5          0.643              1.823              2.029
 Vibration     6          0.700              1.653              1.357
 Vibration     7          0.781              1.431              0.899
 Vibration     8          0.854              1.254              0.663
 Vibration     9          0.926              1.096              0.505

 Normal termination of Gaussian 16 at Fri Jun 20 13:50:37 2025.
