 Gaussian 16, Revision A.03,
 Gaussian 16:  ES64L-G16RevA.03 25-Dec-2016

 -------------------
 # freq 6-31+g m062x
 -------------------

 -------------------
 Title Card Required
 -------------------
 Symbolic Z-matrix:
 Charge =  0 Multiplicity = 2

                         Standard orientation:
 ---------------------------------------------------------------------
 Center     Atomic      Atomic             Coordinates (Angstroms)
 Number     Number       Type             X           Y           Z
 ---------------------------------------------------------------------
      1          6           0       -2.800320   -0.436985   -0.405452
      2          1           0       -3.842503   -0.485240   -0.622314
      3          6           0       -1.628087   -0.258120   -0.118240
      4          6           0       -0.219837   -0.599524    0.151650
      5          8           0        0.140828   -1.178568    1.134035
      6          8           0        0.560812   -0.174664   -0.837832
      7          6           0        1.980348   -0.326660   -0.628034
      8          6           0        2.502591    0.757190    0.294011
      9          1           0        2.405712   -0.249998   -1.627001
     10          1           0        2.170543   -1.322708   -0.226904
     11          1           0        3.585203    0.660460    0.396484
     12          1           0        2.277383    1.744018   -0.112538
     13          1           0        2.052178    0.670264    1.283028
     14          8           0       -1.464274    1.622831    0.406621
     15          1           0       -1.555613    2.011007   -0.476956
 ---------------------------------------------------------------------

 SCF Done:  E(UM062X) =  -419.953183501     A.U. after   22 cycles

 The electronic state is 2-A.
 Alpha  occ. eigenvalues --  -19.70802 -19.67786 -19.66499 -10.73158 -10.61823
 Alpha  occ. eigenvalues --  -10.61679 -10.60561 -10.54476  -1.28265  -1.18937
 Alpha  occ. eigenvalues --   -1.12594  -0.92093  -0.88446  -0.78844  -0.71490
 Alpha  occ. eigenvalues --   -0.64947  -0.62781  -0.59048  -0.57273  -0.54186
 Alpha  occ. eigenvalues --   -0.53496  -0.49870  -0.48644  -0.46516  -0.45347
 Alpha  occ. eigenvalues --   -0.42131  -0.41405  -0.38862  -0.38338  -0.37375
 Alpha  occ. eigenvalues --   -0.33413
 Alpha virt. eigenvalues --   -0.00831   0.01748   0.02269   0.03159   0.03645
 Alpha virt. eigenvalues --    0.03789   0.05125   0.06377   0.07460   0.07929
 Alpha virt. eigenvalues --    0.08508   0.09015   0.09559   0.11722   0.12570

  Beta  occ. eigenvalues --  -19.70805 -19.66522 -19.66433 -10.73120 -10.61921
  Beta  occ. eigenvalues --  -10.61679 -10.60234 -10.54477  -1.28268  -1.18970
  Beta  occ. eigenvalues --   -1.07641  -0.91409  -0.87963  -0.78596  -0.71193
  Beta  occ. eigenvalues --   -0.64827  -0.62117  -0.58898  -0.57094  -0.53998
  Beta  occ. eigenvalues --   -0.51382  -0.49206  -0.46915  -0.45356  -0.42090
  Beta  occ. eigenvalues --   -0.41310  -0.39016  -0.38442  -0.36830  -0.36509
  Beta virt. eigenvalues --   -0.09887   0.00313   0.01729   0.02378   0.03248
  Beta virt. eigenvalues --    0.03686   0.04038   0.05031   0.06373   0.07555
  Beta virt. eigenvalues --    0.07852   0.08585   0.08963   0.09657   0.11995

 Mulliken charges and spin densities:
               1          2
     1  C    0.249165   0.533045
     2  H    0.312613  -0.019246
     3  C   -0.366685  -0.220841
     4  C    0.068250   0.037751
     5  O   -0.329969  -0.009985
     6  O   -0.205364  -0.003760
     7  C   -0.250980  -0.000138
     8  C   -0.556270   0.001242
     9  H    0.219814  -0.000009
    10  H    0.235816  -0.000193
    11  H    0.206725  -0.000053
    12  H    0.220685  -0.000028
    13  H    0.242373  -0.000001
    14  O   -0.459227   0.707057
    15  H    0.413054  -0.024841
 Sum of Mulliken charges =  -0.00000   1.00000

 Dipole moment (field-independent basis, Debye):
    X=              0.0845    Y=              0.2938    Z=             -3.3220  Tot=              3.3360
 Quadrupole moment (field-independent basis, Debye-Ang):
   XX=            -32.6062   YY=            -48.8773   ZZ=            -52.4355
   XY=              1.7077   XZ=              3.7302   YZ=             -0.4144

  Exact polarizability:  86.341   7.674  71.432   5.462   1.503  56.343
 Approx polarizability:  90.317   8.572  73.874  10.042  -3.094  69.885

 ******    4 imaginary frequencies (negative Signs) ******

                      1                      2                      3
                      A                      A                      A
 Frequencies --   -618.4227              -509.2211              -107.0069
 Red. masses --     12.3403                 1.0674                 6.6220
 Frc consts  --      2.7807                 0.1631                 0.0447
 IR Inten    --     44.9122               120.3592                 2.0700

                      4                      5                      6
                      A                      A                      A
 Frequencies --    -25.2917                39.2448               105.3321
 Red. masses --      3.3563                 2.9305                 3.1954
 Frc consts  --      0.0013                 0.0027                 0.0209
 IR Inten    --      4.1436                 1.5479                 5.3226

                      7                      8                      9
                      A                      A                      A
 Frequencies --    172.0719               180.8458               231.2654
 Red. masses --      3.8155                 1.5802                 4.0306
 Frc consts  --      0.0666                 0.0305                 0.1270
 IR Inten    --      3.0633                 1.2147                 1.2776

                     10                     11                     12
                      A                      A                      A
 Frequencies --    311.2425               419.9498               548.6040
 Red. masses --      2.9435                 3.7218                 2.1986
 Frc consts  --      0.1680                 0.3867                 0.3899
 IR Inten    --     14.6932                 1.5266                38.8724

                     13                     14                     15
                      A                      A                      A
 Frequencies --    578.4237               629.8185               665.0367
 Red. masses --      2.9808                 1.3534                 1.8652
 Frc consts  --      0.5876                 0.3163                 0.4860
 IR Inten    --      7.6293                30.0538                89.1486

                     16                     17                     18
                      A                      A                      A
 Frequencies --    716.9270               751.0664               816.6673
 Red. masses --      5.0945                 1.4937                 1.2910
 Frc consts  --      1.5428                 0.4964                 0.5073
 IR Inten    --     47.1048                45.9790                 7.7780

                     19                     20                     21
                      A                      A                      A
 Frequencies --    896.7770               940.3916              1107.7530
 Red. masses --      3.3470                 2.4906                 4.1959
 Frc consts  --      1.5859                 1.2977                 3.0336
 IR Inten    --     20.6388                 5.2507                11.0719

                     22                     23                     24
                      A                      A                      A
 Frequencies --   1157.6349              1227.5304              1317.6649
 Red. masses --      2.0779                 1.7558                 2.4946
 Frc consts  --      1.6407                 1.5588                 2.5518
 IR Inten    --     16.2816                 7.6733               384.2456

                     25                     26                     27
                      A                      A                      A
 Frequencies --   1365.7681              1440.8299              1458.3989
 Red. masses --      1.5272                 1.3509                 1.2514
 Frc consts  --      1.6785                 1.6523                 1.5682
 IR Inten    --    197.6779                22.7382                20.5825

                     28                     29                     30
                      A                      A                      A
 Frequencies --   1526.7462              1536.8475              1544.7728
 Red. masses --      1.0413                 1.0532                 1.0892
 Frc consts  --      1.4300                 1.4656                 1.5314
 IR Inten    --     14.7998                 3.1036                26.5863

                     31                     32                     33
                      A                      A                      A
 Frequencies --   1920.9658              2152.2757              3107.7559
 Red. masses --     12.1871                 6.2890                 1.0352
 Frc consts  --     26.4967                17.1645                 5.8906
 IR Inten    --    319.6819                87.3342                11.7936

                     34                     35                     36
                      A                      A                      A
 Frequencies --   3138.4272              3187.3952              3191.2044
 Red. masses --      1.0601                 1.1007                 1.1024
 Frc consts  --      6.1523                 6.5887                 6.6144
 IR Inten    --     20.8757                12.9892                 7.4571

                     37                     38                     39
                      A                      A                      A
 Frequencies --   3211.8395              3513.7755              3837.3620
 Red. masses --      1.1051                 1.1518                 1.0672
 Frc consts  --      6.7165                 8.3789                 9.2590
 IR Inten    --     16.4160                64.6022                22.5917

 - Thermochemistry -
 -------------------
 Temperature   298.150 Kelvin.  Pressure   1.00000 Atm.
 Atom     1 has atomic number  6 and mass  12.00000

 Molecular mass:   115.03952 amu.
 Principal axes and moments of inertia in atomic units:
                           1         2         3
     Eigenvalues --   493.291211378.591191530.90978
           X            0.99989   0.01239   0.00856
           Y           -0.01258   0.99967   0.02239
           Z           -0.00828  -0.02250   0.99971
 This molecule is an asymmetric top.
 Rotational symmetry number  1.
 Warning -- assumption of classical behavior for rotation
           may cause significant error
 Rotational temperatures (Kelvin)      0.17558     0.06283     0.05658
 Rotational constants (GHZ):           3.65857     1.30912     1.17887
    4 imaginary frequencies ignored.
 Zero-point vibrational energy     292777.7 (Joules/Mol)
                                   69.97555 (Kcal/Mol)
 Warning -- explicit consideration of   9 degrees of freedom as
           vibrations may cause significant error
 Vibrational temperatures:     56.46   151.55   247.57   260.20   332.74
          (Kelvin)            447.81   604.21   789.32   832.22   906.17
                              956.84  1031.50  1080.62  1175.00  1290.26
                             1353.01  1593.81  1665.58  1766.14  1895.83
                             1965.04  2073.03  2098.31  2196.65  2211.18
                             2222.58  2763.84  3096.64  4471.37  4515.50
                             4585.95  4591.43  4621.12  5055.54  5521.11

 Zero-point correction=                           0.111513 (Hartree/Particle)
 Thermal correction to Energy=                    0.119448
 Thermal correction to Enthalpy=                  0.120392
 Thermal correction to Gibbs Free Energy=         0.077402
 Sum of electronic and zero-point Energies=           -419.841670
 Sum of electronic and thermal Energies=              -419.833735
 Sum of electronic and thermal Enthalpies=            -419.832791
 Sum of electronic and thermal Free Energies=         -419.875781

                     E (Thermal)             CV                S
                      KCal/Mol        Cal/Mol-Kelvin    Cal/Mol-Kelvin
 Total                   74.955             27.051             90.480
 Electronic               0.000              0.000              1.377
 Translational            0.889              2.981             40.136
 Rotational               0.889              2.981             28.434
 Vibrational             73.177             21.089             20.533
 Vibration     1          0.594              1.981              5.297
 Vibration     2          0.605              1.945              3.353
 Vibration     3          0.626              1.877              2.413
 Vibration     4          0.630              1.866              2.320
 Vibration     5          0.653              1.793              1.869
 Vibration     6          0.700              1.652              1.356
 Vibration     7          0.783              1.427              0.892
 Vibration     8          0.904              1.143              0.547
 Vibration     9          0.935              1.078              0.488

 Normal termination of Gaussian 16 at Fri Jun 20 13:53:45 2025.
