 Gaussian 16, Revision A.03,
 Gaussian 16:  ES64L-G16RevA.03 25-Dec-2016

 --------------------------
 # ccsd(t)/6-311++g(d,p) sp
 --------------------------

 -------------------
 Title Card Required
 -------------------
 Symbolic Z-matrix:
 Charge =  0 Multiplicity = 2

                         Standard orientation:
 ---------------------------------------------------------------------
 Center     Atomic      Atomic             Coordinates (Angstroms)
 Number     Number       Type             X           Y           Z
 ---------------------------------------------------------------------
      1          6           0       -2.797537   -0.439658   -0.412753
      2          1           0       -3.839669   -0.486096   -0.631697
      3          6           0       -1.625253   -0.194459   -0.104489
      4          6           0       -0.219835   -0.598754    0.144829
      5          8           0        0.138398   -1.193457    1.118287
      6          8           0        0.561272   -0.165310   -0.839984
      7          6           0        1.981030   -0.319019   -0.631224
      8          6           0        2.502025    0.754009    0.304219
      9          1           0        2.406841   -0.230030   -1.628937
     10          1           0        2.171469   -1.319772   -0.242151
     11          1           0        3.584588    0.656114    0.406128
     12          1           0        2.276604    1.745558   -0.090416
     13          1           0        2.051052    0.655314    1.291880
     14          8           0       -1.467255    1.579390    0.414696
     15          1           0       -1.552789    2.001211   -0.452286
 ---------------------------------------------------------------------

 SCF Done:  E(UHF) =  -417.976393231     A.U. after   30 cycles
 E2 =    -0.1257552980D+01 EUMP2 =    -0.41923394621058D+03
 CCSD(T)= -0.41935660055D+03

 The electronic state is 2-A.
 Alpha  occ. eigenvalues --  -20.61230 -20.61131 -20.55756 -11.41305 -11.29698
 Alpha  occ. eigenvalues --  -11.28063 -11.27683 -11.22437  -1.48193  -1.37881
 Alpha  occ. eigenvalues --   -1.36891  -1.08328  -1.04513  -0.92748  -0.83820
 Alpha  occ. eigenvalues --   -0.76640  -0.73222  -0.69557  -0.68388  -0.65776
 Alpha  occ. eigenvalues --   -0.62911  -0.62740  -0.57915  -0.55018  -0.54001
 Alpha  occ. eigenvalues --   -0.53065  -0.50436  -0.47593  -0.46000  -0.43774
 Alpha  occ. eigenvalues --   -0.42079
 Alpha virt. eigenvalues --    0.03679   0.04411   0.05652   0.06284   0.07333
 Alpha virt. eigenvalues --    0.08802   0.09576   0.10629   0.11168   0.11966
 Alpha virt. eigenvalues --    0.13437   0.13653   0.14200   0.15984   0.16521

  Beta  occ. eigenvalues --  -20.61236 -20.57877 -20.56145 -11.40928 -11.30212
  Beta  occ. eigenvalues --  -11.29699 -11.25049 -11.22440  -1.48344  -1.38503
  Beta  occ. eigenvalues --   -1.26106  -1.07653  -1.03449  -0.91470  -0.82824
  Beta  occ. eigenvalues --   -0.76345  -0.71841  -0.69787  -0.67548  -0.63923
  Beta  occ. eigenvalues --   -0.62647  -0.58199  -0.55574  -0.54113  -0.50989
  Beta  occ. eigenvalues --   -0.50439  -0.48179  -0.47097  -0.45184  -0.42736
  Beta virt. eigenvalues --    0.03736   0.04318   0.04589   0.06268   0.06822
  Beta virt. eigenvalues --    0.07788   0.09166   0.09573   0.10494   0.12053
  Beta virt. eigenvalues --    0.12399   0.13639   0.13938   0.15751   0.16220

 Mulliken charges and spin densities:
               1          2
     1  C   -0.113399   1.430560
     2  H    0.231729  -0.099224
     3  C    0.259786  -1.156086
     4  C   -0.310655   0.177632
     5  O   -0.271713  -0.079893
     6  O   -0.081580   0.002837
     7  C   -0.169456   0.002164
     8  C   -0.391865   0.001407
     9  H    0.161284  -0.000035
    10  H    0.177088  -0.000020
    11  H    0.137206  -0.000129
    12  H    0.140751  -0.000117
    13  H    0.185580  -0.001026
    14  O   -0.191499   0.746094
    15  H    0.236743  -0.024164
 Sum of Mulliken charges =  -0.00000   1.00000

 Dipole moment (field-independent basis, Debye):
    X=             -0.0442    Y=              0.8755    Z=             -3.2142  Tot=              3.3316
 Quadrupole moment (field-independent basis, Debye-Ang):
   XX=            -33.4449   YY=            -48.0348   ZZ=            -51.5816
   XY=              0.8317   XZ=              3.1927   YZ=              0.0436

 825\PMP3-0=-419.2838684\MP4SDQ=-419.2928547\CCSD=-419.3015129\CCSD(T)=
 Normal termination of Gaussian 16 at Fri Aug 29 08:24:32 2025.
