 Gaussian 16, Revision A.03,
 Gaussian 16:  ES64L-G16RevA.03 25-Dec-2016

 --------------------------
 # freq 6-311++g(d,p) m062x
 --------------------------

 -------------------
 Title Card Required
 -------------------
 Symbolic Z-matrix:
 Charge =  0 Multiplicity = 2

                         Standard orientation:
 ---------------------------------------------------------------------
 Center     Atomic      Atomic             Coordinates (Angstroms)
 Number     Number       Type             X           Y           Z
 ---------------------------------------------------------------------
      1          6           0       -2.807636   -0.438372   -0.394392
      2          1           0       -3.852188   -0.463825   -0.601118
      3          6           0       -1.632350   -0.360756   -0.137866
      4          6           0       -0.221248   -0.607353    0.161389
      5          8           0        0.147135   -1.152302    1.161272
      6          8           0        0.559348   -0.190432   -0.833761
      7          6           0        1.978621   -0.339095   -0.622837
      8          6           0        2.504002    0.762290    0.275993
      9          1           0        2.402995   -0.283679   -1.623727
     10          1           0        2.168231   -1.326833   -0.201244
     11          1           0        3.586735    0.667153    0.378675
     12          1           0        2.279445    1.740935   -0.150499
     13          1           0        2.055009    0.695497    1.267158
     14          8           0       -1.458066    1.698990    0.391991
     15          1           0       -1.555896    2.020423   -0.518981
 ---------------------------------------------------------------------

 SCF Done:  E(UM062X) =  -420.203864337     A.U. after   24 cycles

 The electronic state is 2-A.
 Alpha  occ. eigenvalues --  -19.68248 -19.66707 -19.63100 -10.70622 -10.60562
 Alpha  occ. eigenvalues --  -10.58320 -10.57931 -10.53612  -1.25666  -1.16418
 Alpha  occ. eigenvalues --   -1.12673  -0.90842  -0.87410  -0.78155  -0.70684
 Alpha  occ. eigenvalues --   -0.64547  -0.61859  -0.58613  -0.56858  -0.54682
 Alpha  occ. eigenvalues --   -0.53404  -0.50330  -0.48804  -0.46267  -0.45239
 Alpha  occ. eigenvalues --   -0.42172  -0.41979  -0.39236  -0.38478  -0.36677
 Alpha  occ. eigenvalues --   -0.35047
 Alpha virt. eigenvalues --   -0.00882  -0.00498   0.00497   0.01340   0.02195
 Alpha virt. eigenvalues --    0.02828   0.03594   0.04552   0.05436   0.06078
 Alpha virt. eigenvalues --    0.07149   0.07894   0.07945   0.10136   0.10577

  Beta  occ. eigenvalues --  -19.68253 -19.65191 -19.63116 -10.70605 -10.60562
  Beta  occ. eigenvalues --  -10.58325 -10.57782 -10.53612  -1.25673  -1.16454
  Beta  occ. eigenvalues --   -1.05882  -0.90443  -0.87054  -0.77993  -0.70524
  Beta  occ. eigenvalues --   -0.64485  -0.61489  -0.58547  -0.56582  -0.53484
  Beta  occ. eigenvalues --   -0.51895  -0.49188  -0.46667  -0.45274  -0.41978
  Beta  occ. eigenvalues --   -0.40512  -0.38769  -0.38094  -0.37626  -0.36360
  Beta virt. eigenvalues --   -0.09080  -0.00432  -0.00058   0.00591   0.01662
  Beta virt. eigenvalues --    0.02263   0.02935   0.03568   0.04673   0.05533
  Beta virt. eigenvalues --    0.06086   0.07231   0.07783   0.08017   0.10276

 Mulliken charges and spin densities:
               1          2
     1  C   -1.044622   0.252807
     2  H    0.191788  -0.011475
     3  C    1.078674  -0.102076
     4  C   -0.260496   0.030178
     5  O   -0.189304  -0.007340
     6  O    0.001359  -0.002479
     7  C   -0.270754  -0.001056
     8  C   -0.424869   0.001397
     9  H    0.192796   0.000112
    10  H    0.193835  -0.000060
    11  H    0.169315   0.000033
    12  H    0.160208  -0.000320
    13  H    0.195431  -0.001306
    14  O   -0.214949   0.862386
    15  H    0.221588  -0.020801
 Sum of Mulliken charges =  -0.00000   1.00000

 Dipole moment (field-independent basis, Debye):
    X=              0.1290    Y=              0.6725    Z=             -3.0599  Tot=              3.1356
 Quadrupole moment (field-independent basis, Debye-Ang):
   XX=            -33.2275   YY=            -48.1097   ZZ=            -51.2164
   XY=              1.0284   XZ=              3.1551   YZ=             -0.3827

  Exact polarizability:  91.419   5.944  69.513   5.161   0.435  58.476
 Approx polarizability:  98.388   4.621  74.805   8.950  -3.780  75.198

 ******    2 imaginary frequencies (negative Signs) ******

                      1                      2                      3
                      A                      A                      A
 Frequencies --   -185.9259               -36.2145                47.5308
 Red. masses --     10.9946                 4.3783                 4.9011
 Frc consts  --      0.2239                 0.0034                 0.0065
 IR Inten    --     20.8230                 3.6824                 2.0887

                      4                      5                      6
                      A                      A                      A
 Frequencies --    108.4353               134.8687               155.6191
 Red. masses --      3.1514                 3.3486                 2.6990
 Frc consts  --      0.0218                 0.0359                 0.0385
 IR Inten    --     12.3700                 7.3466                16.4014

                      7                      8                      9
                      A                      A                      A
 Frequencies --    190.7420               224.3092               247.9418
 Red. masses --      1.4675                 1.6481                 2.1741
 Frc consts  --      0.0315                 0.0489                 0.0787
 IR Inten    --     37.7320                 2.8400                19.0485

                     10                     11                     12
                      A                      A                      A
 Frequencies --    339.2629               425.9844               555.5865
 Red. masses --      2.9063                 3.8824                 3.7199
 Frc consts  --      0.1971                 0.4151                 0.6765
 IR Inten    --     12.2493                 1.0666                 7.9685

                     13                     14                     15
                      A                      A                      A
 Frequencies --    593.7505               649.3638               729.1343
 Red. masses --      2.7449                 1.4489                 1.3154
 Frc consts  --      0.5702                 0.3600                 0.4120
 IR Inten    --     19.1254                79.8374                29.2966

                     16                     17                     18
                      A                      A                      A
 Frequencies --    730.5041               773.1303               802.8700
 Red. masses --      1.3277                 8.0751                 1.2122
 Frc consts  --      0.4175                 2.8438                 0.4604
 IR Inten    --     25.3052                51.6292                 5.2965

                     19                     20                     21
                      A                      A                      A
 Frequencies --    896.5416               927.1045              1076.3263
 Red. masses --      3.2349                 2.7334                 4.1279
 Frc consts  --      1.5320                 1.3842                 2.8175
 IR Inten    --     14.7511                 5.3249                22.6840

                     22                     23                     24
                      A                      A                      A
 Frequencies --   1128.7219              1203.7267              1282.4152
 Red. masses --      2.0998                 1.7776                 4.3330
 Frc consts  --      1.5762                 1.5175                 4.1985
 IR Inten    --     22.3069                 6.2344               571.2448

                     25                     26                     27
                      A                      A                      A
 Frequencies --   1345.6021              1401.4690              1431.2174
 Red. masses --      1.2081                 1.2725                 1.3733
 Frc consts  --      1.2888                 1.4725                 1.6574
 IR Inten    --     74.3711                22.6740                11.7204

                     28                     29                     30
                      A                      A                      A
 Frequencies --   1491.3845              1502.4322              1514.5562
 Red. masses --      1.0407                 1.0552                 1.0906
 Frc consts  --      1.3639                 1.4034                 1.4740
 IR Inten    --     10.5521                 1.4673                20.1612

                     31                     32                     33
                      A                      A                      A
 Frequencies --   1853.2442              2209.0939              3075.6258
 Red. masses --     12.0796                 5.9856                 1.0355
 Frc consts  --     24.4438                17.2102                 5.7710
 IR Inten    --    341.0660                74.5179                 9.7628

                     34                     35                     36
                      A                      A                      A
 Frequencies --   3106.8271              3150.4080              3155.2782
 Red. masses --      1.0607                 1.1019                 1.1046
 Frc consts  --      6.0321                 6.4435                 6.4796
 IR Inten    --     19.6101                14.1378                 3.7736

                     37                     38                     39
                      A                      A                      A
 Frequencies --   3174.8843              3485.2752              3802.8198
 Red. masses --      1.1070                 1.1617                 1.0673
 Frc consts  --      6.5744                 8.3143                 9.0939
 IR Inten    --     14.5294                68.6703                39.2489

 - Thermochemistry -
 -------------------
 Temperature   298.150 Kelvin.  Pressure   1.00000 Atm.
 Atom     1 has atomic number  6 and mass  12.00000

 Molecular mass:   115.03952 amu.
 Principal axes and moments of inertia in atomic units:
                           1         2         3
     Eigenvalues --   510.311331381.859951547.97632
           X            0.99989   0.01222   0.00807
           Y           -0.01236   0.99977   0.01734
           Z           -0.00786  -0.01744   0.99982
 This molecule is an asymmetric top.
 Rotational symmetry number  1.
 Warning -- assumption of classical behavior for rotation
           may cause significant error
 Rotational temperatures (Kelvin)      0.16973     0.06268     0.05595
 Rotational constants (GHZ):           3.53655     1.30602     1.16587
    2 imaginary frequencies ignored.
 Zero-point vibrational energy     292630.4 (Joules/Mol)
                                   69.94035 (Kcal/Mol)
 Warning -- explicit consideration of  11 degrees of freedom as
           vibrations may cause significant error
 Vibrational temperatures:     68.39   156.01   194.05   223.90   274.44
          (Kelvin)            322.73   356.73   488.12   612.90   799.37
                              854.27   934.29  1049.06  1051.03  1112.36
                             1155.15  1289.92  1333.90  1548.59  1623.98
                             1731.89  1845.11  1936.02  2016.40  2059.20
                             2145.77  2161.66  2179.11  2666.40  3178.39
                             4425.14  4470.03  4532.73  4539.74  4567.95
                             5014.53  5471.41

 Zero-point correction=                           0.111457 (Hartree/Particle)
 Thermal correction to Energy=                    0.120470
 Thermal correction to Enthalpy=                  0.121414
 Thermal correction to Gibbs Free Energy=         0.076484
 Sum of electronic and zero-point Energies=           -420.092407
 Sum of electronic and thermal Energies=              -420.083394
 Sum of electronic and thermal Enthalpies=            -420.082450
 Sum of electronic and thermal Free Energies=         -420.127381

                     E (Thermal)             CV                S
                      KCal/Mol        Cal/Mol-Kelvin    Cal/Mol-Kelvin
 Total                   75.596             30.584             94.564
 Electronic               0.000              0.000              1.377
 Translational            0.889              2.981             40.136
 Rotational               0.889              2.981             28.481
 Vibrational             73.819             24.622             24.571
 Vibration     1          0.595              1.979              4.918
 Vibration     2          0.606              1.942              3.297
 Vibration     3          0.613              1.919              2.875
 Vibration     4          0.620              1.896              2.602
 Vibration     5          0.634              1.853              2.221
 Vibration     6          0.649              1.804              1.924
 Vibration     7          0.662              1.766              1.745
 Vibration     8          0.719              1.597              1.216
 Vibration     9          0.788              1.414              0.872
 Vibration    10          0.911              1.127              0.533
 Vibration    11          0.951              1.045              0.461

 1\1\GINC-AJ\Freq\UM062X\6-311++G(d,p)\C5H7O3(2)\AAYUSH\16-Aug-2025\0\\
 # freq 6-311++g(d,p) m062x\\Title Card Required\\0,2\C,2.746067,-0.406
 116,0.416124\H,3.790419,-0.428477,0.624213\C,1.571042,-0.332379,0.1572
 65\C,0.160144,-0.583444,-0.13922\O,-0.207478,-1.14461,-1.130375\O,-0.6
 21248,-0.150036,0.848232\C,-2.04037,-0.301729,0.638452\C,-2.564584,0.7
 8492,-0.278807\H,-2.465654,-0.229785,1.637903\H,-2.229888,-1.296193,0.
 232936\H,-3.64725,0.688424,-0.380923\H,-2.340126,1.770362,0.131789\H,-
 2.114693,0.701753,-1.268324\O,1.397874,1.718451,-0.406458\H,1.494957,2

 Normal termination of Gaussian 16 at Sat Aug 16 20:48:29 2025.
