 Gaussian 16, Revision A.03,
 Gaussian 16:  ES64L-G16RevA.03 25-Dec-2016

 -------------------
 # freq 6-31+g m062x
 -------------------

 -------------------
 Title Card Required
 -------------------
 Symbolic Z-matrix:
 Charge =  0 Multiplicity = 2

                         Standard orientation:
 ---------------------------------------------------------------------
 Center     Atomic      Atomic             Coordinates (Angstroms)
 Number     Number       Type             X           Y           Z
 ---------------------------------------------------------------------
      1          6           0       -2.785574   -0.451354   -0.429204
      2          1           0       -3.832858   -0.444551   -0.640731
      3          6           0       -1.620983   -0.070302   -0.073654
      4          6           0       -0.223976   -0.598308    0.130025
      5          8           0        0.134469   -1.224160    1.084279
      6          8           0        0.562715   -0.145085   -0.844026
      7          6           0        1.982390   -0.301950   -0.637234
      8          6           0        2.500358    0.748027    0.326221
      9          1           0        2.410190   -0.186786   -1.631433
     10          1           0        2.174216   -1.311795   -0.273365
     11          1           0        3.582874    0.648940    0.427444
     12          1           0        2.274531    1.749153   -0.043368
     13          1           0        2.048267    0.623761    1.310553
     14          8           0       -1.474996    1.491698    0.428706
     15          1           0       -1.548018    1.984968   -0.397693
 ---------------------------------------------------------------------

 SCF Done:  E(UM062X) =  -419.973355022     A.U. after   19 cycles

 The electronic state is 2-A.
 Alpha  occ. eigenvalues --  -19.70778 -19.67158 -19.66643 -10.72672 -10.64926
 Alpha  occ. eigenvalues --  -10.61668 -10.61058 -10.54512  -1.28222  -1.18875
 Alpha  occ. eigenvalues --   -1.13720  -0.91827  -0.88390  -0.78715  -0.71563
 Alpha  occ. eigenvalues --   -0.65005  -0.62268  -0.59976  -0.57710  -0.55397
 Alpha  occ. eigenvalues --   -0.53709  -0.49273  -0.48485  -0.46761  -0.45366
 Alpha  occ. eigenvalues --   -0.42429  -0.41662  -0.38407  -0.37503  -0.37137
 Alpha  occ. eigenvalues --   -0.31159
 Alpha virt. eigenvalues --    0.00220   0.01702   0.02274   0.02695   0.03581
 Alpha virt. eigenvalues --    0.04021   0.05235   0.06610   0.07534   0.08308
 Alpha virt. eigenvalues --    0.08487   0.09123   0.09501   0.11367   0.12172

  Beta  occ. eigenvalues --  -19.70774 -19.66675 -19.66648 -10.72605 -10.65100
  Beta  occ. eigenvalues --  -10.61667 -10.60333 -10.54512  -1.28184  -1.18864
  Beta  occ. eigenvalues --   -1.12159  -0.90765  -0.87298  -0.78117  -0.70672
  Beta  occ. eigenvalues --   -0.64807  -0.61106  -0.59528  -0.57444  -0.54762
  Beta  occ. eigenvalues --   -0.53433  -0.48996  -0.47198  -0.45358  -0.45293
  Beta  occ. eigenvalues --   -0.42034  -0.40615  -0.38371  -0.36882  -0.35606
  Beta virt. eigenvalues --   -0.08397   0.00706   0.01597   0.02411   0.03058
  Beta virt. eigenvalues --    0.03648   0.04081   0.05006   0.06475   0.07566
  Beta virt. eigenvalues --    0.08071   0.08394   0.08782   0.09491   0.11747

 Mulliken charges and spin densities:
               1          2
     1  C    0.299524   1.079020
     2  H    0.279076  -0.036205
     3  C   -0.384803  -0.315910
     4  C    0.114671   0.050437
     5  O   -0.338601   0.000637
     6  O   -0.208323   0.000490
     7  C   -0.237860   0.001907
     8  C   -0.565742   0.000718
     9  H    0.220364   0.000002
    10  H    0.236985  -0.000162
    11  H    0.206876  -0.000013
    12  H    0.221038   0.000053
    13  H    0.241298   0.000057
    14  O   -0.526979   0.223003
    15  H    0.442474  -0.004034
 Sum of Mulliken charges =  -0.00000   1.00000

 Dipole moment (field-independent basis, Debye):
    X=              0.1517    Y=              0.5106    Z=             -3.2792  Tot=              3.3222
 Quadrupole moment (field-independent basis, Debye-Ang):
   XX=            -33.4706   YY=            -49.2589   ZZ=            -52.6362
   XY=              1.1190   XZ=              3.6259   YZ=             -0.4682

  Exact polarizability:  83.099   5.751  63.913   4.432  -0.381  55.588
 Approx polarizability:  82.363   7.430  72.970   7.658  -3.591  69.070

 ******    3 imaginary frequencies (negative Signs) ******

                      1                      2                      3
                      A                      A                      A
 Frequencies --   -493.2686              -333.0316               -70.3941
 Red. masses --      1.0588                 2.2229                 6.0236
 Frc consts  --      0.1518                 0.1453                 0.0176
 IR Inten    --    130.7616               129.2061                 1.7945

                      4                      5                      6
                      A                      A                      A
 Frequencies --     42.4142                67.3089               151.4040
 Red. masses --      2.6166                 3.6029                 1.5609
 Frc consts  --      0.0028                 0.0096                 0.0211
 IR Inten    --      3.3231                 5.2870                 3.3794

                      7                      8                      9
                      A                      A                      A
 Frequencies --    207.1023               223.4864               280.7279
 Red. masses --      2.2206                 2.3774                 4.3656
 Frc consts  --      0.0561                 0.0700                 0.2027
 IR Inten    --      2.4950                 1.3654                 2.0349

                     10                     11                     12
                      A                      A                      A
 Frequencies --    318.0570               395.1616               445.0666
 Red. masses --      3.2306                 6.2507                 3.8670
 Frc consts  --      0.1925                 0.5751                 0.4513
 IR Inten    --     19.6673                 2.0559                 4.4976

                     13                     14                     15
                      A                      A                      A
 Frequencies --    603.2120               620.6205               714.0439
 Red. masses --      4.4215                 4.8311                 1.3087
 Frc consts  --      0.9479                 1.0963                 0.3931
 IR Inten    --      3.8793                27.0085                53.2253

                     16                     17                     18
                      A                      A                      A
 Frequencies --    740.8465               812.8657               888.8948
 Red. masses --      9.6600                 1.3388                 2.8786
 Frc consts  --      3.1238                 0.5212                 1.3401
 IR Inten    --     18.1563                 7.6310                19.7022

                     19                     20                     21
                      A                      A                      A
 Frequencies --    934.8722              1050.3354              1102.5643
 Red. masses --      2.4898                 1.2875                 4.1971
 Frc consts  --      1.2821                 0.8368                 3.0061
 IR Inten    --      1.2254                33.2161                11.2964

                     22                     23                     24
                      A                      A                      A
 Frequencies --   1156.3673              1226.4727              1310.4794
 Red. masses --      2.0605                 1.7550                 2.9132
 Frc consts  --      1.6234                 1.5554                 2.9477
 IR Inten    --     16.8738                 8.2910               399.7777

                     25                     26                     27
                      A                      A                      A
 Frequencies --   1362.0736              1438.6182              1458.6494
 Red. masses --      1.4246                 1.3366                 1.2441
 Frc consts  --      1.5572                 1.6298                 1.5596
 IR Inten    --    153.6636                13.9025                20.5609

                     28                     29                     30
                      A                      A                      A
 Frequencies --   1527.0459              1536.7372              1544.7818
 Red. masses --      1.0410                 1.0521                 1.0892
 Frc consts  --      1.4303                 1.4639                 1.5314
 IR Inten    --     14.3471                 2.6792                23.5060

                     31                     32                     33
                      A                      A                      A
 Frequencies --   1841.9085              1930.1925              3107.7602
 Red. masses --      7.2911                11.9212                 1.0351
 Frc consts  --     14.5740                26.1681                 5.8902
 IR Inten    --     26.9231               274.1350                11.9645

                     34                     35                     36
                      A                      A                      A
 Frequencies --   3139.6238              3187.7756              3190.8990
 Red. masses --      1.0600                 1.1009                 1.1021
 Frc consts  --      6.1565                 6.5915                 6.6114
 IR Inten    --     21.0569                12.1108                 8.1519

                     37                     38                     39
                      A                      A                      A
 Frequencies --   3211.6657              3466.6830              3876.7506
 Red. masses --      1.1053                 1.1238                 1.0668
 Frc consts  --      6.7173                 7.9575                 9.4462
 IR Inten    --     16.6425                57.5468                41.2664

 - Thermochemistry -
 -------------------
 Temperature   298.150 Kelvin.  Pressure   1.00000 Atm.
 Atom     1 has atomic number  6 and mass  12.00000

 Molecular mass:   115.03952 amu.
 Principal axes and moments of inertia in atomic units:
                           1         2         3
     Eigenvalues --   468.549781372.604201505.88022
           X            0.99989   0.01177   0.00914
           Y           -0.01205   0.99944   0.03109
           Z           -0.00877  -0.03120   0.99947
 This molecule is an asymmetric top.
 Rotational symmetry number  1.
 Warning -- assumption of classical behavior for rotation
           may cause significant error
 Rotational temperatures (Kelvin)      0.18486     0.06310     0.05752
 Rotational constants (GHZ):           3.85176     1.31483     1.19846
    3 imaginary frequencies ignored.
 Zero-point vibrational energy     293763.8 (Joules/Mol)
                                   70.21123 (Kcal/Mol)
 Warning -- explicit consideration of  11 degrees of freedom as
           vibrations may cause significant error
 Vibrational temperatures:     61.02    96.84   217.84   297.97   321.55
          (Kelvin)            403.90   457.61   568.55   640.35   867.89
                              892.93  1027.35  1065.91  1169.53  1278.92
                             1345.07  1511.20  1586.34  1663.75  1764.62
                             1885.49  1959.72  2069.85  2098.67  2197.08
                             2211.02  2222.60  2650.10  2777.12  4471.37
                             4517.22  4586.50  4590.99  4620.87  4987.78
                             5577.78

 Zero-point correction=                           0.111889 (Hartree/Particle)
 Thermal correction to Energy=                    0.120338
 Thermal correction to Enthalpy=                  0.121282
 Thermal correction to Gibbs Free Energy=         0.077211
 Sum of electronic and zero-point Energies=           -419.861466
 Sum of electronic and thermal Energies=              -419.853017
 Sum of electronic and thermal Enthalpies=            -419.852073
 Sum of electronic and thermal Free Energies=         -419.896144

                     E (Thermal)             CV                S
                      KCal/Mol        Cal/Mol-Kelvin    Cal/Mol-Kelvin
 Total                   75.513             28.521             92.755
 Electronic               0.000              0.000              1.377
 Translational            0.889              2.981             40.136
 Rotational               0.889              2.981             28.362
 Vibrational             73.736             22.560             22.880
 Vibration     1          0.595              1.980              5.143
 Vibration     2          0.598              1.970              4.231
 Vibration     3          0.619              1.901              2.655
 Vibration     4          0.641              1.830              2.069
 Vibration     5          0.649              1.805              1.931
 Vibration     6          0.680              1.709              1.529
 Vibration     7          0.704              1.639              1.320
 Vibration     8          0.762              1.481              0.981
 Vibration     9          0.804              1.372              0.811
 Vibration    10          0.962              1.025              0.444
 Vibration    11          0.981              0.988              0.416

 Normal termination of Gaussian 16 at Fri Jun 20 13:44:15 2025.
