 Gaussian 16, Revision A.03,
 Gaussian 16:  ES64L-G16RevA.03 25-Dec-2016

 --------------------------
 # freq 6-311++g(d,p) m062x
 --------------------------

 -------------------
 Title Card Required
 -------------------
 Symbolic Z-matrix:
 Charge =  0 Multiplicity = 2

                         Standard orientation:
 ---------------------------------------------------------------------
 Center     Atomic      Atomic             Coordinates (Angstroms)
 Number     Number       Type             X           Y           Z
 ---------------------------------------------------------------------
      1          6           0       -2.791186   -0.446713   -0.423465
      2          1           0       -3.836080   -0.465588   -0.639436
      3          6           0       -1.621960   -0.110729   -0.084310
      4          6           0       -0.221952   -0.598680    0.135059
      5          8           0        0.135775   -1.213660    1.096223
      6          8           0        0.562146   -0.152135   -0.842711
      7          6           0        1.981904   -0.308001   -0.635346
      8          6           0        2.501058    0.749910    0.318489
      9          1           0        2.408846   -0.201887   -1.630898
     10          1           0        2.173087   -1.314848   -0.262836
     11          1           0        3.583584    0.651016    0.419819
     12          1           0        2.275393    1.747813   -0.059698
     13          1           0        2.049384    0.634561    1.304060
     14          8           0       -1.471964    1.521354    0.424402
     15          1           0       -1.549053    1.989731   -0.416890
 ---------------------------------------------------------------------

 SCF Done:  E(UM062X) =  -420.218015721     A.U. after   19 cycles

 The electronic state is 2-A.
 Alpha  occ. eigenvalues --  -19.68338 -19.64294 -19.63446 -10.70448 -10.63184
 Alpha  occ. eigenvalues --  -10.60616 -10.59605 -10.53628  -1.25835  -1.16610
 Alpha  occ. eigenvalues --   -1.11367  -0.91270  -0.87769  -0.78268  -0.70969
 Alpha  occ. eigenvalues --   -0.64808  -0.62064  -0.59183  -0.57550  -0.54603
 Alpha  occ. eigenvalues --   -0.53157  -0.49320  -0.48406  -0.46299  -0.45298
 Alpha  occ. eigenvalues --   -0.42122  -0.41551  -0.38609  -0.37634  -0.37210
 Alpha  occ. eigenvalues --   -0.31319
 Alpha virt. eigenvalues --   -0.00532   0.00210   0.00475   0.01482   0.02216
 Alpha virt. eigenvalues --    0.02784   0.03098   0.04388   0.05531   0.06020
 Alpha virt. eigenvalues --    0.07149   0.07848   0.08061   0.10193   0.10288

  Beta  occ. eigenvalues --  -19.68336 -19.63688 -19.63453 -10.70395 -10.63344
  Beta  occ. eigenvalues --  -10.60615 -10.58987 -10.53629  -1.25806  -1.16615
  Beta  occ. eigenvalues --   -1.09248  -0.90127  -0.86673  -0.77623  -0.70123
  Beta  occ. eigenvalues --   -0.64588  -0.61148  -0.58985  -0.57216  -0.53829
  Beta  occ. eigenvalues --   -0.52710  -0.48873  -0.46906  -0.45275  -0.44198
  Beta  occ. eigenvalues --   -0.41944  -0.40156  -0.38554  -0.36778  -0.35846
  Beta virt. eigenvalues --   -0.08667  -0.00511   0.00462   0.01096   0.01731
  Beta virt. eigenvalues --    0.02367   0.03109   0.03153   0.04573   0.05533
  Beta virt. eigenvalues --    0.05924   0.07180   0.07754   0.07987   0.10279

 Mulliken charges and spin densities:
               1          2
     1  C    0.094961   1.014122
     2  H    0.228674  -0.028107
     3  C   -0.034579  -0.337759
     4  C   -0.259119   0.056635
     5  O   -0.194622  -0.002499
     6  O    0.003650   0.000969
     7  C   -0.286670   0.001659
     8  C   -0.424010   0.001478
     9  H    0.191357   0.000253
    10  H    0.193649  -0.000154
    11  H    0.165603  -0.000061
    12  H    0.163857  -0.000178
    13  H    0.195590  -0.000927
    14  O   -0.281636   0.294414
    15  H    0.243295   0.000156
 Sum of Mulliken charges =  -0.00000   1.00000

 Dipole moment (field-independent basis, Debye):
    X=              0.0864    Y=              0.2790    Z=             -3.1444  Tot=              3.1579
 Quadrupole moment (field-independent basis, Debye-Ang):
   XX=            -33.3207   YY=            -49.0083   ZZ=            -51.2962
   XY=              1.6941   XZ=              3.4154   YZ=             -0.3831

  Exact polarizability:  87.905   5.979  68.276   4.674   0.661  58.232
 Approx polarizability:  89.958   7.257  81.792   7.444  -1.628  75.194

 ******    1 imaginary frequencies (negative Signs) ******

                      1                      2                      3
                      A                      A                      A
 Frequencies --   -529.2033                23.5048                88.5502
 Red. masses --      6.5256                 1.4219                 3.3912
 Frc consts  --      1.0768                 0.0005                 0.0157
 IR Inten    --     69.4627                48.8982                 4.3926

                      4                      5                      6
                      A                      A                      A
 Frequencies --    110.3440               130.9575               191.4799
 Red. masses --      3.0388                 2.5755                 1.6577
 Frc consts  --      0.0218                 0.0260                 0.0358
 IR Inten    --     12.7608                20.9769                 2.3984

                      7                      8                      9
                      A                      A                      A
 Frequencies --    215.1431               246.2649               266.1761
 Red. masses --      1.2064                 1.9296                 7.0121
 Frc consts  --      0.0329                 0.0689                 0.2927
 IR Inten    --     24.8919                10.9528                 2.0547

                     10                     11                     12
                      A                      A                      A
 Frequencies --    341.6732               356.9791               446.8474
 Red. masses --      3.1582                 8.0910                 3.6388
 Frc consts  --      0.2172                 0.6075                 0.4281
 IR Inten    --     14.1598                 2.5712                 4.2833

                     13                     14                     15
                      A                      A                      A
 Frequencies --    593.8489               620.7077               699.0623
 Red. masses --      4.5367                 5.0349                 1.3508
 Frc consts  --      0.9426                 1.1429                 0.3889
 IR Inten    --      3.1296                16.4045                40.4662

                     16                     17                     18
                      A                      A                      A
 Frequencies --    782.2891               798.9375               891.7246
 Red. masses --     10.3553                 1.2123                 3.2664
 Frc consts  --      3.7338                 0.4559                 1.5303
 IR Inten    --     18.3818                 5.0474                17.0010

                     19                     20                     21
                      A                      A                      A
 Frequencies --    917.1047              1060.2340              1068.8924
 Red. masses --      2.6105                 1.1836                 3.9409
 Frc consts  --      1.2937                 0.7839                 2.6528
 IR Inten    --      0.8453                44.9472                22.8697

                     22                     23                     24
                      A                      A                      A
 Frequencies --   1127.4629              1202.0689              1270.9935
 Red. masses --      2.0898                 1.7839                 4.6539
 Frc consts  --      1.5652                 1.5188                 4.4295
 IR Inten    --     21.0285                 9.7899               540.5282

                     25                     26                     27
                      A                      A                      A
 Frequencies --   1343.2442              1401.1140              1429.6489
 Red. masses --      1.1944                 1.2670                 1.3578
 Frc consts  --      1.2697                 1.4655                 1.6351
 IR Inten    --     60.4220                15.7203                11.7538

                     28                     29                     30
                      A                      A                      A
 Frequencies --   1491.3187              1501.5577              1513.8642
 Red. masses --      1.0402                 1.0531                 1.0919
 Frc consts  --      1.3631                 1.3990                 1.4744
 IR Inten    --     10.3928                 1.1551                17.8257

                     31                     32                     33
                      A                      A                      A
 Frequencies --   1827.2121              1882.3199              3076.0604
 Red. masses --      8.4095                 9.7276                 1.0354
 Frc consts  --     16.5424                20.3068                 5.7723
 IR Inten    --    137.2449               199.3628                 9.0939

                     34                     35                     36
                      A                      A                      A
 Frequencies --   3108.6039              3151.9440              3155.0909
 Red. masses --      1.0608                 1.1017                 1.1046
 Frc consts  --      6.0397                 6.4489                 6.4785
 IR Inten    --     19.7048                13.9879                 3.1555

                     37                     38                     39
                      A                      A                      A
 Frequencies --   3175.5882              3438.5526              3854.4924
 Red. masses --      1.1073                 1.1243                 1.0675
 Frc consts  --      6.5789                 7.8324                 9.3446
 IR Inten    --     14.4087                78.4234                62.2559

 - Thermochemistry -
 -------------------
 Temperature   298.150 Kelvin.  Pressure   1.00000 Atm.
 Atom     1 has atomic number  6 and mass  12.00000

 Molecular mass:   115.03952 amu.
 Principal axes and moments of inertia in atomic units:
                           1         2         3
     Eigenvalues --   473.670091374.407501511.38393
           X            0.99989   0.01207   0.00904
           Y           -0.01233   0.99950   0.02925
           Z           -0.00868  -0.02936   0.99953
 This molecule is an asymmetric top.
 Rotational symmetry number  1.
 Warning -- assumption of classical behavior for rotation
           may cause significant error
 Rotational temperatures (Kelvin)      0.18286     0.06302     0.05731
 Rotational constants (GHZ):           3.81012     1.31310     1.19410
    1 imaginary frequencies ignored.
 Zero-point vibrational energy     291899.9 (Joules/Mol)
                                   69.76576 (Kcal/Mol)
 Warning -- explicit consideration of  13 degrees of freedom as
           vibrations may cause significant error
 Vibrational temperatures:     33.82   127.40   158.76   188.42   275.50
          (Kelvin)            309.54   354.32   382.97   491.59   513.61
                              642.91   854.42   893.06  1005.79  1125.54
                             1149.49  1282.99  1319.51  1525.44  1537.90
                             1622.17  1729.51  1828.68  1932.63  2015.89
                             2056.95  2145.68  2160.41  2178.11  2628.95
                             2708.24  4425.76  4472.59  4534.94  4539.47
                             4568.96  4947.31  5545.75

 Zero-point correction=                           0.111179 (Hartree/Particle)
 Thermal correction to Energy=                    0.120953
 Thermal correction to Enthalpy=                  0.121897
 Thermal correction to Gibbs Free Energy=         0.074820
 Sum of electronic and zero-point Energies=           -420.106837
 Sum of electronic and thermal Energies=              -420.097063
 Sum of electronic and thermal Enthalpies=            -420.096118
 Sum of electronic and thermal Free Energies=         -420.143196

                     E (Thermal)             CV                S
                      KCal/Mol        Cal/Mol-Kelvin    Cal/Mol-Kelvin
 Total                   75.899             32.489             99.083
 Electronic               0.000              0.000              1.377
 Translational            0.889              2.981             40.136
 Rotational               0.889              2.981             28.377
 Vibrational             74.122             26.527             29.193
 Vibration     1          0.593              1.985              6.314
 Vibration     2          0.601              1.957              3.692
 Vibration     3          0.606              1.941              3.263
 Vibration     4          0.612              1.922              2.932
 Vibration     5          0.634              1.852              2.213
 Vibration     6          0.645              1.818              2.000
 Vibration     7          0.661              1.769              1.757
 Vibration     8          0.672              1.735              1.621
 Vibration     9          0.721              1.592              1.204
 Vibration    10          0.732              1.561              1.135
 Vibration    11          0.806              1.368              0.805
 Vibration    12          0.951              1.045              0.460
 Vibration    13          0.981              0.988              0.415

 1\1\GINC-AJ\Freq\UM062X\6-311++G(d,p)\C5H7O3(2)\AAYUSH\23-Jun-2025\0\\
 # freq 6-311++g(d,p) m062x\\Title Card Required\\0,2\C,-2.791186,-0.44
 6713,-0.423465\H,-3.83608,-0.465588,-0.639436\C,-1.62196,-0.110729,-0.
 08431\C,-0.221952,-0.59868,0.135059\O,0.135775,-1.21366,1.096223\O,0.5
 62146,-0.152135,-0.842711\C,1.981904,-0.308001,-0.635346\C,2.501058,0.
 74991,0.318489\H,2.408846,-0.201887,-1.630898\H,2.173087,-1.314848,-0.
 262836\H,3.583584,0.651016,0.419819\H,2.275393,1.747813,-0.059698\H,2.
 049384,0.634561,1.30406\O,-1.471964,1.521354,0.424402\H,-1.549053,1.98

 Normal termination of Gaussian 16 at Mon Jun 23 05:06:33 2025.
