 Gaussian 16, Revision A.03,
 Gaussian 16:  ES64L-G16RevA.03 25-Dec-2016

 --------------------------
 # freq 6-311++g(d,p) m062x
 --------------------------

 -------------------
 Title Card Required
 -------------------
 Symbolic Z-matrix:
 Charge =  0 Multiplicity = 2

                         Standard orientation:
 ---------------------------------------------------------------------
 Center     Atomic      Atomic             Coordinates (Angstroms)
 Number     Number       Type             X           Y           Z
 ---------------------------------------------------------------------
      1          6           0       -2.797537   -0.439658   -0.412753
      2          1           0       -3.839669   -0.486096   -0.631697
      3          6           0       -1.625253   -0.194459   -0.104489
      4          6           0       -0.219835   -0.598754    0.144829
      5          8           0        0.138398   -1.193457    1.118287
      6          8           0        0.561272   -0.165310   -0.839984
      7          6           0        1.981030   -0.319019   -0.631224
      8          6           0        2.502025    0.754009    0.304219
      9          1           0        2.406841   -0.230030   -1.628937
     10          1           0        2.171469   -1.319772   -0.242151
     11          1           0        3.584588    0.656114    0.406128
     12          1           0        2.276604    1.745558   -0.090416
     13          1           0        2.051052    0.655314    1.291880
     14          8           0       -1.467255    1.579390    0.414696
     15          1           0       -1.552789    2.001211   -0.452286
 ---------------------------------------------------------------------

 SCF Done:  E(UM062X) =  -420.205776992     A.U. after   21 cycles

 The electronic state is 2-A.
 Alpha  occ. eigenvalues --  -19.68400 -19.64338 -19.63453 -10.70749 -10.61838
 Alpha  occ. eigenvalues --  -10.60649 -10.59590 -10.53616  -1.25924  -1.16695
 Alpha  occ. eigenvalues --   -1.10713  -0.91554  -0.87868  -0.78402  -0.71027
 Alpha  occ. eigenvalues --   -0.64862  -0.62506  -0.58977  -0.57304  -0.53959
 Alpha  occ. eigenvalues --   -0.53165  -0.49472  -0.48417  -0.46169  -0.45320
 Alpha  occ. eigenvalues --   -0.42063  -0.41336  -0.38727  -0.38080  -0.37372
 Alpha  occ. eigenvalues --   -0.32197
 Alpha virt. eigenvalues --   -0.00513  -0.00283   0.00423   0.01465   0.02253
 Alpha virt. eigenvalues --    0.02486   0.03150   0.04389   0.05509   0.05992
 Alpha virt. eigenvalues --    0.07047   0.07815   0.07949   0.10201   0.10331

  Beta  occ. eigenvalues --  -19.68402 -19.63471 -19.63345 -10.70706 -10.61976
  Beta  occ. eigenvalues --  -10.60648 -10.59138 -10.53616  -1.25914  -1.16727
  Beta  occ. eigenvalues --   -1.07137  -0.90502  -0.87066  -0.77924  -0.70460
  Beta  occ. eigenvalues --   -0.64665  -0.61768  -0.58883  -0.57017  -0.53485
  Beta  occ. eigenvalues --   -0.51785  -0.49012  -0.46736  -0.45307  -0.42210
  Beta  occ. eigenvalues --   -0.41982  -0.39394  -0.38642  -0.36629  -0.36272
  Beta virt. eigenvalues --   -0.09678  -0.00432   0.00411   0.00884   0.01731
  Beta virt. eigenvalues --    0.02372   0.02781   0.03164   0.04551   0.05556
  Beta virt. eigenvalues --    0.05916   0.07129   0.07614   0.07987   0.10335

 Mulliken charges and spin densities:
               1          2
     1  C    0.011692   0.810843
     2  H    0.222265  -0.025587
     3  C    0.152180  -0.333383
     4  C   -0.356054   0.050130
     5  O   -0.191407  -0.008690
     6  O    0.002107  -0.001407
     7  C   -0.282897   0.001025
     8  C   -0.424219   0.002141
     9  H    0.191771   0.000297
    10  H    0.192753  -0.000104
    11  H    0.166408  -0.000048
    12  H    0.163613  -0.000461
    13  H    0.195797  -0.001335
    14  O   -0.271222   0.514043
    15  H    0.227213  -0.007463
 Sum of Mulliken charges =  -0.00000   1.00000

 Dipole moment (field-independent basis, Debye):
    X=              0.0287    Y=              0.0735    Z=             -3.1974  Tot=              3.1984
 Quadrupole moment (field-independent basis, Debye-Ang):
   XX=            -32.6773   YY=            -49.0503   ZZ=            -51.2022
   XY=              2.1367   XZ=              3.5519   YZ=             -0.3942

  Exact polarizability:  89.417   7.033  72.524   5.198   1.772  58.620
 Approx polarizability:  93.562   8.449  84.592   8.678  -0.749  75.699

 ******    1 imaginary frequencies (negative Signs) ******

                      1                      2                      3
                      A                      A                      A
 Frequencies --   -693.4371                58.7877                79.6189
 Red. masses --     12.4151                 2.0499                 3.4135
 Frc consts  --      3.5173                 0.0042                 0.0127
 IR Inten    --      2.1803                27.7186                 2.7501

                      4                      5                      6
                      A                      A                      A
 Frequencies --    100.8595               133.0506               185.8504
 Red. masses --      2.4313                 2.0765                 1.8697
 Frc consts  --      0.0146                 0.0217                 0.0380
 IR Inten    --     29.7478                20.7409                 6.8208

                      7                      8                      9
                      A                      A                      A
 Frequencies --    226.1428               234.4740               280.7601
 Red. masses --      4.7708                 2.0392                 2.6451
 Frc consts  --      0.1437                 0.0661                 0.1228
 IR Inten    --     10.3746                 2.6674                 7.5218

                     10                     11                     12
                      A                      A                      A
 Frequencies --    340.7079               434.8002               481.9268
 Red. masses --      3.0868                 3.4042                 1.4795
 Frc consts  --      0.2111                 0.3792                 0.2025
 IR Inten    --     12.3272                 2.3297                34.8911

                     13                     14                     15
                      A                      A                      A
 Frequencies --    573.0060               603.0337               709.9300
 Red. masses --      4.3088                 5.5047                 1.3219
 Frc consts  --      0.8335                 1.1794                 0.3925
 IR Inten    --      2.2446                10.9677                40.1695

                     16                     17                     18
                      A                      A                      A
 Frequencies --    769.2669               800.0141               891.5942
 Red. masses --      9.6310                 1.2148                 2.9031
 Frc consts  --      3.3580                 0.4581                 1.3597
 IR Inten    --     32.4688                 5.2676                19.4262

                     19                     20                     21
                      A                      A                      A
 Frequencies --    918.5840               933.5768              1070.7086
 Red. masses --      2.4586                 1.2588                 4.0557
 Frc consts  --      1.2223                 0.6464                 2.7394
 IR Inten    --      1.1081                56.2705                24.6959

                     22                     23                     24
                      A                      A                      A
 Frequencies --   1127.8144              1202.5002              1273.5752
 Red. masses --      2.0918                 1.7810                 4.5368
 Frc consts  --      1.5676                 1.5173                 4.3356
 IR Inten    --     20.8815                 9.5678               548.2045

                     25                     26                     27
                      A                      A                      A
 Frequencies --   1344.0354              1401.3258              1430.1337
 Red. masses --      1.1996                 1.2686                 1.3614
 Frc consts  --      1.2767                 1.4677                 1.6406
 IR Inten    --     64.2242                17.2680                12.5919

                     28                     29                     30
                      A                      A                      A
 Frequencies --   1491.1878              1501.7376              1514.2810
 Red. masses --      1.0403                 1.0530                 1.0923
 Frc consts  --      1.3630                 1.3992                 1.4758
 IR Inten    --     10.6868                 1.2425                19.0632

                     31                     32                     33
                      A                      A                      A
 Frequencies --   1853.1282              1977.7385              3076.1507
 Red. masses --     11.5787                 7.0600                 1.0354
 Frc consts  --     23.4272                16.2702                 5.7728
 IR Inten    --    329.8612                50.7086                 8.9545

                     34                     35                     36
                      A                      A                      A
 Frequencies --   3108.0605              3151.9440              3155.3960
 Red. masses --      1.0609                 1.1017                 1.1047
 Frc consts  --      6.0382                 6.4484                 6.4803
 IR Inten    --     19.4962                14.1658                 2.8298

                     37                     38                     39
                      A                      A                      A
 Frequencies --   3175.7634              3458.7380              3836.6859
 Red. masses --      1.1071                 1.1335                 1.0676
 Frc consts  --      6.5788                 7.9895                 9.2594
 IR Inten    --     14.2614                79.6286                58.4730

 - Thermochemistry -
 -------------------
 Temperature   298.150 Kelvin.  Pressure   1.00000 Atm.
 Atom     1 has atomic number  6 and mass  12.00000

 Molecular mass:   115.03952 amu.
 Principal axes and moments of inertia in atomic units:
                           1         2         3
     Eigenvalues --   484.448771377.009861522.25511
           X            0.99988   0.01237   0.00879
           Y           -0.01259   0.99960   0.02539
           Z           -0.00847  -0.02550   0.99964
 This molecule is an asymmetric top.
 Rotational symmetry number  1.
 Warning -- assumption of classical behavior for rotation
           may cause significant error
 Rotational temperatures (Kelvin)      0.17879     0.06290     0.05690
 Rotational constants (GHZ):           3.72535     1.31062     1.18557
    1 imaginary frequencies ignored.
 Zero-point vibrational energy     292528.2 (Joules/Mol)
                                   69.91591 (Kcal/Mol)
 Warning -- explicit consideration of  13 degrees of freedom as
           vibrations may cause significant error
 Vibrational temperatures:     84.58   114.55   145.11   191.43   267.40
          (Kelvin)            325.37   337.36   403.95   490.20   625.58
                              693.39   824.43   867.63  1021.43  1106.80
                             1151.04  1282.81  1321.64  1343.21  1540.51
                             1622.67  1730.13  1832.39  1933.77  2016.20
                             2057.64  2145.49  2160.67  2178.71  2666.24
                             2845.52  4425.89  4471.81  4534.94  4539.91
                             4569.22  4976.35  5520.14

 Zero-point correction=                           0.111418 (Hartree/Particle)
 Thermal correction to Energy=                    0.121073
 Thermal correction to Enthalpy=                  0.122017
 Thermal correction to Gibbs Free Energy=         0.075771
 Sum of electronic and zero-point Energies=           -420.094359
 Sum of electronic and thermal Energies=              -420.084704
 Sum of electronic and thermal Enthalpies=            -420.083760
 Sum of electronic and thermal Free Energies=         -420.130006

                     E (Thermal)             CV                S
                      KCal/Mol        Cal/Mol-Kelvin    Cal/Mol-Kelvin
 Total                   75.975             32.439             97.335
 Electronic               0.000              0.000              1.377
 Translational            0.889              2.981             40.136
 Rotational               0.889              2.981             28.409
 Vibrational             74.197             26.477             27.413
 Vibration     1          0.596              1.974              4.497
 Vibration     2          0.600              1.963              3.900
 Vibration     3          0.604              1.948              3.438
 Vibration     4          0.613              1.920              2.901
 Vibration     5          0.632              1.859              2.269
 Vibration     6          0.650              1.801              1.909
 Vibration     7          0.654              1.788              1.844
 Vibration     8          0.680              1.709              1.529
 Vibration     9          0.720              1.594              1.209
 Vibration    10          0.795              1.394              0.843
 Vibration    11          0.838              1.290              0.705
 Vibration    12          0.929              1.090              0.498
 Vibration    13          0.961              1.025              0.444

 1\1\GINC-AJ\Freq\UM062X\6-311++G(d,p)\C5H7O3(2)\AAYUSH\16-Aug-2025\0\\
 # freq 6-311++g(d,p) m062x\\Title Card Required\\0,2\C,2.736713,-0.419
 857,0.415765\H,3.778999,-0.469631,0.633239\C,1.564177,-0.169924,0.1122
 98\C,0.158674,-0.570406,-0.142628\O,-0.200088,-1.14929,-1.125383\O,-0.
 621866,-0.153178,0.849611\C,-2.041731,-0.303769,0.639317\C,-2.563556,0
 .784207,-0.278227\H,-2.466899,-0.231087,1.638625\H,-2.232232,-1.298108
 ,0.234164\H,-3.646167,0.687757,-0.380999\H,-2.338067,1.76926,0.132315\
 H,-2.113218,0.701663,-1.267658\O,1.405489,1.612092,-0.377897\H,1.49151

 Normal termination of Gaussian 16 at Sat Aug 16 20:29:43 2025.
