 Gaussian 16, Revision A.03,
 Gaussian 16:  ES64L-G16RevA.03 25-Dec-2016

 --------------------------
 # ccsd(t)/6-311++g(d,p) sp
 --------------------------

 -------------------
 Title Card Required
 -------------------
 Symbolic Z-matrix:
 Charge =  0 Multiplicity = 2

                         Standard orientation:
 ---------------------------------------------------------------------
 Center     Atomic      Atomic             Coordinates (Angstroms)
 Number     Number       Type             X           Y           Z
 ---------------------------------------------------------------------
      1          6           0       -2.791186   -0.446713   -0.423465
      2          1           0       -3.836080   -0.465588   -0.639436
      3          6           0       -1.621960   -0.110729   -0.084310
      4          6           0       -0.221952   -0.598680    0.135059
      5          8           0        0.135775   -1.213660    1.096223
      6          8           0        0.562146   -0.152135   -0.842711
      7          6           0        1.981904   -0.308001   -0.635346
      8          6           0        2.501058    0.749910    0.318489
      9          1           0        2.408846   -0.201887   -1.630898
     10          1           0        2.173087   -1.314848   -0.262836
     11          1           0        3.583584    0.651016    0.419819
     12          1           0        2.275393    1.747813   -0.059698
     13          1           0        2.049384    0.634561    1.304060
     14          8           0       -1.471964    1.521354    0.424402
     15          1           0       -1.549053    1.989731   -0.416890
 ---------------------------------------------------------------------

 SCF Done:  E(UHF) =  -417.983833981     A.U. after   29 cycles
 E2 =    -0.1266017664D+01 EUMP2 =    -0.41924985164564D+03
 CCSD(T)= -0.41936775761D+03

 The electronic state is 2-A.
 Alpha  occ. eigenvalues --  -20.61288 -20.59762 -20.56007 -11.41214 -11.30491
 Alpha  occ. eigenvalues --  -11.29719 -11.28512 -11.22424  -1.48262  -1.38033
 Alpha  occ. eigenvalues --   -1.35458  -1.08811  -1.04586  -0.92814  -0.84050
 Alpha  occ. eigenvalues --   -0.76794  -0.73228  -0.69658  -0.68528  -0.65473
 Alpha  occ. eigenvalues --   -0.62768  -0.60855  -0.57827  -0.54783  -0.54012
 Alpha  occ. eigenvalues --   -0.52374  -0.50428  -0.47538  -0.46246  -0.44119
 Alpha  occ. eigenvalues --   -0.41810
 Alpha virt. eigenvalues --    0.03689   0.04411   0.05710   0.06279   0.07330
 Alpha virt. eigenvalues --    0.08800   0.09645   0.10702   0.11137   0.12286
 Alpha virt. eigenvalues --    0.13314   0.13617   0.14236   0.15935   0.16576

  Beta  occ. eigenvalues --  -20.61293 -20.57521 -20.56283 -11.40875 -11.32676
  Beta  occ. eigenvalues --  -11.29721 -11.25382 -11.22425  -1.48365  -1.38479
  Beta  occ. eigenvalues --   -1.28748  -1.07298  -1.03238  -0.91280  -0.82589
  Beta  occ. eigenvalues --   -0.76398  -0.71592  -0.69863  -0.67895  -0.64422
  Beta  occ. eigenvalues --   -0.62499  -0.58024  -0.55708  -0.54096  -0.51830
  Beta  occ. eigenvalues --   -0.50410  -0.49127  -0.46959  -0.46321  -0.42711
  Beta virt. eigenvalues --    0.03767   0.04213   0.04473   0.06241   0.06675
  Beta virt. eigenvalues --    0.07599   0.09087   0.09617   0.10389   0.11929
  Beta virt. eigenvalues --    0.12794   0.13586   0.13912   0.15849   0.16244

 Mulliken charges and spin densities:
               1          2
     1  C    0.096927   1.650684
     2  H    0.246966  -0.104916
     3  C   -0.015193  -1.135325
     4  C   -0.202686   0.161384
     5  O   -0.272551  -0.055196
     6  O   -0.081631   0.003165
     7  C   -0.174770   0.001536
     8  C   -0.390701   0.000862
     9  H    0.160992   0.000018
    10  H    0.177601   0.000016
    11  H    0.136433  -0.000120
    12  H    0.141929  -0.000011
    13  H    0.185336  -0.000874
    14  O   -0.253907   0.493545
    15  H    0.245254  -0.014766
 Sum of Mulliken charges =  -0.00000   1.00000

 Dipole moment (field-independent basis, Debye):
    X=             -0.0997    Y=              0.5973    Z=             -3.2963  Tot=              3.3514
 Quadrupole moment (field-independent basis, Debye-Ang):
   XX=            -33.3753   YY=            -48.7096   ZZ=            -51.6017
   XY=              1.2318   XZ=              3.3342   YZ=             -0.0921

 \PMP3-0=-419.294596\MP4SDQ=-419.3063377\CCSD=-419.3128422\CCSD(T)=-419
 Normal termination of Gaussian 16 at Fri Aug 29 05:18:16 2025.
