 Gaussian 16, Revision A.03,
 Gaussian 16:  ES64L-G16RevA.03 25-Dec-2016

 -------------------
 # freq 6-31+g m062x
 -------------------

 -------------------
 Title Card Required
 -------------------
 Symbolic Z-matrix:
 Charge =  0 Multiplicity = 2

                         Standard orientation:
 ---------------------------------------------------------------------
 Center     Atomic      Atomic             Coordinates (Angstroms)
 Number     Number       Type             X           Y           Z
 ---------------------------------------------------------------------
      1          6           0       -2.807636   -0.438372   -0.394392
      2          1           0       -3.852188   -0.463825   -0.601118
      3          6           0       -1.632350   -0.360756   -0.137866
      4          6           0       -0.221248   -0.607353    0.161389
      5          8           0        0.147135   -1.152302    1.161272
      6          8           0        0.559348   -0.190432   -0.833761
      7          6           0        1.978621   -0.339095   -0.622837
      8          6           0        2.504002    0.762290    0.275993
      9          1           0        2.402995   -0.283679   -1.623727
     10          1           0        2.168231   -1.326833   -0.201244
     11          1           0        3.586735    0.667153    0.378675
     12          1           0        2.279445    1.740935   -0.150499
     13          1           0        2.055009    0.695497    1.267158
     14          8           0       -1.458066    1.698990    0.391991
     15          1           0       -1.555896    2.020423   -0.518981
 ---------------------------------------------------------------------

 SCF Done:  E(UM062X) =  -419.956427941     A.U. after   23 cycles

 The electronic state is 2-A.
 Alpha  occ. eigenvalues --  -19.70672 -19.69282 -19.66238 -10.72979 -10.61595
 Alpha  occ. eigenvalues --  -10.60025 -10.59537 -10.54448  -1.28032  -1.18707
 Alpha  occ. eigenvalues --   -1.13852  -0.91589  -0.88129  -0.78665  -0.71275
 Alpha  occ. eigenvalues --   -0.64741  -0.62236  -0.58731  -0.57040  -0.54460
 Alpha  occ. eigenvalues --   -0.53825  -0.50367  -0.48871  -0.46570  -0.45262
 Alpha  occ. eigenvalues --   -0.42084  -0.42044  -0.39256  -0.38298  -0.36957
 Alpha  occ. eigenvalues --   -0.35188
 Alpha virt. eigenvalues --   -0.00970   0.01884   0.02349   0.03558   0.03671
 Alpha virt. eigenvalues --    0.03778   0.05174   0.06392   0.07502   0.08048
 Alpha virt. eigenvalues --    0.08487   0.09014   0.09632   0.12005   0.12542

  Beta  occ. eigenvalues --  -19.70676 -19.67701 -19.66255 -10.72959 -10.61595
  Beta  occ. eigenvalues --  -10.60042 -10.59377 -10.54449  -1.28040  -1.18737
  Beta  occ. eigenvalues --   -1.07253  -0.91226  -0.87834  -0.78539  -0.71138
  Beta  occ. eigenvalues --   -0.64688  -0.61846  -0.58605  -0.56863  -0.53954
  Beta  occ. eigenvalues --   -0.51496  -0.49342  -0.46892  -0.45303  -0.42042
  Beta  occ. eigenvalues --   -0.40497  -0.38718  -0.38229  -0.37479  -0.36661
  Beta virt. eigenvalues --   -0.09147  -0.00215   0.01914   0.02415   0.03611
  Beta virt. eigenvalues --    0.03719   0.04036   0.05133   0.06492   0.07580
  Beta virt. eigenvalues --    0.07984   0.08590   0.09055   0.09717   0.12171

 Mulliken charges and spin densities:
               1          2
     1  C   -0.016281   0.204831
     2  H    0.329288  -0.009288
     3  C   -0.231115  -0.070864
     4  C    0.141300   0.045744
     5  O   -0.326430  -0.007482
     6  O   -0.209169  -0.003413
     7  C   -0.243464  -0.001030
     8  C   -0.557731   0.000910
     9  H    0.218723  -0.000006
    10  H    0.234732  -0.000121
    11  H    0.206761  -0.000018
    12  H    0.218665  -0.000053
    13  H    0.243350  -0.000050
    14  O   -0.418373   0.873458
    15  H    0.409743  -0.032618
 Sum of Mulliken charges =  -0.00000   1.00000

 Dipole moment (field-independent basis, Debye):
    X=              0.1304    Y=              0.6843    Z=             -3.2467  Tot=              3.3206
 Quadrupole moment (field-independent basis, Debye-Ang):
   XX=            -33.0918   YY=            -48.2486   ZZ=            -52.4652
   XY=              0.9361   XZ=              3.4411   YZ=             -0.4765

  Exact polarizability:  86.808   5.643  65.258   4.999  -0.485  55.921
 Approx polarizability:  91.984   4.719  65.663   9.534  -5.649  69.343

 ******    4 imaginary frequencies (negative Signs) ******

                      1                      2                      3
                      A                      A                      A
 Frequencies --   -495.5584              -196.2495              -126.2637
 Red. masses --      1.0765                 5.7527                 6.0926
 Frc consts  --      0.1558                 0.1305                 0.0572
 IR Inten    --    122.2272                 3.9514                 6.3738

                      4                      5                      6
                      A                      A                      A
 Frequencies --    -33.4745                51.8736                82.6875
 Red. masses --      3.7336                 3.0447                 3.8084
 Frc consts  --      0.0025                 0.0048                 0.0153
 IR Inten    --      3.3888                 1.1391                 5.3039

                      7                      8                      9
                      A                      A                      A
 Frequencies --    130.4397               178.7108               196.0950
 Red. masses --      4.2152                 1.4470                 3.8328
 Frc consts  --      0.0423                 0.0272                 0.0868
 IR Inten    --      1.0107                 2.6333                 1.9165

                     10                     11                     12
                      A                      A                      A
 Frequencies --    311.3460               390.5896               419.2429
 Red. masses --      2.8975                 1.1948                 3.5825
 Frc consts  --      0.1655                 0.1074                 0.3710
 IR Inten    --     14.4662               106.8693                 7.5263

                     13                     14                     15
                      A                      A                      A
 Frequencies --    567.8328               626.6328               728.5307
 Red. masses --      4.1495                 5.4936                 2.8237
 Frc consts  --      0.7883                 1.2710                 0.8830
 IR Inten    --      4.5408                21.8406                 4.0057

                     16                     17                     18
                      A                      A                      A
 Frequencies --    740.9618               771.1608               817.9736
 Red. masses --      1.7838                 1.4316                 1.2772
 Frc consts  --      0.5770                 0.5016                 0.5035
 IR Inten    --     90.7998                53.4511                 5.7379

                     19                     20                     21
                      A                      A                      A
 Frequencies --    899.3032               944.5624              1111.5010
 Red. masses --      3.3922                 2.5079                 4.1777
 Frc consts  --      1.6164                 1.3183                 3.0410
 IR Inten    --     18.6515                 5.4167                 8.8934

                     22                     23                     24
                      A                      A                      A
 Frequencies --   1158.6014              1228.1152              1322.3664
 Red. masses --      2.0939                 1.7600                 2.2974
 Frc consts  --      1.6560                 1.5640                 2.3669
 IR Inten    --     17.3959                 5.8704               371.7787

                     25                     26                     27
                      A                      A                      A
 Frequencies --   1368.0253              1441.9966              1458.1095
 Red. masses --      1.5960                 1.3562                 1.2588
 Frc consts  --      1.7598                 1.6615                 1.5768
 IR Inten    --    229.4189                28.2332                19.1312

                     28                     29                     30
                      A                      A                      A
 Frequencies --   1526.8570              1537.0076              1544.4561
 Red. masses --      1.0415                 1.0565                 1.0864
 Frc consts  --      1.4306                 1.4705                 1.5268
 IR Inten    --     14.2990                 2.9972                26.8218

                     31                     32                     33
                      A                      A                      A
 Frequencies --   1919.9102              2274.2146              3107.5481
 Red. masses --     12.3053                 5.7811                 1.0352
 Frc consts  --     26.7242                17.6168                 5.8900
 IR Inten    --    312.5810                73.8385                12.7432

                     34                     35                     36
                      A                      A                      A
 Frequencies --   3137.4623              3186.3184              3191.1138
 Red. masses --      1.0600                 1.1008                 1.1025
 Frc consts  --      6.1477                 6.5847                 6.6146
 IR Inten    --     21.1444                13.4443                 8.0349

                     37                     38                     39
                      A                      A                      A
 Frequencies --   3211.4775              3527.8916              3815.5040
 Red. masses --      1.1049                 1.1693                 1.0672
 Frc consts  --      6.7139                 8.5747                 9.1534
 IR Inten    --     16.7306                61.5162                15.7529

 - Thermochemistry -
 -------------------
 Temperature   298.150 Kelvin.  Pressure   1.00000 Atm.
 Atom     1 has atomic number  6 and mass  12.00000

 Molecular mass:   115.03952 amu.
 Principal axes and moments of inertia in atomic units:
                           1         2         3
     Eigenvalues --   510.311331381.859951547.97632
           X            0.99989   0.01222   0.00807
           Y           -0.01236   0.99977   0.01734
           Z           -0.00786  -0.01744   0.99982
 This molecule is an asymmetric top.
 Rotational symmetry number  1.
 Warning -- assumption of classical behavior for rotation
           may cause significant error
 Rotational temperatures (Kelvin)      0.16973     0.06268     0.05595
 Rotational constants (GHZ):           3.53655     1.30602     1.16587
    4 imaginary frequencies ignored.
 Zero-point vibrational energy     292645.0 (Joules/Mol)
                                   69.94383 (Kcal/Mol)
 Warning -- explicit consideration of   9 degrees of freedom as
           vibrations may cause significant error
 Vibrational temperatures:     74.63   118.97   187.67   257.12   282.14
          (Kelvin)            447.96   561.97   603.20   816.98   901.58
                             1048.19  1066.08  1109.53  1176.88  1293.90
                             1359.01  1599.20  1666.97  1766.98  1902.59
                             1968.28  2074.71  2097.89  2196.81  2211.41
                             2222.13  2762.32  3272.09  4471.07  4514.11
                             4584.40  4591.30  4620.60  5075.85  5489.66

 Zero-point correction=                           0.111463 (Hartree/Particle)
 Thermal correction to Energy=                    0.119637
 Thermal correction to Enthalpy=                  0.120581
 Thermal correction to Gibbs Free Energy=         0.077036
 Sum of electronic and zero-point Energies=           -419.844965
 Sum of electronic and thermal Energies=              -419.836791
 Sum of electronic and thermal Enthalpies=            -419.835847
 Sum of electronic and thermal Free Energies=         -419.879392

                     E (Thermal)             CV                S
                      KCal/Mol        Cal/Mol-Kelvin    Cal/Mol-Kelvin
 Total                   75.073             27.320             91.647
 Electronic               0.000              0.000              1.377
 Translational            0.889              2.981             40.136
 Rotational               0.889              2.981             28.481
 Vibrational             73.296             21.358             21.653
 Vibration     1          0.596              1.977              4.745
 Vibration     2          0.600              1.961              3.826
 Vibration     3          0.612              1.923              2.940
 Vibration     4          0.629              1.868              2.342
 Vibration     5          0.636              1.845              2.169
 Vibration     6          0.700              1.652              1.355
 Vibration     7          0.758              1.490              0.998
 Vibration     8          0.782              1.428              0.895
 Vibration     9          0.924              1.101              0.508

 Normal termination of Gaussian 16 at Fri Jun 20 13:41:55 2025.
