 Gaussian 16, Revision A.03,
 Gaussian 16:  ES64L-G16RevA.03 25-Dec-2016

 --------------------------
 # ccsd(t)/6-311++g(d,p) sp
 --------------------------

 -------------------
 Title Card Required
 -------------------
 Symbolic Z-matrix:
 Charge =  0 Multiplicity = 2

                         Standard orientation:
 ---------------------------------------------------------------------
 Center     Atomic      Atomic             Coordinates (Angstroms)
 Number     Number       Type             X           Y           Z
 ---------------------------------------------------------------------
      1          6           0       -2.817728   -0.447694   -0.382631
      2          1           0       -3.865575   -0.418994   -0.571335
      3          6           0       -1.638731   -0.471887   -0.154867
      4          6           0       -0.223842   -0.632283    0.170516
      5          8           0        0.158121   -1.119017    1.195692
      6          8           0        0.553432   -0.213627   -0.828376
      7          6           0        1.974238   -0.352343   -0.617097
      8          6           0        2.505530    0.768693    0.252966
      9          1           0        2.395361   -0.321546   -1.620511
     10          1           0        2.165616   -1.329485   -0.172076
     11          1           0        3.588517    0.672625    0.352716
     12          1           0        2.282676    1.737754   -0.195820
     13          1           0        2.060574    0.726697    1.247131
     14          8           0       -1.448620    1.798533    0.372382
     15          1           0       -1.527434    2.018922   -0.571007
 ---------------------------------------------------------------------

 SCF Done:  E(UHF) =  -417.991766950     A.U. after   38 cycles
 E2 =    -0.1261707953D+01 EUMP2 =    -0.41925347490279D+03
 CCSD(T)= -0.41935744270D+03

 The electronic state is 2-A.
 Alpha  occ. eigenvalues --  -20.63054 -20.61379 -20.55822 -11.41568 -11.29759
 Alpha  occ. eigenvalues --  -11.26800 -11.25835 -11.22472  -1.48191  -1.38589
 Alpha  occ. eigenvalues --   -1.37946  -1.07815  -1.04181  -0.92600  -0.83835
 Alpha  occ. eigenvalues --   -0.76494  -0.73067  -0.69527  -0.67971  -0.67133
 Alpha  occ. eigenvalues --   -0.65059  -0.63245  -0.58363  -0.55935  -0.54096
 Alpha  occ. eigenvalues --   -0.54023  -0.50552  -0.47911  -0.46376  -0.42791
 Alpha  occ. eigenvalues --   -0.42173
 Alpha virt. eigenvalues --    0.03653   0.04406   0.05642   0.06297   0.07292
 Alpha virt. eigenvalues --    0.08926   0.09334   0.09763   0.10991   0.11664
 Alpha virt. eigenvalues --    0.13572   0.13728   0.14425   0.16152   0.16461

  Beta  occ. eigenvalues --  -20.61383 -20.58948 -20.56085 -11.41380 -11.29760
  Beta  occ. eigenvalues --  -11.26697 -11.25753 -11.22473  -1.48300  -1.38362
  Beta  occ. eigenvalues --   -1.23153  -1.07837  -1.03786  -0.92165  -0.83679
  Beta  occ. eigenvalues --   -0.76434  -0.72585  -0.69691  -0.66661  -0.63528
  Beta  occ. eigenvalues --   -0.63095  -0.58563  -0.55309  -0.54114  -0.50710
  Beta  occ. eigenvalues --   -0.50487  -0.48243  -0.47053  -0.42831  -0.42432
  Beta virt. eigenvalues --    0.03678   0.04358   0.05103   0.06294   0.07108
  Beta virt. eigenvalues --    0.08611   0.09346   0.09505   0.10449   0.10854
  Beta virt. eigenvalues --    0.12435   0.13740   0.13888   0.14907   0.16323

 Mulliken charges and spin densities:
               1          2
     1  C   -0.531713   0.476881
     2  H    0.225551  -0.033852
     3  C    1.026034  -0.402919
     4  C   -0.704995   0.057500
     5  O   -0.264362  -0.054048
     6  O   -0.083338  -0.001447
     7  C   -0.139836   0.000822
     8  C   -0.386788   0.000335
     9  H    0.164643  -0.000144
    10  H    0.178192  -0.000248
    11  H    0.137314   0.000059
    12  H    0.135935  -0.000152
    13  H    0.188194  -0.000098
    14  O   -0.160433   0.999200
    15  H    0.215603  -0.041889
 Sum of Mulliken charges =  -0.00000   1.00000

 Dipole moment (field-independent basis, Debye):
    X=              0.0944    Y=              1.2079    Z=             -3.2065  Tot=              3.4278
 Quadrupole moment (field-independent basis, Debye-Ang):
   XX=            -33.6088   YY=            -47.7010   ZZ=            -51.7923
   XY=             -0.1216   XZ=              2.8325   YZ=             -0.3979

 83\PMP3-0=-419.284847\MP4SDQ=-419.3050583\CCSD=-419.3049816\CCSD(T)=-4
 Normal termination of Gaussian 16 at Sun Aug  3 21:39:09 2025.
