 Gaussian 16, Revision A.03,
 Gaussian 16:  ES64L-G16RevA.03 25-Dec-2016

 -------------------
 # freq 6-31+g m062x
 -------------------

 -------------------
 Title Card Required
 -------------------
 Symbolic Z-matrix:
 Charge =  0 Multiplicity = 2

                         Standard orientation:
 ---------------------------------------------------------------------
 Center     Atomic      Atomic             Coordinates (Angstroms)
 Number     Number       Type             X           Y           Z
 ---------------------------------------------------------------------
      1          6           0       -2.788627   -0.448950   -0.426304
      2          1           0       -3.834673   -0.456016   -0.640328
      3          6           0       -1.621407   -0.090355   -0.079020
      4          6           0       -0.222881   -0.598551    0.132545
      5          8           0        0.135136   -1.218872    1.090341
      6          8           0        0.562421   -0.148651   -0.843373
      7          6           0        1.982141   -0.305024   -0.636312
      8          6           0        2.500730    0.748952    0.322296
      9          1           0        2.409486   -0.194428   -1.631212
     10          1           0        2.173621   -1.313374   -0.268090
     11          1           0        3.583251    0.649934    0.423553
     12          1           0        2.274991    1.748463   -0.051625
     13          1           0        2.048858    0.629195    1.307267
     14          8           0       -1.473412    1.506590    0.426611
     15          1           0       -1.548434    1.987265   -0.407434
 ---------------------------------------------------------------------

 SCF Done:  E(UM062X) =  -419.969708559     A.U. after   19 cycles

 The electronic state is 2-A.
 Alpha  occ. eigenvalues --  -19.70818 -19.67029 -19.66676 -10.72787 -10.64830
 Alpha  occ. eigenvalues --  -10.61688 -10.61146 -10.54507  -1.28281  -1.18940
 Alpha  occ. eigenvalues --   -1.13183  -0.91987  -0.88461  -0.78781  -0.71600
 Alpha  occ. eigenvalues --   -0.65036  -0.62474  -0.59763  -0.57656  -0.55132
 Alpha  occ. eigenvalues --   -0.53743  -0.49279  -0.48382  -0.46724  -0.45380
 Alpha  occ. eigenvalues --   -0.42344  -0.41611  -0.38443  -0.37560  -0.37312
 Alpha  occ. eigenvalues --   -0.31161
 Alpha virt. eigenvalues --    0.00121   0.01685   0.02229   0.02650   0.03596
 Alpha virt. eigenvalues --    0.03977   0.05211   0.06602   0.07507   0.08233
 Alpha virt. eigenvalues --    0.08491   0.09099   0.09510   0.11374   0.12262

  Beta  occ. eigenvalues --  -19.70815 -19.66684 -19.66470 -10.72721 -10.65008
  Beta  occ. eigenvalues --  -10.61687 -10.60456 -10.54507  -1.28248  -1.18934
  Beta  occ. eigenvalues --   -1.11371  -0.90900  -0.87436  -0.78204  -0.70761
  Beta  occ. eigenvalues --   -0.64835  -0.61360  -0.59392  -0.57396  -0.54397
  Beta  occ. eigenvalues --   -0.53372  -0.49040  -0.47116  -0.45350  -0.44769
  Beta  occ. eigenvalues --   -0.42045  -0.40367  -0.38408  -0.36859  -0.35832
  Beta virt. eigenvalues --   -0.08657   0.00707   0.01570   0.02393   0.02981
  Beta virt. eigenvalues --    0.03668   0.04047   0.04990   0.06450   0.07556
  Beta virt. eigenvalues --    0.07994   0.08427   0.08769   0.09514   0.11750

 Mulliken charges and spin densities:
               1          2
     1  C    0.315855   1.051296
     2  H    0.283929  -0.036345
     3  C   -0.397099  -0.328545
     4  C    0.103627   0.053470
     5  O   -0.337159  -0.000794
     6  O   -0.207761  -0.000006
     7  C   -0.239671   0.001835
     8  C   -0.564650   0.000815
     9  H    0.220418  -0.000001
    10  H    0.236824  -0.000173
    11  H    0.206814  -0.000020
    12  H    0.221352   0.000049
    13  H    0.241482   0.000059
    14  O   -0.521732   0.263563
    15  H    0.437772  -0.005203
 Sum of Mulliken charges =  -0.00000   1.00000

 Dipole moment (field-independent basis, Debye):
    X=              0.1311    Y=              0.3864    Z=             -3.3137  Tot=              3.3387
 Quadrupole moment (field-independent basis, Debye-Ang):
   XX=            -33.2473   YY=            -49.3298   ZZ=            -52.6078
   XY=              1.3643   XZ=              3.6973   YZ=             -0.4840

  Exact polarizability:  83.315   5.889  64.780   4.504  -0.143  55.676
 Approx polarizability:  82.995   7.723  74.010   7.901  -3.245  69.259

 ******    3 imaginary frequencies (negative Signs) ******

                      1                      2                      3
                      A                      A                      A
 Frequencies --   -494.6937              -424.7489               -71.5560
 Red. masses --      1.0609                 3.4998                 6.2039
 Frc consts  --      0.1530                 0.3720                 0.0187
 IR Inten    --    128.2568               107.2394                 1.9753

                      4                      5                      6
                      A                      A                      A
 Frequencies --     39.7819                63.1954               149.5499
 Red. masses --      2.5961                 3.4726                 1.6135
 Frc consts  --      0.0024                 0.0082                 0.0213
 IR Inten    --      3.0079                 6.5957                 3.1183

                      7                      8                      9
                      A                      A                      A
 Frequencies --    197.7342               207.1767               258.4729
 Red. masses --      1.7333                 1.8656                 5.7992
 Frc consts  --      0.0399                 0.0472                 0.2283
 IR Inten    --      7.8097                 2.5774                 2.1997

                     10                     11                     12
                      A                      A                      A
 Frequencies --    316.8692               369.5343               441.2463
 Red. masses --      3.1795                 7.5223                 3.7519
 Frc consts  --      0.1881                 0.6052                 0.4304
 IR Inten    --     19.3823                 0.1320                 4.9189

                     13                     14                     15
                      A                      A                      A
 Frequencies --    596.8051               615.0871               714.7741
 Red. masses --      4.4313                 4.7636                 1.3043
 Frc consts  --      0.9299                 1.0618                 0.3926
 IR Inten    --      4.0132                23.2642                53.8806

                     16                     17                     18
                      A                      A                      A
 Frequencies --    734.9680               812.7462               888.8269
 Red. masses --      9.5970                 1.3358                 2.8485
 Frc consts  --      3.0544                 0.5199                 1.3259
 IR Inten    --     22.5012                 7.8686                20.2299

                     19                     20                     21
                      A                      A                      A
 Frequencies --    934.9011              1018.9458              1102.9479
 Red. masses --      2.4824                 1.2945                 4.1966
 Frc consts  --      1.2783                 0.7919                 3.0079
 IR Inten    --      1.3905                35.2557                11.2205

                     22                     23                     24
                      A                      A                      A
 Frequencies --   1156.5133              1226.5944              1311.4634
 Red. masses --      2.0607                 1.7540                 2.8421
 Frc consts  --      1.6239                 1.5548                 2.8801
 IR Inten    --     16.7354                 8.2586               395.8577

                     25                     26                     27
                      A                      A                      A
 Frequencies --   1362.6219              1438.9030              1458.7578
 Red. masses --      1.4395                 1.3388                 1.2445
 Frc consts  --      1.5747                 1.6331                 1.5603
 IR Inten    --    159.3878                14.7794                20.5577

                     28                     29                     30
                      A                      A                      A
 Frequencies --   1526.9816              1536.6951              1544.7907
 Red. masses --      1.0410                 1.0522                 1.0893
 Frc consts  --      1.4302                 1.4639                 1.5315
 IR Inten    --     14.4292                 2.7191                23.8297

                     31                     32                     33
                      A                      A                      A
 Frequencies --   1864.4548              1934.6395              3107.8641
 Red. masses --      7.4431                11.3700                 1.0351
 Frc consts  --     15.2443                25.0732                 5.8907
 IR Inten    --     48.7181               255.5274                11.8856

                     34                     35                     36
                      A                      A                      A
 Frequencies --   3139.5359              3187.9440              3191.0293
 Red. masses --      1.0601                 1.1009                 1.1022
 Frc consts  --      6.1563                 6.5918                 6.6123
 IR Inten    --     21.0019                12.3273                 7.8387

                     37                     38                     39
                      A                      A                      A
 Frequencies --   3211.8496              3476.0116              3874.1713
 Red. masses --      1.1053                 1.1258                 1.0669
 Frc consts  --      6.7179                 8.0145                 9.4345
 IR Inten    --     16.5192                62.1907                39.1323

 - Thermochemistry -
 -------------------
 Temperature   298.150 Kelvin.  Pressure   1.00000 Atm.
 Atom     1 has atomic number  6 and mass  12.00000

 Molecular mass:   115.03952 amu.
 Principal axes and moments of inertia in atomic units:
                           1         2         3
     Eigenvalues --   471.092351373.560181508.65101
           X            0.99989   0.01193   0.00909
           Y           -0.01220   0.99947   0.03018
           Z           -0.00873  -0.03029   0.99950
 This molecule is an asymmetric top.
 Rotational symmetry number  1.
 Warning -- assumption of classical behavior for rotation
           may cause significant error
 Rotational temperatures (Kelvin)      0.18386     0.06306     0.05741
 Rotational constants (GHZ):           3.83097     1.31391     1.19626
    3 imaginary frequencies ignored.
 Zero-point vibrational energy     293171.1 (Joules/Mol)
                                   70.06958 (Kcal/Mol)
 Warning -- explicit consideration of  11 degrees of freedom as
           vibrations may cause significant error
 Vibrational temperatures:     57.24    90.92   215.17   284.50   298.08
          (Kelvin)            371.88   455.90   531.68   634.86   858.67
                              884.97  1028.40  1057.46  1169.36  1278.82
                             1345.11  1466.04  1586.90  1663.96  1764.80
                             1886.90  1960.51  2070.26  2098.83  2196.99
                             2210.96  2222.61  2682.53  2783.51  4471.52
                             4517.09  4586.74  4591.18  4621.14  5001.21
                             5574.07

 Zero-point correction=                           0.111663 (Hartree/Particle)
 Thermal correction to Energy=                    0.120241
 Thermal correction to Enthalpy=                  0.121186
 Thermal correction to Gibbs Free Energy=         0.076734
 Sum of electronic and zero-point Energies=           -419.858046
 Sum of electronic and thermal Energies=              -419.849467
 Sum of electronic and thermal Enthalpies=            -419.848523
 Sum of electronic and thermal Free Energies=         -419.892975

                     E (Thermal)             CV                S
                      KCal/Mol        Cal/Mol-Kelvin    Cal/Mol-Kelvin
 Total                   75.453             28.731             93.557
 Electronic               0.000              0.000              1.377
 Translational            0.889              2.981             40.136
 Rotational               0.889              2.981             28.370
 Vibrational             73.675             22.770             23.674
 Vibration     1          0.594              1.981              5.270
 Vibration     2          0.597              1.972              4.355
 Vibration     3          0.618              1.903              2.678
 Vibration     4          0.637              1.843              2.154
 Vibration     5          0.641              1.830              2.068
 Vibration     6          0.667              1.748              1.672
 Vibration     7          0.704              1.641              1.326
 Vibration     8          0.742              1.535              1.082
 Vibration     9          0.801              1.380              0.823
 Vibration    10          0.955              1.039              0.455
 Vibration    11          0.975              1.000              0.424

 Normal termination of Gaussian 16 at Fri Jun 20 13:43:29 2025.
