 Gaussian 16, Revision A.03,
 Gaussian 16:  ES64L-G16RevA.03 25-Dec-2016

 --------------------------
 # freq 6-311++g(d,p) m062x
 --------------------------

 -------------------
 Title Card Required
 -------------------
 Symbolic Z-matrix:
 Charge =  0 Multiplicity = 2

                         Standard orientation:
 ---------------------------------------------------------------------
 Center     Atomic      Atomic             Coordinates (Angstroms)
 Number     Number       Type             X           Y           Z
 ---------------------------------------------------------------------
      1          6           0       -2.798467   -0.438456   -0.410243
      2          1           0       -3.840449   -0.487224   -0.628887
      3          6           0       -1.626247   -0.215702   -0.109230
      4          6           0       -0.219688   -0.598830    0.147167
      5          8           0        0.139128   -1.188514    1.123548
      6          8           0        0.561108   -0.168455   -0.839281
      7          6           0        1.980816   -0.321602   -0.630157
      8          6           0        2.502213    0.755072    0.300813
      9          1           0        2.406453   -0.236746   -1.628314
     10          1           0        2.171157   -1.320802   -0.237050
     11          1           0        3.584790    0.657534    0.402911
     12          1           0        2.276858    1.745047   -0.097819
     13          1           0        2.051413    0.660346    1.288939
     14          8           0       -1.466256    1.593784    0.412078
     15          1           0       -1.553827    2.004442   -0.460641
 ---------------------------------------------------------------------

 SCF Done:  E(UM062X) =  -420.203982039     A.U. after   22 cycles

 The electronic state is 2-A.
 Alpha  occ. eigenvalues --  -19.68392 -19.64533 -19.63422 -10.70777 -10.61339
 Alpha  occ. eigenvalues --  -10.60645 -10.59455 -10.53615  -1.25911  -1.16679
 Alpha  occ. eigenvalues --   -1.10820  -0.91523  -0.87845  -0.78394  -0.71000
 Alpha  occ. eigenvalues --   -0.64840  -0.62505  -0.58936  -0.57249  -0.53925
 Alpha  occ. eigenvalues --   -0.53168  -0.49569  -0.48475  -0.46154  -0.45314
 Alpha  occ. eigenvalues --   -0.42053  -0.41326  -0.38756  -0.38236  -0.37328
 Alpha  occ. eigenvalues --   -0.32557
 Alpha virt. eigenvalues --   -0.00519  -0.00401   0.00430   0.01446   0.02243
 Alpha virt. eigenvalues --    0.02539   0.03182   0.04402   0.05500   0.05997
 Alpha virt. eigenvalues --    0.07043   0.07803   0.07947   0.10198   0.10362

  Beta  occ. eigenvalues --  -19.68395 -19.63441 -19.63438 -10.70737 -10.61463
  Beta  occ. eigenvalues --  -10.60644 -10.59049 -10.53616  -1.25906  -1.16716
  Beta  occ. eigenvalues --   -1.06811  -0.90546  -0.87116  -0.77970  -0.70508
  Beta  occ. eigenvalues --   -0.64659  -0.61810  -0.58850  -0.56966  -0.53486
  Beta  occ. eigenvalues --   -0.51618  -0.49035  -0.46717  -0.45308  -0.42009
  Beta  occ. eigenvalues --   -0.41823  -0.39236  -0.38629  -0.36640  -0.36324
  Beta virt. eigenvalues --   -0.09842  -0.00419   0.00391   0.00829   0.01724
  Beta virt. eigenvalues --    0.02366   0.02777   0.03190   0.04555   0.05560
  Beta virt. eigenvalues --    0.05927   0.07134   0.07604   0.07996   0.10340

 Mulliken charges and spin densities:
               1          2
     1  C   -0.044830   0.740548
     2  H    0.218910  -0.023917
     3  C    0.225788  -0.314210
     4  C   -0.375436   0.044463
     5  O   -0.190781  -0.009562
     6  O    0.001880  -0.001869
     7  C   -0.282119   0.000717
     8  C   -0.424080   0.002252
     9  H    0.191818   0.000293
    10  H    0.192673  -0.000098
    11  H    0.166748  -0.000041
    12  H    0.163324  -0.000525
    13  H    0.195796  -0.001393
    14  O   -0.264038   0.573383
    15  H    0.224346  -0.010041
 Sum of Mulliken charges =  -0.00000   1.00000

 Dipole moment (field-independent basis, Debye):
    X=              0.0299    Y=              0.1026    Z=             -3.1880  Tot=              3.1898
 Quadrupole moment (field-independent basis, Debye-Ang):
   XX=            -32.6352   YY=            -48.9700   ZZ=            -51.1858
   XY=              2.1021   XZ=              3.5370   YZ=             -0.3818

  Exact polarizability:  89.888   7.381  73.661   5.358   2.050  58.721
 Approx polarizability:  94.572   8.546  84.452   8.958  -0.785  75.749

 ******    1 imaginary frequencies (negative Signs) ******

                      1                      2                      3
                      A                      A                      A
 Frequencies --   -701.1340                57.7301                76.6060
 Red. masses --     12.5917                 2.4005                 3.4628
 Frc consts  --      3.6470                 0.0047                 0.0120
 IR Inten    --     16.4734                21.0391                 2.4781

                      4                      5                      6
                      A                      A                      A
 Frequencies --    100.1978               133.6319               183.8516
 Red. masses --      2.2573                 2.0127                 1.9355
 Frc consts  --      0.0134                 0.0212                 0.0385
 IR Inten    --     33.1718                21.1694                 9.4762

                      7                      8                      9
                      A                      A                      A
 Frequencies --    214.9037               231.6833               273.9925
 Red. masses --      6.5672                 1.7230                 2.8992
 Frc consts  --      0.1787                 0.0545                 0.1282
 IR Inten    --      7.7481                 4.3392                 5.5399

                     10                     11                     12
                      A                      A                      A
 Frequencies --    340.0950               433.4925               538.0849
 Red. masses --      3.0507                 3.6629                 1.4276
 Frc consts  --      0.2079                 0.4055                 0.2435
 IR Inten    --     12.1454                 2.0123                34.2206

                     13                     14                     15
                      A                      A                      A
 Frequencies --    571.2044               600.9439               713.3178
 Red. masses --      3.6912                 5.5433                 1.3154
 Frc consts  --      0.7096                 1.1795                 0.3944
 IR Inten    --      2.8679                10.4417                39.9815

                     16                     17                     18
                      A                      A                      A
 Frequencies --    767.5406               800.3065               884.4551
 Red. masses --      9.4777                 1.2132                 1.5606
 Frc consts  --      3.2897                 0.4578                 0.7193
 IR Inten    --     36.5727                 5.3871                40.6502

                     19                     20                     21
                      A                      A                      A
 Frequencies --    902.3527               920.4009              1071.3848
 Red. masses --      1.8918                 2.6669                 4.0679
 Frc consts  --      0.9076                 1.3311                 2.7511
 IR Inten    --     33.4881                 7.7241                24.7085

                     22                     23                     24
                      A                      A                      A
 Frequencies --   1127.8930              1202.6449              1274.4010
 Red. masses --      2.0928                 1.7805                 4.5130
 Frc consts  --      1.5686                 1.5173                 4.3185
 IR Inten    --     20.9983                 9.3217               550.5991

                     25                     26                     27
                      A                      A                      A
 Frequencies --   1344.1978              1401.3369              1430.2299
 Red. masses --      1.2006                 1.2690                 1.3627
 Frc consts  --      1.2781                 1.4683                 1.6423
 IR Inten    --     65.1453                17.7737                12.7926

                     28                     29                     30
                      A                      A                      A
 Frequencies --   1491.1888              1501.8227              1514.3662
 Red. masses --      1.0404                 1.0531                 1.0923
 Frc consts  --      1.3630                 1.3994                 1.4759
 IR Inten    --     10.7431                 1.2821                19.3736

                     31                     32                     33
                      A                      A                      A
 Frequencies --   1854.2922              2013.1166              3076.0983
 Red. masses --     11.7907                 6.8570                 1.0354
 Frc consts  --     23.8862                16.3727                 5.7726
 IR Inten    --    339.6665                60.8342                 8.9513

                     34                     35                     36
                      A                      A                      A
 Frequencies --   3107.9310              3151.8169              3155.3994
 Red. masses --      1.0609                 1.1017                 1.1047
 Frc consts  --      6.0377                 6.4480                 6.4802
 IR Inten    --     19.4659                14.1505                 2.8871

                     37                     38                     39
                      A                      A                      A
 Frequencies --   3175.7096              3462.3379              3832.0436
 Red. masses --      1.1071                 1.1370                 1.0676
 Frc consts  --      6.5785                 8.0305                 9.2369
 IR Inten    --     14.2690                77.4080                57.0415

 - Thermochemistry -
 -------------------
 Temperature   298.150 Kelvin.  Pressure   1.00000 Atm.
 Atom     1 has atomic number  6 and mass  12.00000

 Molecular mass:   115.03952 amu.
 Principal axes and moments of inertia in atomic units:
                           1         2         3
     Eigenvalues --   487.300231377.535671525.04536
           X            0.99989   0.01240   0.00872
           Y           -0.01261   0.99962   0.02440
           Z           -0.00841  -0.02451   0.99966
 This molecule is an asymmetric top.
 Rotational symmetry number  1.
 Warning -- assumption of classical behavior for rotation
           may cause significant error
 Rotational temperatures (Kelvin)      0.17774     0.06288     0.05679
 Rotational constants (GHZ):           3.70355     1.31012     1.18340
    1 imaginary frequencies ignored.
 Zero-point vibrational energy     292684.4 (Joules/Mol)
                                   69.95324 (Kcal/Mol)
 Warning -- explicit consideration of  13 degrees of freedom as
           vibrations may cause significant error
 Vibrational temperatures:     83.06   110.22   144.16   192.27   264.52
          (Kelvin)            309.20   333.34   394.21   489.32   623.70
                              774.18   821.84   864.62  1026.31  1104.32
                             1151.46  1272.53  1298.28  1324.25  1541.48
                             1622.79  1730.34  1833.58  1934.00  2016.21
                             2057.78  2145.49  2160.79  2178.84  2667.91
                             2896.43  4425.82  4471.62  4534.76  4539.92
                             4569.14  4981.53  5513.46

 Zero-point correction=                           0.111478 (Hartree/Particle)
 Thermal correction to Energy=                    0.121144
 Thermal correction to Enthalpy=                  0.122088
 Thermal correction to Gibbs Free Energy=         0.075749
 Sum of electronic and zero-point Energies=           -420.092504
 Sum of electronic and thermal Energies=              -420.082838
 Sum of electronic and thermal Enthalpies=            -420.081894
 Sum of electronic and thermal Free Energies=         -420.128233

                     E (Thermal)             CV                S
                      KCal/Mol        Cal/Mol-Kelvin    Cal/Mol-Kelvin
 Total                   76.019             32.407             97.529
 Electronic               0.000              0.000              1.377
 Translational            0.889              2.981             40.136
 Rotational               0.889              2.981             28.417
 Vibrational             74.242             26.445             27.600
 Vibration     1          0.596              1.974              4.533
 Vibration     2          0.599              1.965              3.976
 Vibration     3          0.604              1.949              3.450
 Vibration     4          0.613              1.920              2.893
 Vibration     5          0.631              1.862              2.289
 Vibration     6          0.645              1.818              2.002
 Vibration     7          0.653              1.793              1.866
 Vibration     8          0.676              1.721              1.571
 Vibration     9          0.720              1.595              1.212
 Vibration    10          0.794              1.397              0.847
 Vibration    11          0.893              1.166              0.569
 Vibration    12          0.927              1.094              0.502
 Vibration    13          0.959              1.030              0.448

 1\1\GINC-AJ\Freq\UM062X\6-311++G(d,p)\C5H7O3(2)\AAYUSH\23-Jun-2025\0\\
 # freq 6-311++g(d,p) m062x\\Title Card Required\\0,2\C,-2.798467,-0.43
 8456,-0.410243\H,-3.840449,-0.487224,-0.628887\C,-1.626247,-0.215702,-
 0.10923\C,-0.219688,-0.59883,0.147167\O,0.139128,-1.188514,1.123548\O,
 0.561108,-0.168455,-0.839281\C,1.980816,-0.321602,-0.630157\C,2.502213
 ,0.755072,0.300813\H,2.406453,-0.236746,-1.628314\H,2.171157,-1.320802
 ,-0.23705\H,3.58479,0.657534,0.402911\H,2.276858,1.745047,-0.097819\H,
 2.051413,0.660346,1.288939\O,-1.466256,1.593784,0.412078\H,-1.553827,2

 Normal termination of Gaussian 16 at Mon Jun 23 04:27:23 2025.
