 Gaussian 16, Revision A.03,
 Gaussian 16:  ES64L-G16RevA.03 25-Dec-2016

 --------------------------
 # ccsd(t)/6-311++g(d,p) sp
 --------------------------

 -------------------
 Title Card Required
 -------------------
 Symbolic Z-matrix:
 Charge =  0 Multiplicity = 2

                         Standard orientation:
 ---------------------------------------------------------------------
 Center     Atomic      Atomic             Coordinates (Angstroms)
 Number     Number       Type             X           Y           Z
 ---------------------------------------------------------------------
      1          6           0       -2.809525   -0.439428   -0.392269
      2          1           0       -3.854764   -0.457144   -0.596128
      3          6           0       -1.633285   -0.380365   -0.141326
      4          6           0       -0.221569   -0.610332    0.163037
      5          8           0        0.148798   -1.146752    1.166951
      6          8           0        0.558761   -0.193781   -0.832865
      7          6           0        1.978127   -0.341474   -0.621844
      8          6           0        2.504363    0.763297    0.272203
      9          1           0        2.402117   -0.290340   -1.623142
     10          1           0        2.167671   -1.327498   -0.196190
     11          1           0        3.587130    0.668268    0.374674
     12          1           0        2.279983    1.740285   -0.158190
     13          1           0        2.055814    0.700634    1.263813
     14          8           0       -1.456586    1.714883    0.388907
     15          1           0       -1.554403    2.020808   -0.527593
 ---------------------------------------------------------------------

 SCF Done:  E(UHF) =  -417.985586416     A.U. after   38 cycles
 E2 =    -0.1259402405D+01 EUMP2 =    -0.41924498882039D+03
 CCSD(T)= -0.41935482857D+03

 The electronic state is 2-A.
 Alpha  occ. eigenvalues --  -20.62759 -20.61273 -20.55684 -11.41458 -11.29706
 Alpha  occ. eigenvalues --  -11.26815 -11.25798 -11.22460  -1.48126  -1.38469
 Alpha  occ. eigenvalues --   -1.37827  -1.07824  -1.04267  -0.92660  -0.83780
 Alpha  occ. eigenvalues --   -0.76459  -0.73071  -0.69494  -0.68230  -0.66854
 Alpha  occ. eigenvalues --   -0.64875  -0.63088  -0.58188  -0.55812  -0.54019
 Alpha  occ. eigenvalues --   -0.53802  -0.50487  -0.47709  -0.46127  -0.42952
 Alpha  occ. eigenvalues --   -0.42079
 Alpha virt. eigenvalues --    0.03656   0.04398   0.05600   0.06282   0.07310
 Alpha virt. eigenvalues --    0.08871   0.09453   0.10060   0.10931   0.11601
 Alpha virt. eigenvalues --    0.13482   0.13709   0.14338   0.15752   0.16442

  Beta  occ. eigenvalues --  -20.61278 -20.58735 -20.56049 -11.41178 -11.29706
  Beta  occ. eigenvalues --  -11.27123 -11.25245 -11.22462  -1.48276  -1.38406
  Beta  occ. eigenvalues --   -1.23677  -1.07860  -1.03681  -0.91974  -0.83472
  Beta  occ. eigenvalues --   -0.76350  -0.72295  -0.69691  -0.66915  -0.63587
  Beta  occ. eigenvalues --   -0.63007  -0.58471  -0.55413  -0.54113  -0.50666
  Beta  occ. eigenvalues --   -0.50560  -0.48192  -0.47111  -0.43147  -0.42449
  Beta virt. eigenvalues --    0.03691   0.04344   0.04961   0.06284   0.07058
  Beta virt. eigenvalues --    0.08364   0.09291   0.09508   0.10622   0.11250
  Beta virt. eigenvalues --    0.12308   0.13631   0.13909   0.15146   0.15885

 Mulliken charges and spin densities:
               1          2
     1  C   -1.615413   0.741774
     2  H    0.203147  -0.054892
     3  C    1.595885  -0.691108
     4  C   -0.168455   0.155412
     5  O   -0.265471  -0.075550
     6  O   -0.077907   0.000345
     7  C   -0.151516   0.001899
     8  C   -0.391572   0.000464
     9  H    0.164208  -0.000026
    10  H    0.178104  -0.000072
    11  H    0.140607  -0.000065
    12  H    0.137423  -0.000123
    13  H    0.186942  -0.000592
    14  O   -0.157582   0.959988
    15  H    0.221599  -0.037455
 Sum of Mulliken charges =  -0.00000   1.00000

 Dipole moment (field-independent basis, Debye):
    X=              0.0570    Y=              1.2641    Z=             -3.1551  Tot=              3.3994
 Quadrupole moment (field-independent basis, Debye-Ang):
   XX=            -33.6030   YY=            -47.4584   ZZ=            -51.6884
   XY=             -0.0278   XZ=              2.9488   YZ=             -0.1230

 \MP4SDQ=-419.2990717\CCSD=-419.3016773\CCSD(T)=-419.3548286\S2=0.89781
 Normal termination of Gaussian 16 at Wed Aug 20 11:22:04 2025.
