 Gaussian 16, Revision A.03,
 Gaussian 16:  ES64L-G16RevA.03 25-Dec-2016

 --------------------------
 # freq 6-311++g(d,p) m062x
 --------------------------

 -------------------
 Title Card Required
 -------------------
 Symbolic Z-matrix:
 Charge =  0 Multiplicity = 2

                         Standard orientation:
 ---------------------------------------------------------------------
 Center     Atomic      Atomic             Coordinates (Angstroms)
 Number     Number       Type             X           Y           Z
 ---------------------------------------------------------------------
      1          6           0       -2.807636   -0.438372   -0.394392
      2          1           0       -3.852188   -0.463825   -0.601118
      3          6           0       -1.632350   -0.360756   -0.137866
      4          6           0       -0.221248   -0.607353    0.161389
      5          8           0        0.147135   -1.152302    1.161272
      6          8           0        0.559348   -0.190432   -0.833761
      7          6           0        1.978621   -0.339095   -0.622837
      8          6           0        2.504002    0.762290    0.275993
      9          1           0        2.402995   -0.283679   -1.623727
     10          1           0        2.168231   -1.326833   -0.201244
     11          1           0        3.586735    0.667153    0.378675
     12          1           0        2.279445    1.740935   -0.150499
     13          1           0        2.055009    0.695497    1.267158
     14          8           0       -1.458066    1.698990    0.391991
     15          1           0       -1.555896    2.020423   -0.518981
 ---------------------------------------------------------------------

 SCF Done:  E(UM062X) =  -420.203864349     A.U. after   24 cycles

 The electronic state is 2-A.
 Alpha  occ. eigenvalues --  -19.68248 -19.66707 -19.63100 -10.70622 -10.60562
 Alpha  occ. eigenvalues --  -10.58320 -10.57931 -10.53612  -1.25666  -1.16418
 Alpha  occ. eigenvalues --   -1.12673  -0.90842  -0.87410  -0.78155  -0.70684
 Alpha  occ. eigenvalues --   -0.64547  -0.61859  -0.58613  -0.56858  -0.54682
 Alpha  occ. eigenvalues --   -0.53404  -0.50330  -0.48804  -0.46267  -0.45239
 Alpha  occ. eigenvalues --   -0.42172  -0.41979  -0.39236  -0.38478  -0.36677
 Alpha  occ. eigenvalues --   -0.35047
 Alpha virt. eigenvalues --   -0.00882  -0.00498   0.00497   0.01340   0.02195
 Alpha virt. eigenvalues --    0.02828   0.03594   0.04552   0.05436   0.06078
 Alpha virt. eigenvalues --    0.07149   0.07894   0.07945   0.10136   0.10577

  Beta  occ. eigenvalues --  -19.68253 -19.65191 -19.63116 -10.70605 -10.60562
  Beta  occ. eigenvalues --  -10.58325 -10.57782 -10.53612  -1.25673  -1.16454
  Beta  occ. eigenvalues --   -1.05882  -0.90443  -0.87054  -0.77993  -0.70524
  Beta  occ. eigenvalues --   -0.64485  -0.61489  -0.58547  -0.56582  -0.53484
  Beta  occ. eigenvalues --   -0.51895  -0.49188  -0.46667  -0.45274  -0.41978
  Beta  occ. eigenvalues --   -0.40512  -0.38769  -0.38094  -0.37626  -0.36360
  Beta virt. eigenvalues --   -0.09080  -0.00432  -0.00058   0.00591   0.01662
  Beta virt. eigenvalues --    0.02263   0.02935   0.03568   0.04673   0.05533
  Beta virt. eigenvalues --    0.06086   0.07231   0.07783   0.08017   0.10276

 Mulliken charges and spin densities:
               1          2
     1  C   -1.044623   0.252805
     2  H    0.191788  -0.011475
     3  C    1.078675  -0.102075
     4  C   -0.260496   0.030178
     5  O   -0.189304  -0.007340
     6  O    0.001359  -0.002479
     7  C   -0.270754  -0.001056
     8  C   -0.424870   0.001397
     9  H    0.192796   0.000112
    10  H    0.193835  -0.000060
    11  H    0.169315   0.000033
    12  H    0.160208  -0.000320
    13  H    0.195431  -0.001306
    14  O   -0.214948   0.862387
    15  H    0.221588  -0.020801
 Sum of Mulliken charges =  -0.00000   1.00000

 Dipole moment (field-independent basis, Debye):
    X=              0.1291    Y=              0.6725    Z=             -3.0599  Tot=              3.1356
 Quadrupole moment (field-independent basis, Debye-Ang):
   XX=            -33.2275   YY=            -48.1097   ZZ=            -51.2164
   XY=              1.0284   XZ=              3.1551   YZ=             -0.3827

  Exact polarizability:  91.419   5.944  69.513   5.161   0.435  58.476
 Approx polarizability:  98.387   4.621  74.805   8.950  -3.780  75.199

 ******    2 imaginary frequencies (negative Signs) ******

                      1                      2                      3
                      A                      A                      A
 Frequencies --   -185.9238               -36.2094                47.5312
 Red. masses --     10.9946                 4.3786                 4.9011
 Frc consts  --      0.2239                 0.0034                 0.0065
 IR Inten    --     20.8231                 3.6810                 2.0886

                      4                      5                      6
                      A                      A                      A
 Frequencies --    108.4380               134.8691               155.6217
 Red. masses --      3.1517                 3.3490                 2.6991
 Frc consts  --      0.0218                 0.0359                 0.0385
 IR Inten    --     12.3666                 7.3441                16.3979

                      7                      8                      9
                      A                      A                      A
 Frequencies --    190.7495               224.3124               247.9431
 Red. masses --      1.4674                 1.6481                 2.1737
 Frc consts  --      0.0315                 0.0489                 0.0787
 IR Inten    --     37.7387                 2.8381                19.0541

                     10                     11                     12
                      A                      A                      A
 Frequencies --    339.2633               425.9846               555.5867
 Red. masses --      2.9063                 3.8824                 3.7199
 Frc consts  --      0.1971                 0.4151                 0.6765
 IR Inten    --     12.2494                 1.0666                 7.9680

                     13                     14                     15
                      A                      A                      A
 Frequencies --    593.7512               649.3659               729.1357
 Red. masses --      2.7451                 1.4488                 1.3154
 Frc consts  --      0.5702                 0.3600                 0.4120
 IR Inten    --     19.1237                79.8393                29.2978

                     16                     17                     18
                      A                      A                      A
 Frequencies --    730.5054               773.1305               802.8710
 Red. masses --      1.3277                 8.0751                 1.2122
 Frc consts  --      0.4175                 2.8438                 0.4604
 IR Inten    --     25.3040                51.6296                 5.2966

                     19                     20                     21
                      A                      A                      A
 Frequencies --    896.5421               927.1049              1076.3266
 Red. masses --      3.2349                 2.7334                 4.1279
 Frc consts  --      1.5320                 1.3842                 2.8175
 IR Inten    --     14.7514                 5.3247                22.6838

                     22                     23                     24
                      A                      A                      A
 Frequencies --   1128.7226              1203.7270              1282.4154
 Red. masses --      2.0998                 1.7776                 4.3330
 Frc consts  --      1.5762                 1.5175                 4.1985
 IR Inten    --     22.3067                 6.2346               571.2446

                     25                     26                     27
                      A                      A                      A
 Frequencies --   1345.6021              1401.4697              1431.2182
 Red. masses --      1.2081                 1.2725                 1.3733
 Frc consts  --      1.2888                 1.4725                 1.6574
 IR Inten    --     74.3717                22.6739                11.7204

                     28                     29                     30
                      A                      A                      A
 Frequencies --   1491.3848              1502.4328              1514.5567
 Red. masses --      1.0407                 1.0552                 1.0906
 Frc consts  --      1.3639                 1.4034                 1.4740
 IR Inten    --     10.5521                 1.4674                20.1611

                     31                     32                     33
                      A                      A                      A
 Frequencies --   1853.2442              2209.0974              3075.6221
 Red. masses --     12.0796                 5.9856                 1.0355
 Frc consts  --     24.4438                17.2102                 5.7710
 IR Inten    --    341.0664                74.5175                 9.7626

                     34                     35                     36
                      A                      A                      A
 Frequencies --   3106.8267              3150.4051              3155.2743
 Red. masses --      1.0607                 1.1019                 1.1046
 Frc consts  --      6.0321                 6.4434                 6.4796
 IR Inten    --     19.6100                14.1374                 3.7742

                     37                     38                     39
                      A                      A                      A
 Frequencies --   3174.8811              3485.2745              3802.8149
 Red. masses --      1.1070                 1.1617                 1.0673
 Frc consts  --      6.5744                 8.3143                 9.0939
 IR Inten    --     14.5297                68.6700                39.2488

 - Thermochemistry -
 -------------------
 Temperature   298.150 Kelvin.  Pressure   1.00000 Atm.
 Atom     1 has atomic number  6 and mass  12.00000

 Molecular mass:   115.03952 amu.
 Principal axes and moments of inertia in atomic units:
                           1         2         3
     Eigenvalues --   510.311451381.859781547.97617
           X            0.99989   0.01222   0.00807
           Y           -0.01236   0.99977   0.01734
           Z           -0.00786  -0.01744   0.99982
 This molecule is an asymmetric top.
 Rotational symmetry number  1.
 Warning -- assumption of classical behavior for rotation
           may cause significant error
 Rotational temperatures (Kelvin)      0.16973     0.06268     0.05595
 Rotational constants (GHZ):           3.53655     1.30602     1.16587
    2 imaginary frequencies ignored.
 Zero-point vibrational energy     292630.5 (Joules/Mol)
                                   69.94037 (Kcal/Mol)
 Warning -- explicit consideration of  11 degrees of freedom as
           vibrations may cause significant error
 Vibrational temperatures:     68.39   156.02   194.05   223.90   274.45
          (Kelvin)            322.74   356.73   488.12   612.90   799.37
                              854.28   934.29  1049.06  1051.03  1112.36
                             1155.15  1289.92  1333.90  1548.59  1623.98
                             1731.89  1845.11  1936.02  2016.40  2059.20
                             2145.77  2161.67  2179.11  2666.41  3178.40
                             4425.13  4470.03  4532.73  4539.74  4567.95
                             5014.53  5471.40

 Zero-point correction=                           0.111457 (Hartree/Particle)
 Thermal correction to Energy=                    0.120470
 Thermal correction to Enthalpy=                  0.121414
 Thermal correction to Gibbs Free Energy=         0.076484
 Sum of electronic and zero-point Energies=           -420.092407
 Sum of electronic and thermal Energies=              -420.083394
 Sum of electronic and thermal Enthalpies=            -420.082450
 Sum of electronic and thermal Free Energies=         -420.127381

                     E (Thermal)             CV                S
                      KCal/Mol        Cal/Mol-Kelvin    Cal/Mol-Kelvin
 Total                   75.596             30.584             94.564
 Electronic               0.000              0.000              1.377
 Translational            0.889              2.981             40.136
 Rotational               0.889              2.981             28.481
 Vibrational             73.819             24.622             24.570
 Vibration     1          0.595              1.979              4.918
 Vibration     2          0.606              1.942              3.297
 Vibration     3          0.613              1.919              2.875
 Vibration     4          0.620              1.896              2.602
 Vibration     5          0.634              1.853              2.221
 Vibration     6          0.649              1.804              1.924
 Vibration     7          0.662              1.766              1.745
 Vibration     8          0.719              1.597              1.216
 Vibration     9          0.788              1.414              0.872
 Vibration    10          0.911              1.127              0.533
 Vibration    11          0.951              1.045              0.461

 1\1\GINC-AJ\Freq\UM062X\6-311++G(d,p)\C5H7O3(2)\AAYUSH\23-Jun-2025\0\\
 # freq 6-311++g(d,p) m062x\\Title Card Required\\0,2\C,-2.807636,-0.43
 8372,-0.394392\H,-3.852188,-0.463825,-0.601118\C,-1.63235,-0.360756,-0
 .137866\C,-0.221248,-0.607353,0.161389\O,0.147135,-1.152302,1.161272\O
 ,0.559348,-0.190432,-0.833761\C,1.978621,-0.339095,-0.622837\C,2.50400
 2,0.76229,0.275993\H,2.402995,-0.283679,-1.623727\H,2.168231,-1.326833
 ,-0.201244\H,3.586735,0.667153,0.378675\H,2.279445,1.740935,-0.150499\
 H,2.055009,0.695497,1.267158\O,-1.458066,1.69899,0.391991\H,-1.555896,

 Normal termination of Gaussian 16 at Mon Jun 23 04:34:47 2025.
