 Gaussian 16, Revision A.03,
 Gaussian 16:  ES64L-G16RevA.03 25-Dec-2016

 --------------------------
 # freq 6-311++g(d,p) m062x
 --------------------------

 -------------------
 Title Card Required
 -------------------
 Symbolic Z-matrix:
 Charge =  0 Multiplicity = 2

                         Standard orientation:
 ---------------------------------------------------------------------
 Center     Atomic      Atomic             Coordinates (Angstroms)
 Number     Number       Type             X           Y           Z
 ---------------------------------------------------------------------
      1          6           0       -2.799330   -0.437515   -0.407806
      2          1           0       -3.841340   -0.486949   -0.625769
      3          6           0       -1.627215   -0.236974   -0.113822
      4          6           0       -0.219691   -0.599020    0.149448
      5          8           0        0.139919   -1.183583    1.128759
      6          8           0        0.560962   -0.171562   -0.838568
      7          6           0        1.980594   -0.324139   -0.629087
      8          6           0        2.502395    0.756137    0.297434
      9          1           0        2.406092   -0.243397   -1.627658
     10          1           0        2.170856   -1.321771   -0.231958
     11          1           0        3.584988    0.658992    0.399721
     12          1           0        2.277116    1.744537   -0.105181
     13          1           0        2.051774    0.665335    1.286007
     14          8           0       -1.465281    1.608209    0.409392
     15          1           0       -1.554811    2.007812   -0.468831
 ---------------------------------------------------------------------

 SCF Done:  E(UM062X) =  -420.202751911     A.U. after   22 cycles

 The electronic state is 2-A.
 Alpha  occ. eigenvalues --  -19.68374 -19.64798 -19.63378 -10.70782 -10.60801
 Alpha  occ. eigenvalues --  -10.60636 -10.59266 -10.53616  -1.25884  -1.16649
 Alpha  occ. eigenvalues --   -1.11021  -0.91452  -0.87803  -0.78372  -0.70957
 Alpha  occ. eigenvalues --   -0.64803  -0.62460  -0.58890  -0.57191  -0.53935
 Alpha  occ. eigenvalues --   -0.53193  -0.49685  -0.48538  -0.46150  -0.45305
 Alpha  occ. eigenvalues --   -0.42041  -0.41349  -0.38808  -0.38374  -0.37253
 Alpha  occ. eigenvalues --   -0.32957
 Alpha virt. eigenvalues --   -0.00542  -0.00482   0.00441   0.01424   0.02231
 Alpha virt. eigenvalues --    0.02608   0.03229   0.04420   0.05490   0.06006
 Alpha virt. eigenvalues --    0.07049   0.07800   0.07946   0.10195   0.10402

  Beta  occ. eigenvalues --  -19.68378 -19.63606 -19.63398 -10.70746 -10.60908
  Beta  occ. eigenvalues --  -10.60635 -10.58905 -10.53616  -1.25883  -1.16689
  Beta  occ. eigenvalues --   -1.06556  -0.90567  -0.87145  -0.78001  -0.70537
  Beta  occ. eigenvalues --   -0.64641  -0.61808  -0.58811  -0.56911  -0.53487
  Beta  occ. eigenvalues --   -0.51524  -0.49057  -0.46703  -0.45307  -0.42001
  Beta  occ. eigenvalues --   -0.41524  -0.39093  -0.38593  -0.36645  -0.36409
  Beta virt. eigenvalues --   -0.09924  -0.00410   0.00366   0.00775   0.01714
  Beta virt. eigenvalues --    0.02354   0.02802   0.03227   0.04565   0.05561
  Beta virt. eigenvalues --    0.05944   0.07146   0.07607   0.08004   0.10341

 Mulliken charges and spin densities:
               1          2
     1  C   -0.123497   0.664197
     2  H    0.214990  -0.021998
     3  C    0.313084  -0.287383
     4  C   -0.387891   0.037670
     5  O   -0.190300  -0.009967
     6  O    0.001785  -0.002243
     7  C   -0.281283   0.000330
     8  C   -0.423921   0.002335
     9  H    0.191854   0.000278
    10  H    0.192671  -0.000095
    11  H    0.167139  -0.000032
    12  H    0.162951  -0.000571
    13  H    0.195766  -0.001423
    14  O   -0.255617   0.631543
    15  H    0.222268  -0.012640
 Sum of Mulliken charges =  -0.00000   1.00000

 Dipole moment (field-independent basis, Debye):
    X=              0.0380    Y=              0.1634    Z=             -3.1709  Tot=              3.1753
 Quadrupole moment (field-independent basis, Debye-Ang):
   XX=            -32.6485   YY=            -48.8545   ZZ=            -51.1747
   XY=              2.0086   XZ=              3.5029   YZ=             -0.3665

  Exact polarizability:  90.343   7.684  74.645   5.495   2.259  58.799
 Approx polarizability:  95.530   8.464  83.839   9.177  -0.972  75.750

 ******    1 imaginary frequencies (negative Signs) ******

                      1                      2                      3
                      A                      A                      A
 Frequencies --   -685.8612                52.9465                72.9840
 Red. masses --     12.5056                 2.8387                 3.6201
 Frc consts  --      3.4660                 0.0047                 0.0114
 IR Inten    --     39.5613                14.9477                 2.2718

                      4                      5                      6
                      A                      A                      A
 Frequencies --    100.9080               134.8285               182.1241
 Red. masses --      2.1720                 1.9314                 1.9951
 Frc consts  --      0.0130                 0.0207                 0.0390
 IR Inten    --     34.1486                22.6244                13.5227

                      7                      8                      9
                      A                      A                      A
 Frequencies --    202.1597               229.5786               266.7646
 Red. masses --      6.4377                 1.6234                 2.9886
 Frc consts  --      0.1550                 0.0504                 0.1253
 IR Inten    --      5.4397                 4.8106                 4.8465

                     10                     11                     12
                      A                      A                      A
 Frequencies --    339.6139               431.7426               562.1715
 Red. masses --      3.0130                 3.7411                 3.5061
 Frc consts  --      0.2048                 0.4109                 0.6529
 IR Inten    --     11.9921                 1.8648                 8.8715

                     13                     14                     15
                      A                      A                      A
 Frequencies --    593.4894               602.3124               716.5758
 Red. masses --      1.8359                 2.8837                 1.3084
 Frc consts  --      0.3810                 0.6164                 0.3958
 IR Inten    --     17.7870                18.9657                39.8380

                     16                     17                     18
                      A                      A                      A
 Frequencies --    766.6004               800.4828               851.3680
 Red. masses --      9.2974                 1.2104                 1.1700
 Frc consts  --      3.2192                 0.4570                 0.4996
 IR Inten    --     40.7963                 5.8391                62.0083

                     19                     20                     21
                      A                      A                      A
 Frequencies --    896.3805               921.3612              1072.1244
 Red. masses --      3.2029                 2.6782                 4.0808
 Frc consts  --      1.5163                 1.3395                 2.7636
 IR Inten    --     17.8553                 5.9867                24.6232

                     22                     23                     24
                      A                      A                      A
 Frequencies --   1127.9789              1202.8055              1275.3165
 Red. masses --      2.0940                 1.7801                 4.4907
 Frc consts  --      1.5698                 1.5173                 4.3033
 IR Inten    --     21.1656                 8.9977               553.1007

                     25                     26                     27
                      A                      A                      A
 Frequencies --   1344.3572              1401.3336              1430.3228
 Red. masses --      1.2015                 1.2695                 1.3641
 Frc consts  --      1.2794                 1.4688                 1.6442
 IR Inten    --     66.0875                18.3285                12.9453

                     28                     29                     30
                      A                      A                      A
 Frequencies --   1491.2046              1501.9198              1514.4412
 Red. masses --      1.0404                 1.0532                 1.0923
 Frc consts  --      1.3631                 1.3998                 1.4760
 IR Inten    --     10.7864                 1.3247                19.6551

                     31                     32                     33
                      A                      A                      A
 Frequencies --   1854.7791              2050.3835              3076.0206
 Red. masses --     11.9112                 6.6743                 1.0354
 Frc consts  --     24.1430                16.5321                 5.7723
 IR Inten    --    345.3079                74.8013                 8.9701

                     34                     35                     36
                      A                      A                      A
 Frequencies --   3107.7850              3151.6330              3155.3848
 Red. masses --      1.0609                 1.1017                 1.1047
 Frc consts  --      6.0371                 6.4474                 6.4801
 IR Inten    --     19.4509                14.1092                 3.0037

                     37                     38                     39
                      A                      A                      A
 Frequencies --   3175.6132              3466.0335              3827.1938
 Red. masses --      1.1071                 1.1410                 1.0676
 Frc consts  --      6.5780                 8.0761                 9.2132
 IR Inten    --     14.2950                75.1381                54.7848

 - Thermochemistry -
 -------------------
 Temperature   298.150 Kelvin.  Pressure   1.00000 Atm.
 Atom     1 has atomic number  6 and mass  12.00000

 Molecular mass:   115.03952 amu.
 Principal axes and moments of inertia in atomic units:
                           1         2         3
     Eigenvalues --   490.235041378.048441527.91098
           X            0.99989   0.01240   0.00864
           Y           -0.01260   0.99965   0.02340
           Z           -0.00835  -0.02351   0.99969
 This molecule is an asymmetric top.
 Rotational symmetry number  1.
 Warning -- assumption of classical behavior for rotation
           may cause significant error
 Rotational temperatures (Kelvin)      0.17668     0.06285     0.05669
 Rotational constants (GHZ):           3.68138     1.30964     1.18118
    1 imaginary frequencies ignored.
 Zero-point vibrational energy     292792.1 (Joules/Mol)
                                   69.97900 (Kcal/Mol)
 Warning -- explicit consideration of  13 degrees of freedom as
           vibrations may cause significant error
 Vibrational temperatures:     76.18   105.01   145.18   193.99   262.04
          (Kelvin)            290.86   330.31   383.81   488.63   621.18
                              808.84   853.90   866.59  1030.99  1102.97
                             1151.72  1224.93  1289.69  1325.63  1542.55
                             1622.91  1730.57  1834.90  1934.23  2016.21
                             2057.92  2145.51  2160.93  2178.94  2668.61
                             2950.04  4425.71  4471.41  4534.50  4539.89
                             4569.00  4986.85  5506.48

 Zero-point correction=                           0.111519 (Hartree/Particle)
 Thermal correction to Energy=                    0.121214
 Thermal correction to Enthalpy=                  0.122158
 Thermal correction to Gibbs Free Energy=         0.075643
 Sum of electronic and zero-point Energies=           -420.091233
 Sum of electronic and thermal Energies=              -420.081538
 Sum of electronic and thermal Enthalpies=            -420.080593
 Sum of electronic and thermal Free Energies=         -420.127109

                     E (Thermal)             CV                S
                      KCal/Mol        Cal/Mol-Kelvin    Cal/Mol-Kelvin
 Total                   76.063             32.395             97.900
 Electronic               0.000              0.000              1.377
 Translational            0.889              2.981             40.136
 Rotational               0.889              2.981             28.425
 Vibrational             74.286             26.433             27.961
 Vibration     1          0.596              1.976              4.704
 Vibration     2          0.599              1.967              4.071
 Vibration     3          0.604              1.948              3.437
 Vibration     4          0.613              1.919              2.876
 Vibration     5          0.630              1.864              2.307
 Vibration     6          0.639              1.837              2.113
 Vibration     7          0.652              1.796              1.882
 Vibration     8          0.672              1.734              1.617
 Vibration     9          0.720              1.596              1.214
 Vibration    10          0.793              1.401              0.853
 Vibration    11          0.918              1.113              0.520
 Vibration    12          0.951              1.046              0.461
 Vibration    13          0.961              1.027              0.446

 1\1\GINC-AJ\Freq\UM062X\6-311++G(d,p)\C5H7O3(2)\AAYUSH\23-Jun-2025\0\\
 # freq 6-311++g(d,p) m062x\\Title Card Required\\0,2\C,-2.79933,-0.437
 515,-0.407806\H,-3.84134,-0.486949,-0.625769\C,-1.627215,-0.236974,-0.
 113822\C,-0.219691,-0.59902,0.149448\O,0.139919,-1.183583,1.128759\O,0
 .560962,-0.171562,-0.838568\C,1.980594,-0.324139,-0.629087\C,2.502395,
 0.756137,0.297434\H,2.406092,-0.243397,-1.627658\H,2.170856,-1.321771,
 -0.231958\H,3.584988,0.658992,0.399721\H,2.277116,1.744537,-0.105181\H
 ,2.051774,0.665335,1.286007\O,-1.465281,1.608209,0.409392\H,-1.554811,

 Normal termination of Gaussian 16 at Mon Jun 23 04:37:15 2025.
