 Gaussian 16, Revision A.03,
 Gaussian 16:  ES64L-G16RevA.03 25-Dec-2016

 -------------------
 # freq 6-31+g m062x
 -------------------

 -------------------
 Title Card Required
 -------------------
 Symbolic Z-matrix:
 Charge =  0 Multiplicity = 2

                         Standard orientation:
 ---------------------------------------------------------------------
 Center     Atomic      Atomic             Coordinates (Angstroms)
 Number     Number       Type             X           Y           Z
 ---------------------------------------------------------------------
      1          6           0       -2.813256   -0.442171   -0.388080
      2          1           0       -3.859817   -0.442228   -0.585730
      3          6           0       -1.635349   -0.418414   -0.147739
      4          6           0       -0.222317   -0.617800    0.166093
      5          8           0        0.152417   -1.135473    1.178456
      6          8           0        0.557146   -0.200949   -0.831024
      7          6           0        1.976896   -0.346047   -0.619889
      8          6           0        2.505072    0.765349    0.264517
      9          1           0        2.399915   -0.303360   -1.622027
     10          1           0        2.166603   -1.328580   -0.186243
     11          1           0        3.587916    0.670208    0.366225
     12          1           0        2.281170    1.739071   -0.173501
     13          1           0        2.057670    0.711011    1.257078
     14          8           0       -1.453458    1.747380    0.382523
     15          1           0       -1.548568    2.020710   -0.544860
 ---------------------------------------------------------------------

 SCF Done:  E(UM062X) =  -419.959151761     A.U. after   23 cycles

 The electronic state is 2-A.
 Alpha  occ. eigenvalues --  -19.70659 -19.69849 -19.66191 -10.72948 -10.61580
 Alpha  occ. eigenvalues --  -10.59593 -10.59248 -10.54429  -1.27972  -1.18646
 Alpha  occ. eigenvalues --   -1.14274  -0.91432  -0.88016  -0.78603  -0.71227
 Alpha  occ. eigenvalues --   -0.64698  -0.62058  -0.58596  -0.56965  -0.54728
 Alpha  occ. eigenvalues --   -0.53892  -0.50446  -0.48946  -0.46612  -0.45237
 Alpha  occ. eigenvalues --   -0.42408  -0.42043  -0.39337  -0.38300  -0.36845
 Alpha  occ. eigenvalues --   -0.35879
 Alpha virt. eigenvalues --   -0.01103   0.01926   0.02349   0.03539   0.03770
 Alpha virt. eigenvalues --    0.03819   0.05196   0.06453   0.07497   0.08131
 Alpha virt. eigenvalues --    0.08481   0.09002   0.09646   0.12067   0.12533

  Beta  occ. eigenvalues --  -19.70664 -19.68220 -19.66205 -10.72933 -10.61579
  Beta  occ. eigenvalues --  -10.59581 -10.59144 -10.54430  -1.27980  -1.18671
  Beta  occ. eigenvalues --   -1.07189  -0.91166  -0.87788  -0.78511  -0.71131
  Beta  occ. eigenvalues --   -0.64664  -0.61775  -0.58493  -0.56802  -0.53952
  Beta  occ. eigenvalues --   -0.51623  -0.49408  -0.46886  -0.45278  -0.42043
  Beta  occ. eigenvalues --   -0.40249  -0.38736  -0.38148  -0.37831  -0.36630
  Beta virt. eigenvalues --   -0.08959  -0.00563   0.01962   0.02395   0.03617
  Beta virt. eigenvalues --    0.03800   0.04049   0.05170   0.06582   0.07567
  Beta virt. eigenvalues --    0.08081   0.08579   0.09067   0.09722   0.12196

 Mulliken charges and spin densities:
               1          2
     1  C   -0.113585   0.105243
     2  H    0.338629  -0.006462
     3  C   -0.164530  -0.025334
     4  C    0.151635   0.050518
     5  O   -0.323273  -0.005779
     6  O   -0.214329  -0.003049
     7  C   -0.233806  -0.001252
     8  C   -0.561606   0.000739
     9  H    0.218148  -0.000003
    10  H    0.233723  -0.000092
    11  H    0.206707  -0.000009
    12  H    0.217957  -0.000060
    13  H    0.244181  -0.000072
    14  O   -0.405926   0.920450
    15  H    0.406077  -0.034837
 Sum of Mulliken charges =  -0.00000   1.00000

 Dipole moment (field-independent basis, Debye):
    X=              0.1455    Y=              0.7690    Z=             -3.2457  Tot=              3.3387
 Quadrupole moment (field-independent basis, Debye-Ang):
   XX=            -33.2841   YY=            -48.1319   ZZ=            -52.5034
   XY=              0.6632   XZ=              3.3056   YZ=             -0.6065

  Exact polarizability:  86.829   4.243  61.292   4.670  -1.501  55.791
 Approx polarizability:  92.327   2.492  62.062   9.102  -6.616  69.257

 ******    3 imaginary frequencies (negative Signs) ******

                      1                      2                      3
                      A                      A                      A
 Frequencies --   -488.2645              -151.6870               -56.1985
 Red. masses --      1.0760                 3.1247                 4.4000
 Frc consts  --      0.1511                 0.0424                 0.0082
 IR Inten    --    126.2787                22.2448                 1.5158

                      4                      5                      6
                      A                      A                      A
 Frequencies --     20.5673                83.8849                93.6158
 Red. masses --      2.8771                 4.0223                 4.9384
 Frc consts  --      0.0007                 0.0167                 0.0255
 IR Inten    --      3.7969                 5.8952                 2.7508

                      7                      8                      9
                      A                      A                      A
 Frequencies --    139.5112               183.5931               204.1482
 Red. masses --      2.6911                 1.4075                 4.0525
 Frc consts  --      0.0309                 0.0280                 0.0995
 IR Inten    --     19.3113                 1.6346                 0.5554

                     10                     11                     12
                      A                      A                      A
 Frequencies --    309.0313               314.9186               420.2105
 Red. masses --      1.8451                 2.4719                 3.8312
 Frc consts  --      0.1038                 0.1444                 0.3986
 IR Inten    --     70.6073                31.1408                 2.0344

                     13                     14                     15
                      A                      A                      A
 Frequencies --    568.8871               627.4377               753.0908
 Red. masses --      4.1414                 5.5873                 4.1899
 Frc consts  --      0.7897                 1.2960                 1.4000
 IR Inten    --      4.0029                16.9369                76.9338

                     16                     17                     18
                      A                      A                      A
 Frequencies --    780.2081               788.1429               818.3115
 Red. masses --      1.4030                 1.5683                 1.2845
 Frc consts  --      0.5032                 0.5740                 0.5068
 IR Inten    --     31.1667                43.9521                 3.8792

                     19                     20                     21
                      A                      A                      A
 Frequencies --    899.7115               944.9521              1113.0126
 Red. masses --      3.4002                 2.5145                 4.1746
 Frc consts  --      1.6217                 1.3229                 3.0470
 IR Inten    --     18.0265                 5.1749                 8.0149

                     22                     23                     24
                      A                      A                      A
 Frequencies --   1158.8464              1228.1008              1323.4929
 Red. masses --      2.0924                 1.7600                 2.2824
 Frc consts  --      1.6556                 1.5639                 2.3555
 IR Inten    --     17.8100                 5.3970               375.4637

                     25                     26                     27
                      A                      A                      A
 Frequencies --   1369.1143              1442.6313              1458.2817
 Red. masses --      1.6000                 1.3537                 1.2622
 Frc consts  --      1.7671                 1.6599                 1.5814
 IR Inten    --    235.2194                29.3508                18.2550

                     28                     29                     30
                      A                      A                      A
 Frequencies --   1526.8829              1536.8798              1544.2277
 Red. masses --      1.0416                 1.0596                 1.0832
 Frc consts  --      1.4308                 1.4747                 1.5219
 IR Inten    --     14.0129                 3.1452                26.2731

                     31                     32                     33
                      A                      A                      A
 Frequencies --   1918.6292              2301.1188              3107.6719
 Red. masses --     12.3160                 5.6768                 1.0353
 Frc consts  --     26.7117                17.7104                 5.8908
 IR Inten    --    306.0638                66.1873                13.3199

                     34                     35                     36
                      A                      A                      A
 Frequencies --   3136.9830              3186.0266              3191.2025
 Red. masses --      1.0599                 1.1008                 1.1026
 Frc consts  --      6.1453                 6.5837                 6.6157
 IR Inten    --     21.2544                13.8439                 8.1335

                     37                     38                     39
                      A                      A                      A
 Frequencies --   3211.6676              3530.9762              3806.6018
 Red. masses --      1.1047                 1.1736                 1.0671
 Frc consts  --      6.7138                 8.6210                 9.1105
 IR Inten    --     16.6766                60.8176                12.8696

 - Thermochemistry -
 -------------------
 Temperature   298.150 Kelvin.  Pressure   1.00000 Atm.
 Atom     1 has atomic number  6 and mass  12.00000

 Molecular mass:   115.03952 amu.
 Principal axes and moments of inertia in atomic units:
                           1         2         3
     Eigenvalues --   522.023481383.993681559.66364
           X            0.99990   0.01211   0.00772
           Y           -0.01222   0.99982   0.01443
           Z           -0.00755  -0.01453   0.99987
 This molecule is an asymmetric top.
 Rotational symmetry number  1.
 Warning -- assumption of classical behavior for rotation
           may cause significant error
 Rotational temperatures (Kelvin)      0.16592     0.06258     0.05553
 Rotational constants (GHZ):           3.45720     1.30401     1.15713
    3 imaginary frequencies ignored.
 Zero-point vibrational energy     293339.7 (Joules/Mol)
                                   70.10987 (Kcal/Mol)
 Warning -- explicit consideration of  10 degrees of freedom as
           vibrations may cause significant error
 Vibrational temperatures:     29.59   120.69   134.69   200.73   264.15
          (Kelvin)            293.72   444.63   453.10   604.59   818.50
                              902.74  1083.53  1122.55  1133.96  1177.37
                             1294.48  1359.58  1601.38  1667.32  1766.96
                             1904.21  1969.85  2075.62  2098.14  2196.84
                             2211.23  2221.80  2760.48  3310.80  4471.25
                             4513.42  4583.98  4591.43  4620.87  5080.29
                             5476.85

 Zero-point correction=                           0.111727 (Hartree/Particle)
 Thermal correction to Energy=                    0.120733
 Thermal correction to Enthalpy=                  0.121677
 Thermal correction to Gibbs Free Energy=         0.075551
 Sum of electronic and zero-point Energies=           -419.847425
 Sum of electronic and thermal Energies=              -419.838419
 Sum of electronic and thermal Enthalpies=            -419.837475
 Sum of electronic and thermal Free Energies=         -419.883601

                     E (Thermal)             CV                S
                      KCal/Mol        Cal/Mol-Kelvin    Cal/Mol-Kelvin
 Total                   75.761             29.261             97.080
 Electronic               0.000              0.000              1.377
 Translational            0.889              2.981             40.136
 Rotational               0.889              2.981             28.512
 Vibrational             73.984             23.299             27.055
 Vibration     1          0.593              1.986              6.579
 Vibration     2          0.601              1.960              3.798
 Vibration     3          0.603              1.954              3.583
 Vibration     4          0.615              1.914              2.811
 Vibration     5          0.631              1.862              2.292
 Vibration     6          0.640              1.834              2.095
 Vibration     7          0.698              1.657              1.368
 Vibration     8          0.702              1.645              1.336
 Vibration     9          0.783              1.426              0.891
 Vibration    10          0.925              1.099              0.506

 Normal termination of Gaussian 16 at Fri Jun 20 13:51:25 2025.
