 Gaussian 16, Revision A.03,
 Gaussian 16:  ES64L-G16RevA.03 25-Dec-2016

 --------------------------
 # ccsd(t)/6-311++g(d,p) sp
 --------------------------

 -------------------
 Title Card Required
 -------------------
 Symbolic Z-matrix:
 Charge =  0 Multiplicity = 2

                         Standard orientation:
 ---------------------------------------------------------------------
 Center     Atomic      Atomic             Coordinates (Angstroms)
 Number     Number       Type             X           Y           Z
 ---------------------------------------------------------------------
      1          6           0       -2.785574   -0.451354   -0.429204
      2          1           0       -3.832858   -0.444551   -0.640731
      3          6           0       -1.620983   -0.070302   -0.073654
      4          6           0       -0.223976   -0.598308    0.130025
      5          8           0        0.134469   -1.224160    1.084279
      6          8           0        0.562715   -0.145085   -0.844026
      7          6           0        1.982390   -0.301950   -0.637234
      8          6           0        2.500358    0.748027    0.326221
      9          1           0        2.410190   -0.186786   -1.631433
     10          1           0        2.174216   -1.311795   -0.273365
     11          1           0        3.582874    0.648940    0.427444
     12          1           0        2.274531    1.749153   -0.043368
     13          1           0        2.048267    0.623761    1.310553
     14          8           0       -1.474996    1.491698    0.428706
     15          1           0       -1.548018    1.984968   -0.397693
 ---------------------------------------------------------------------

 SCF Done:  E(UHF) =  -417.992364160     A.U. after   27 cycles
 E2 =    -0.1269321737D+01 EUMP2 =    -0.41926168589725D+03
 CCSD(T)= -0.41937540893D+03

 The electronic state is 2-A.
 Alpha  occ. eigenvalues --  -20.61268 -20.59285 -20.56079 -11.41076 -11.31494
 Alpha  occ. eigenvalues --  -11.29708 -11.28674 -11.22425  -1.48229  -1.38042
 Alpha  occ. eigenvalues --   -1.35217  -1.08841  -1.04558  -0.92771  -0.84121
 Alpha  occ. eigenvalues --   -0.76806  -0.73024  -0.69770  -0.68772  -0.65546
 Alpha  occ. eigenvalues --   -0.62735  -0.60313  -0.57754  -0.54818  -0.54000
 Alpha  occ. eigenvalues --   -0.52265  -0.50396  -0.47369  -0.46351  -0.44014
 Alpha  occ. eigenvalues --   -0.41605
 Alpha virt. eigenvalues --    0.03715   0.04415   0.05706   0.06272   0.07319
 Alpha virt. eigenvalues --    0.08799   0.09658   0.10760   0.11153   0.12485
 Alpha virt. eigenvalues --    0.13286   0.13582   0.14395   0.15894   0.16572

  Beta  occ. eigenvalues --  -20.61273 -20.57692 -20.56286 -11.40764 -11.33502
  Beta  occ. eigenvalues --  -11.29712 -11.25385 -11.22426  -1.48302  -1.38381
  Beta  occ. eigenvalues --   -1.30724  -1.07003  -1.03040  -0.91148  -0.82429
  Beta  occ. eigenvalues --   -0.76377  -0.71238  -0.69868  -0.68196  -0.64957
  Beta  occ. eigenvalues --   -0.62428  -0.57903  -0.56044  -0.54070  -0.52816
  Beta  occ. eigenvalues --   -0.50480  -0.50174  -0.46873  -0.46426  -0.42419
  Beta virt. eigenvalues --    0.03792   0.04259   0.04463   0.06228   0.06635
  Beta virt. eigenvalues --    0.07539   0.09066   0.09628   0.10388   0.11956
  Beta virt. eigenvalues --    0.13012   0.13566   0.13927   0.15865   0.16241

 Mulliken charges and spin densities:
               1          2
     1  C    0.122360   1.713664
     2  H    0.251149  -0.101221
     3  C   -0.077901  -1.056274
     4  C   -0.148134   0.148031
     5  O   -0.272764  -0.039969
     6  O   -0.081288   0.003138
     7  C   -0.176855   0.001057
     8  C   -0.390017   0.000437
     9  H    0.160815   0.000036
    10  H    0.178094   0.000024
    11  H    0.136310  -0.000101
    12  H    0.142018   0.000026
    13  H    0.185230  -0.000710
    14  O   -0.280474   0.342259
    15  H    0.251459  -0.010397
 Sum of Mulliken charges =  -0.00000   1.00000

 Dipole moment (field-independent basis, Debye):
    X=             -0.0931    Y=              0.6263    Z=             -3.2885  Tot=              3.3489
 Quadrupole moment (field-independent basis, Debye-Ang):
   XX=            -33.5878   YY=            -48.8591   ZZ=            -51.6294
   XY=              1.1178   XZ=              3.3039   YZ=             -0.1277

 P4SDQ=-419.3162622\CCSD=-419.3209681\CCSD(T)=-419.3754089\S2=0.999917\
 Normal termination of Gaussian 16 at Tue Aug 19 16:45:39 2025.
