 Gaussian 16, Revision A.03,
 Gaussian 16:  ES64L-G16RevA.03 25-Dec-2016

 --------------------------
 # ccsd(t)/6-311++g(d,p) sp
 --------------------------

 -------------------
 Title Card Required
 -------------------
 Symbolic Z-matrix:
 Charge =  0 Multiplicity = 2

                         Standard orientation:
 ---------------------------------------------------------------------
 Center     Atomic      Atomic             Coordinates (Angstroms)
 Number     Number       Type             X           Y           Z
 ---------------------------------------------------------------------
      1          6           0       -2.798467   -0.438456   -0.410243
      2          1           0       -3.840449   -0.487224   -0.628887
      3          6           0       -1.626247   -0.215702   -0.109230
      4          6           0       -0.219688   -0.598830    0.147167
      5          8           0        0.139128   -1.188514    1.123548
      6          8           0        0.561108   -0.168455   -0.839281
      7          6           0        1.980816   -0.321602   -0.630157
      8          6           0        2.502213    0.755072    0.300813
      9          1           0        2.406453   -0.236746   -1.628314
     10          1           0        2.171157   -1.320802   -0.237050
     11          1           0        3.584790    0.657534    0.402911
     12          1           0        2.276858    1.745047   -0.097819
     13          1           0        2.051413    0.660346    1.288939
     14          8           0       -1.466256    1.593784    0.412078
     15          1           0       -1.553827    2.004442   -0.460641
 ---------------------------------------------------------------------

 SCF Done:  E(UHF) =  -417.976296179     A.U. after   32 cycles
 E2 =    -0.1256612058D+01 EUMP2 =    -0.41923290823764D+03
 CCSD(T)= -0.41935503731D+03

 The electronic state is 2-A.
 Alpha  occ. eigenvalues --  -20.61423 -20.61220 -20.55711 -11.41320 -11.29694
 Alpha  occ. eigenvalues --  -11.27690 -11.27366 -11.22442  -1.48174  -1.37850
 Alpha  occ. eigenvalues --   -1.37208  -1.08224  -1.04487  -0.92731  -0.83781
 Alpha  occ. eigenvalues --   -0.76601  -0.73197  -0.69543  -0.68384  -0.65888
 Alpha  occ. eigenvalues --   -0.63291  -0.62824  -0.57938  -0.55126  -0.53999
 Alpha  occ. eigenvalues --   -0.53206  -0.50437  -0.47584  -0.45968  -0.43655
 Alpha  occ. eigenvalues --   -0.42090
 Alpha virt. eigenvalues --    0.03679   0.04411   0.05636   0.06284   0.07331
 Alpha virt. eigenvalues --    0.08804   0.09557   0.10600   0.11158   0.11904
 Alpha virt. eigenvalues --    0.13461   0.13659   0.14213   0.15985   0.16502

  Beta  occ. eigenvalues --  -20.61226 -20.58005 -20.56114 -11.40942 -11.29695
  Beta  occ. eigenvalues --  -11.29648 -11.24982 -11.22445  -1.48332  -1.38495
  Beta  occ. eigenvalues --   -1.25659  -1.07709  -1.03486  -0.91524  -0.82892
  Beta  occ. eigenvalues --   -0.76332  -0.71877  -0.69767  -0.67473  -0.63859
  Beta  occ. eigenvalues --   -0.62692  -0.58238  -0.55560  -0.54114  -0.50902
  Beta  occ. eigenvalues --   -0.50454  -0.48145  -0.47118  -0.44845  -0.42700
  Beta virt. eigenvalues --    0.03731   0.04334   0.04635   0.06272   0.06860
  Beta virt. eigenvalues --    0.07847   0.09184   0.09562   0.10525   0.12083
  Beta virt. eigenvalues --    0.12304   0.13650   0.13940   0.15706   0.16203

 Mulliken charges and spin densities:
               1          2
     1  C   -0.205881   1.358899
     2  H    0.227848  -0.095433
     3  C    0.360766  -1.126547
     4  C   -0.326398   0.178582
     5  O   -0.271142  -0.083131
     6  O   -0.081263   0.002647
     7  C   -0.167778   0.002202
     8  C   -0.392112   0.001442
     9  H    0.161439  -0.000045
    10  H    0.177044  -0.000024
    11  H    0.137526  -0.000125
    12  H    0.140404  -0.000135
    13  H    0.185683  -0.001021
    14  O   -0.181051   0.788824
    15  H    0.234915  -0.026134
 Sum of Mulliken charges =  -0.00000   1.00000

 Dipole moment (field-independent basis, Debye):
    X=             -0.0262    Y=              0.9542    Z=             -3.1939  Tot=              3.3335
 Quadrupole moment (field-independent basis, Debye-Ang):
   XX=            -33.4881   YY=            -47.8823   ZZ=            -51.5827
   XY=              0.7001   XZ=              3.1530   YZ=              0.0614

 4\PMP3-0=-419.28217\MP4SDQ=-419.2917137\CCSD=-419.3000918\CCSD(T)=-419
 Normal termination of Gaussian 16 at Sun Aug  3 08:52:52 2025.
