 Gaussian 16, Revision A.03,
 Gaussian 16:  ES64L-G16RevA.03 25-Dec-2016

 --------------------------
 # freq 6-311++g(d,p) m062x
 --------------------------

 -------------------
 Title Card Required
 -------------------
 Symbolic Z-matrix:
 Charge =  0 Multiplicity = 2

                         Standard orientation:
 ---------------------------------------------------------------------
 Center     Atomic      Atomic             Coordinates (Angstroms)
 Number     Number       Type             X           Y           Z
 ---------------------------------------------------------------------
      1          6           0       -2.817728   -0.447694   -0.382631
      2          1           0       -3.865575   -0.418994   -0.571335
      3          6           0       -1.638731   -0.471887   -0.154867
      4          6           0       -0.223842   -0.632283    0.170516
      5          8           0        0.158121   -1.119017    1.195692
      6          8           0        0.553432   -0.213627   -0.828376
      7          6           0        1.974238   -0.352343   -0.617097
      8          6           0        2.505530    0.768693    0.252966
      9          1           0        2.395361   -0.321546   -1.620511
     10          1           0        2.165616   -1.329485   -0.172076
     11          1           0        3.588517    0.672625    0.352716
     12          1           0        2.282676    1.737754   -0.195820
     13          1           0        2.060574    0.726697    1.247131
     14          8           0       -1.448620    1.798533    0.372382
     15          1           0       -1.527434    2.018922   -0.571007
 ---------------------------------------------------------------------

 SCF Done:  E(UM062X) =  -420.207946362     A.U. after   23 cycles

 The electronic state is 2-A.
 Alpha  occ. eigenvalues --  -19.68272 -19.67674 -19.63076 -10.70624 -10.60572
 Alpha  occ. eigenvalues --  -10.57707 -10.57428 -10.53607  -1.25622  -1.16367
 Alpha  occ. eigenvalues --   -1.13347  -0.90617  -0.87226  -0.78058  -0.70617
 Alpha  occ. eigenvalues --   -0.64503  -0.61597  -0.58467  -0.56648  -0.55283
 Alpha  occ. eigenvalues --   -0.53497  -0.50425  -0.48949  -0.46392  -0.45229
 Alpha  occ. eigenvalues --   -0.42737  -0.41991  -0.39376  -0.38519  -0.36499
 Alpha  occ. eigenvalues --   -0.36144
 Alpha virt. eigenvalues --   -0.01249  -0.00493   0.00502   0.01352   0.02176
 Alpha virt. eigenvalues --    0.02863   0.03698   0.04634   0.05470   0.06167
 Alpha virt. eigenvalues --    0.07284   0.07925   0.07998   0.10279   0.10574

  Beta  occ. eigenvalues --  -19.68277 -19.66090 -19.63087 -10.70615 -10.60572
  Beta  occ. eigenvalues --  -10.57658 -10.57382 -10.53607  -1.25628  -1.16391
  Beta  occ. eigenvalues --   -1.05689  -0.90400  -0.87013  -0.77971  -0.70538
  Beta  occ. eigenvalues --   -0.64475  -0.61394  -0.58428  -0.56436  -0.53529
  Beta  occ. eigenvalues --   -0.52233  -0.49293  -0.46664  -0.45256  -0.42010
  Beta  occ. eigenvalues --   -0.40135  -0.38915  -0.38229  -0.37837  -0.36324
  Beta virt. eigenvalues --   -0.08773  -0.00825  -0.00343   0.00556   0.01664
  Beta virt. eigenvalues --    0.02221   0.02944   0.03702   0.04762   0.05570
  Beta virt. eigenvalues --    0.06220   0.07339   0.07990   0.07999   0.10431

 Mulliken charges and spin densities:
               1          2
     1  C   -0.442177   0.125734
     2  H    0.202783  -0.006692
     3  C    0.836136  -0.023369
     4  C   -0.646803  -0.002814
     5  O   -0.188679  -0.004196
     6  O   -0.005635  -0.002249
     7  C   -0.256148  -0.001108
     8  C   -0.420180  -0.000072
     9  H    0.193052  -0.000015
    10  H    0.193085  -0.000088
    11  H    0.166729   0.000013
    12  H    0.157403   0.000041
    13  H    0.196279  -0.001107
    14  O   -0.206825   0.938694
    15  H    0.220980  -0.022771
 Sum of Mulliken charges =  -0.00000   1.00000

 Dipole moment (field-independent basis, Debye):
    X=              0.1905    Y=              0.7891    Z=             -3.0656  Tot=              3.1713
 Quadrupole moment (field-independent basis, Debye-Ang):
   XX=            -33.5856   YY=            -48.0295   ZZ=            -51.3040
   XY=              0.5809   XZ=              2.8965   YZ=             -0.6180

  Exact polarizability:  91.407   3.441  62.536   4.598  -1.263  58.320
 Approx polarizability:  98.882   0.769  68.606   8.243  -5.324  75.078

 ******    1 imaginary frequencies (negative Signs) ******

                      1                      2                      3
                      A                      A                      A
 Frequencies --    -12.5414                43.5102               105.4660
 Red. masses --      4.6678                 5.0048                 3.9145
 Frc consts  --      0.0004                 0.0056                 0.0257
 IR Inten    --      2.5510                 1.8570                 4.9803

                      4                      5                      6
                      A                      A                      A
 Frequencies --    124.4813               157.9322               192.6090
 Red. masses --      3.4709                 2.3846                 1.9081
 Frc consts  --      0.0317                 0.0350                 0.0417
 IR Inten    --      8.1820                15.8459                31.1969

                      7                      8                      9
                      A                      A                      A
 Frequencies --    207.0505               233.1493               286.5584
 Red. masses --      2.3403                 1.4532                 3.8223
 Frc consts  --      0.0591                 0.0465                 0.1849
 IR Inten    --     17.0113                16.9405                 7.7168

                     10                     11                     12
                      A                      A                      A
 Frequencies --    343.6631               423.1345               505.8386
 Red. masses --      3.0342                 3.9753                 1.0903
 Frc consts  --      0.2111                 0.4194                 0.1644
 IR Inten    --     14.3218                 0.8837               105.9352

                     13                     14                     15
                      A                      A                      A
 Frequencies --    562.2445               613.3393               734.6913
 Red. masses --      3.8987                 6.5288                 1.3141
 Frc consts  --      0.7261                 1.4471                 0.4179
 IR Inten    --      6.1634                13.4705                38.0465

                     16                     17                     18
                      A                      A                      A
 Frequencies --    754.0744               780.1651               802.9647
 Red. masses --      1.3402                 7.1882                 1.2247
 Frc consts  --      0.4490                 2.5778                 0.4653
 IR Inten    --     23.3548                46.6149                 5.3128

                     19                     20                     21
                      A                      A                      A
 Frequencies --    896.3811               926.9122              1077.9038
 Red. masses --      3.1968                 2.7752                 4.1027
 Frc consts  --      1.5134                 1.4048                 2.8085
 IR Inten    --     14.3122                 4.8298                22.3140

                     22                     23                     24
                      A                      A                      A
 Frequencies --   1129.0692              1203.6497              1283.4180
 Red. masses --      2.0918                 1.7768                 4.3982
 Frc consts  --      1.5711                 1.5167                 4.2684
 IR Inten    --     21.4735                 5.6094               591.4236

                     25                     26                     27
                      A                      A                      A
 Frequencies --   1347.6911              1402.1293              1432.5452
 Red. masses --      1.2017                 1.2702                 1.3742
 Frc consts  --      1.2860                 1.4713                 1.6616
 IR Inten    --     73.8981                24.0774                 9.8196

                     28                     29                     30
                      A                      A                      A
 Frequencies --   1491.3411              1502.4364              1514.3430
 Red. masses --      1.0410                 1.0591                 1.0867
 Frc consts  --      1.3642                 1.4086                 1.4683
 IR Inten    --     10.3804                 1.7242                19.2232

                     31                     32                     33
                      A                      A                      A
 Frequencies --   1850.5809              2248.6396              3075.7239
 Red. masses --     12.0844                 5.8232                 1.0356
 Frc consts  --     24.3832                17.3480                 5.7720
 IR Inten    --    329.4447                62.7301                10.5875

                     34                     35                     36
                      A                      A                      A
 Frequencies --   3106.1394              3149.8103              3155.4842
 Red. masses --      1.0605                 1.1019                 1.1049
 Frc consts  --      6.0283                 6.4412                 6.4819
 IR Inten    --     19.6393                14.5541                 3.8255

                     37                     38                     39
                      A                      A                      A
 Frequencies --   3174.7998              3488.3259              3790.5064
 Red. masses --      1.1068                 1.1678                 1.0672
 Frc consts  --      6.5728                 8.3724                 9.0340
 IR Inten    --     14.3531                66.9470                30.6860

 - Thermochemistry -
 -------------------
 Temperature   298.150 Kelvin.  Pressure   1.00000 Atm.
 Atom     1 has atomic number  6 and mass  12.00000

 Molecular mass:   115.03952 amu.
 Principal axes and moments of inertia in atomic units:
                           1         2         3
     Eigenvalues --   535.162521385.337911571.85145
           X            0.99990   0.01214   0.00735
           Y           -0.01223   0.99986   0.01173
           Z           -0.00721  -0.01182   0.99990
 This molecule is an asymmetric top.
 Rotational symmetry number  1.
 Warning -- assumption of classical behavior for rotation
           may cause significant error
 Rotational temperatures (Kelvin)      0.16185     0.06252     0.05510
 Rotational constants (GHZ):           3.37232     1.30274     1.14816
    1 imaginary frequencies ignored.
 Zero-point vibrational energy     293795.1 (Joules/Mol)
                                   70.21871 (Kcal/Mol)
 Warning -- explicit consideration of  13 degrees of freedom as
           vibrations may cause significant error
 Vibrational temperatures:     62.60   151.74   179.10   227.23   277.12
          (Kelvin)            297.90   335.45   412.29   494.45   608.80
                              727.79   808.94   882.46  1057.06  1084.94
                             1122.48  1155.29  1289.69  1333.62  1550.86
                             1624.48  1731.78  1846.55  1939.03  2017.35
                             2061.11  2145.71  2161.67  2178.80  2662.57
                             3235.29  4425.28  4469.04  4531.87  4540.04
                             4567.83  5018.92  5453.69

 Zero-point correction=                           0.111901 (Hartree/Particle)
 Thermal correction to Energy=                    0.121479
 Thermal correction to Enthalpy=                  0.122423
 Thermal correction to Gibbs Free Energy=         0.076387
 Sum of electronic and zero-point Energies=           -420.096046
 Sum of electronic and thermal Energies=              -420.086467
 Sum of electronic and thermal Enthalpies=            -420.085523
 Sum of electronic and thermal Free Energies=         -420.131560

                     E (Thermal)             CV                S
                      KCal/Mol        Cal/Mol-Kelvin    Cal/Mol-Kelvin
 Total                   76.229             32.521             96.893
 Electronic               0.000              0.000              1.377
 Translational            0.889              2.981             40.136
 Rotational               0.889              2.981             28.546
 Vibrational             74.452             26.560             26.834
 Vibration     1          0.595              1.980              5.092
 Vibration     2          0.605              1.945              3.351
 Vibration     3          0.610              1.929              3.030
 Vibration     4          0.621              1.894              2.574
 Vibration     5          0.635              1.850              2.203
 Vibration     6          0.641              1.830              2.070
 Vibration     7          0.654              1.790              1.855
 Vibration     8          0.684              1.699              1.494
 Vibration     9          0.722              1.588              1.195
 Vibration    10          0.785              1.420              0.881
 Vibration    11          0.861              1.237              0.644
 Vibration    12          0.918              1.113              0.519
 Vibration    13          0.973              1.004              0.427

 1\1\GINC-AJ\Freq\UM062X\6-311++G(d,p)\C5H7O3(2)\AAYUSH\16-Aug-2025\0\\
 # freq 6-311++g(d,p) m062x\\Title Card Required\\0,2\C,2.754797,-0.407
 649,0.421079\H,3.80213,-0.372428,0.611526\C,1.576435,-0.439826,0.19103
 1\C,0.162281,-0.61185,-0.131597\O,-0.217361,-1.140239,-1.136818\O,-0.6
 17323,-0.151149,0.846761\C,-2.037696,-0.29677,0.637221\C,-2.564948,0.7
 87845,-0.280176\H,-2.461688,-0.223843,1.637244\H,-2.229099,-1.291302,0
 .232565\H,-3.64777,0.689049,-0.379055\H,-2.342091,1.774421,0.12867\H,-
 2.117166,0.704083,-1.270423\O,1.390917,1.80699,-0.430534\H,1.46729,2.0

 Normal termination of Gaussian 16 at Sat Aug 16 21:03:41 2025.
