 Gaussian 16, Revision A.03,
 Gaussian 16:  ES64L-G16RevA.03 25-Dec-2016

 -------------------
 # freq 6-31+g m062x
 -------------------

 -------------------
 Title Card Required
 -------------------
 Symbolic Z-matrix:
 Charge =  0 Multiplicity = 2

                         Standard orientation:
 ---------------------------------------------------------------------
 Center     Atomic      Atomic             Coordinates (Angstroms)
 Number     Number       Type             X           Y           Z
 ---------------------------------------------------------------------
      1          6           0       -2.791186   -0.446713   -0.423465
      2          1           0       -3.836080   -0.465588   -0.639436
      3          6           0       -1.621960   -0.110729   -0.084310
      4          6           0       -0.221952   -0.598680    0.135059
      5          8           0        0.135775   -1.213660    1.096223
      6          8           0        0.562146   -0.152135   -0.842711
      7          6           0        1.981904   -0.308001   -0.635346
      8          6           0        2.501058    0.749910    0.318489
      9          1           0        2.408846   -0.201887   -1.630898
     10          1           0        2.173087   -1.314848   -0.262836
     11          1           0        3.583584    0.651016    0.419819
     12          1           0        2.275393    1.747813   -0.059698
     13          1           0        2.049384    0.634561    1.304060
     14          8           0       -1.471964    1.521354    0.424402
     15          1           0       -1.549053    1.989731   -0.416890
 ---------------------------------------------------------------------

 SCF Done:  E(UM062X) =  -419.966195127     A.U. after   19 cycles

 The electronic state is 2-A.
 Alpha  occ. eigenvalues --  -19.70851 -19.66932 -19.66700 -10.72893 -10.64676
 Alpha  occ. eigenvalues --  -10.61704 -10.61216 -10.54502  -1.28330  -1.18993
 Alpha  occ. eigenvalues --   -1.12746  -0.92128  -0.88520  -0.78838  -0.71634
 Alpha  occ. eigenvalues --   -0.65063  -0.62653  -0.59610  -0.57608  -0.54860
 Alpha  occ. eigenvalues --   -0.53761  -0.49304  -0.48310  -0.46684  -0.45391
 Alpha  occ. eigenvalues --   -0.42289  -0.41549  -0.38478  -0.37619  -0.37452
 Alpha  occ. eigenvalues --   -0.31220
 Alpha virt. eigenvalues --   -0.00001   0.01671   0.02194   0.02625   0.03613
 Alpha virt. eigenvalues --    0.03939   0.05188   0.06585   0.07483   0.08155
 Alpha virt. eigenvalues --    0.08502   0.09078   0.09514   0.11387   0.12350

  Beta  occ. eigenvalues --  -19.70848 -19.66710 -19.66289 -10.72829 -10.64857
  Beta  occ. eigenvalues --  -10.61703 -10.60562 -10.54502  -1.28301  -1.18992
  Beta  occ. eigenvalues --   -1.10646  -0.91031  -0.87565  -0.78288  -0.70854
  Beta  occ. eigenvalues --   -0.64861  -0.61589  -0.59300  -0.57361  -0.54148
  Beta  occ. eigenvalues --   -0.53177  -0.49079  -0.47064  -0.45361  -0.44212
  Beta  occ. eigenvalues --   -0.42058  -0.40138  -0.38442  -0.36819  -0.36021
  Beta virt. eigenvalues --   -0.08923   0.00696   0.01551   0.02376   0.02922
  Beta virt. eigenvalues --    0.03687   0.04020   0.04977   0.06425   0.07548
  Beta virt. eigenvalues --    0.07927   0.08460   0.08768   0.09534   0.11755

 Mulliken charges and spin densities:
               1          2
     1  C    0.330529   1.016469
     2  H    0.288456  -0.035868
     3  C   -0.406625  -0.338353
     4  C    0.092081   0.055772
     5  O   -0.335814  -0.002408
     6  O   -0.207241  -0.000541
     7  C   -0.241577   0.001732
     8  C   -0.563481   0.000897
     9  H    0.220450  -0.000003
    10  H    0.236670  -0.000184
    11  H    0.206760  -0.000030
    12  H    0.221605   0.000043
    13  H    0.241644   0.000059
    14  O   -0.516736   0.309099
    15  H    0.433278  -0.006685
 Sum of Mulliken charges =  -0.00000   1.00000

 Dipole moment (field-independent basis, Debye):
    X=              0.1119    Y=              0.2791    Z=             -3.3419  Tot=              3.3554
 Quadrupole moment (field-independent basis, Debye-Ang):
   XX=            -33.0426   YY=            -49.3809   ZZ=            -52.5794
   XY=              1.5788   XZ=              3.7574   YZ=             -0.4943

  Exact polarizability:  83.578   6.061  65.693   4.596   0.112  55.774
 Approx polarizability:  83.724   8.051  75.005   8.180  -2.910  69.443

 ******    3 imaginary frequencies (negative Signs) ******

                      1                      2                      3
                      A                      A                      A
 Frequencies --   -506.4860              -495.6004               -72.8518
 Red. masses --      3.0802                 1.2455                 6.4853
 Frc consts  --      0.4655                 0.1802                 0.0203
 IR Inten    --     80.7430               119.2856                 2.1050

                      4                      5                      6
                      A                      A                      A
 Frequencies --     36.5861                60.5967               147.1508
 Red. masses --      2.5771                 3.4612                 1.6925
 Frc consts  --      0.0020                 0.0075                 0.0216
 IR Inten    --      2.6728                 7.2612                 2.9477

                      7                      8                      9
                      A                      A                      A
 Frequencies --    193.3836               204.3093               247.2452
 Red. masses --      1.4971                 1.7099                 6.3717
 Frc consts  --      0.0330                 0.0421                 0.2295
 IR Inten    --     17.6882                 4.7312                 2.9714

                     10                     11                     12
                      A                      A                      A
 Frequencies --    315.7875               355.0790               438.1334
 Red. masses --      3.1278                 7.6927                 3.7380
 Frc consts  --      0.1838                 0.5715                 0.4228
 IR Inten    --     18.7792                 0.9352                 4.7563

                     13                     14                     15
                      A                      A                      A
 Frequencies --    590.7433               610.1796               716.2533
 Red. masses --      4.3870                 4.7259                 1.3024
 Frc consts  --      0.9020                 1.0367                 0.3937
 IR Inten    --      4.2427                20.3345                54.3604

                     16                     17                     18
                      A                      A                      A
 Frequencies --    729.4709               812.7324               888.5651
 Red. masses --      9.3939                 1.3325                 2.7796
 Frc consts  --      2.9452                 0.5186                 1.2930
 IR Inten    --     27.3430                 8.0911                21.0435

                     19                     20                     21
                      A                      A                      A
 Frequencies --    935.0830               985.5733              1103.3700
 Red. masses --      2.4747                 1.3160                 4.1957
 Frc consts  --      1.2749                 0.7531                 3.0095
 IR Inten    --      1.6012                37.5979                11.2621

                     22                     23                     24
                      A                      A                      A
 Frequencies --   1156.6476              1226.7103              1312.3292
 Red. masses --      2.0612                 1.7532                 2.7827
 Frc consts  --      1.6247                 1.5544                 2.8236
 IR Inten    --     16.5888                 8.2377               392.8889

                     25                     26                     27
                      A                      A                      A
 Frequencies --   1363.1102              1439.1736              1458.8346
 Red. masses --      1.4526                 1.3407                 1.2450
 Frc consts  --      1.5902                 1.6361                 1.5611
 IR Inten    --    164.5336                15.6493                20.5714

                     28                     29                     30
                      A                      A                      A
 Frequencies --   1526.9214              1536.6638              1544.8002
 Red. masses --      1.0410                 1.0522                 1.0894
 Frc consts  --      1.4301                 1.4639                 1.5317
 IR Inten    --     14.5083                 2.7681                24.1674

                     31                     32                     33
                      A                      A                      A
 Frequencies --   1885.4675              1942.0952              3107.9438
 Red. masses --      7.9256                10.2617                 1.0351
 Frc consts  --     16.6006                22.8040                 5.8911
 IR Inten    --     97.3884               211.5903                11.8135

                     34                     35                     36
                      A                      A                      A
 Frequencies --   3139.4275              3188.0653              3191.1326
 Red. masses --      1.0601                 1.1008                 1.1022
 Frc consts  --      6.1561                 6.5920                 6.6131
 IR Inten    --     20.9526                12.4874                 7.6018

                     37                     38                     39
                      A                      A                      A
 Frequencies --   3211.9904              3483.7950              3871.3840
 Red. masses --      1.1052                 1.1279                 1.0670
 Frc consts  --      6.7182                 8.0653                 9.4218
 IR Inten    --     16.4131                65.7236                37.3222

 - Thermochemistry -
 -------------------
 Temperature   298.150 Kelvin.  Pressure   1.00000 Atm.
 Atom     1 has atomic number  6 and mass  12.00000

 Molecular mass:   115.03952 amu.
 Principal axes and moments of inertia in atomic units:
                           1         2         3
     Eigenvalues --   473.670141374.407501511.38396
           X            0.99989   0.01207   0.00904
           Y           -0.01233   0.99950   0.02925
           Z           -0.00868  -0.02936   0.99953
 This molecule is an asymmetric top.
 Rotational symmetry number  1.
 Warning -- assumption of classical behavior for rotation
           may cause significant error
 Rotational temperatures (Kelvin)      0.18286     0.06302     0.05731
 Rotational constants (GHZ):           3.81012     1.31310     1.19410
    3 imaginary frequencies ignored.
 Zero-point vibrational energy     292826.3 (Joules/Mol)
                                   69.98717 (Kcal/Mol)
 Warning -- explicit consideration of  11 degrees of freedom as
           vibrations may cause significant error
 Vibrational temperatures:     52.64    87.19   211.72   278.24   293.96
          (Kelvin)            355.73   454.35   510.88   630.38   849.95
                              877.91  1030.53  1049.55  1169.34  1278.45
                             1345.38  1418.02  1587.50  1664.16  1764.96
                             1888.15  1961.21  2070.65  2098.94  2196.90
                             2210.92  2222.62  2712.77  2794.24  4471.64
                             4516.94  4586.91  4591.33  4621.34  5012.40
                             5570.06

 Zero-point correction=                           0.111532 (Hartree/Particle)
 Thermal correction to Energy=                    0.120185
 Thermal correction to Enthalpy=                  0.121129
 Thermal correction to Gibbs Free Energy=         0.076419
 Sum of electronic and zero-point Energies=           -419.854663
 Sum of electronic and thermal Energies=              -419.846010
 Sum of electronic and thermal Enthalpies=            -419.845066
 Sum of electronic and thermal Free Energies=         -419.889777

                     E (Thermal)             CV                S
                      KCal/Mol        Cal/Mol-Kelvin    Cal/Mol-Kelvin
 Total                   75.417             28.868             94.101
 Electronic               0.000              0.000              1.377
 Translational            0.889              2.981             40.136
 Rotational               0.889              2.981             28.377
 Vibrational             73.640             22.906             24.210
 Vibration     1          0.594              1.982              5.436
 Vibration     2          0.597              1.973              4.438
 Vibration     3          0.617              1.906              2.709
 Vibration     4          0.635              1.849              2.195
 Vibration     5          0.640              1.834              2.094
 Vibration     6          0.661              1.767              1.750
 Vibration     7          0.703              1.643              1.332
 Vibration     8          0.731              1.565              1.144
 Vibration     9          0.798              1.387              0.832
 Vibration    10          0.948              1.052              0.466
 Vibration    11          0.969              1.010              0.432

 Normal termination of Gaussian 16 at Fri Jun 20 13:52:10 2025.
