 Gaussian 16, Revision A.03,
 Gaussian 16:  ES64L-G16RevA.03 25-Dec-2016

 --------------------------
 # ccsd(t)/6-311++g(d,p) sp
 --------------------------

 -------------------
 Title Card Required
 -------------------
 Symbolic Z-matrix:
 Charge =  0 Multiplicity = 2

                         Standard orientation:
 ---------------------------------------------------------------------
 Center     Atomic      Atomic             Coordinates (Angstroms)
 Number     Number       Type             X           Y           Z
 ---------------------------------------------------------------------
      1          6           0       -2.801500   -0.436857   -0.403157
      2          1           0       -3.844002   -0.482359   -0.618483
      3          6           0       -1.628940   -0.279021   -0.122479
      4          6           0       -0.220073   -0.600446    0.153752
      5          8           0        0.141882   -1.173447    1.139402
      6          8           0        0.560623   -0.177788   -0.837063
      7          6           0        1.980065   -0.329190   -0.626974
      8          6           0        2.502824    0.758242    0.290498
      9          1           0        2.405292   -0.256736   -1.626333
     10          1           0        2.170157   -1.323610   -0.221750
     11          1           0        3.585457    0.661907    0.393112
     12          1           0        2.277722    1.743456   -0.120067
     13          1           0        2.052638    0.675292    1.279954
     14          8           0       -1.463154    1.637746    0.403784
     15          1           0       -1.556327    2.013596   -0.485257
 ---------------------------------------------------------------------

 SCF Done:  E(UHF) =  -417.978547304     A.U. after   36 cycles
 E2 =    -0.1256349461D+01 EUMP2 =    -0.41923489676469D+03
 CCSD(T)= -0.41935307426D+03

 The electronic state is 2-A.
 Alpha  occ. eigenvalues --  -20.62110 -20.61212 -20.55641 -11.41365 -11.29688
 Alpha  occ. eigenvalues --  -11.27151 -11.26408 -11.22454  -1.48129  -1.37925
 Alpha  occ. eigenvalues --   -1.37791  -1.07997  -1.04401  -0.92699  -0.83734
 Alpha  occ. eigenvalues --   -0.76508  -0.73129  -0.69514  -0.68370  -0.66266
 Alpha  occ. eigenvalues --   -0.64235  -0.62919  -0.58018  -0.55457  -0.54000
 Alpha  occ. eigenvalues --   -0.53500  -0.50446  -0.47583  -0.45956  -0.43328
 Alpha  occ. eigenvalues --   -0.42084
 Alpha virt. eigenvalues --    0.03674   0.04409   0.05605   0.06284   0.07325
 Alpha virt. eigenvalues --    0.08822   0.09509   0.10454   0.11084   0.11758
 Alpha virt. eigenvalues --    0.13501   0.13678   0.14256   0.15950   0.16457

  Beta  occ. eigenvalues --  -20.61218 -20.58350 -20.56058 -11.41008 -11.29688
  Beta  occ. eigenvalues --  -11.28309 -11.24928 -11.22456  -1.48296  -1.38459
  Beta  occ. eigenvalues --   -1.24656  -1.07823  -1.03576  -0.91701  -0.83123
  Beta  occ. eigenvalues --   -0.76312  -0.72006  -0.69720  -0.67252  -0.63725
  Beta  occ. eigenvalues --   -0.62828  -0.58340  -0.55514  -0.54115  -0.50756
  Beta  occ. eigenvalues --   -0.50506  -0.48141  -0.47143  -0.43994  -0.42585
  Beta virt. eigenvalues --    0.03716   0.04354   0.04773   0.06281   0.06956
  Beta virt. eigenvalues --    0.08039   0.09230   0.09536   0.10595   0.11896
  Beta virt. eigenvalues --    0.12250   0.13666   0.13934   0.15512   0.16119

 Mulliken charges and spin densities:
               1          2
     1  C   -0.600714   1.125956
     2  H    0.217576  -0.080909
     3  C    0.735326  -0.987357
     4  C   -0.318814   0.175704
     5  O   -0.268893  -0.086470
     6  O   -0.079893   0.001904
     7  C   -0.161921   0.002102
     8  C   -0.392605   0.001294
     9  H    0.162139  -0.000058
    10  H    0.177126  -0.000027
    11  H    0.138720  -0.000108
    12  H    0.139323  -0.000153
    13  H    0.186061  -0.000938
    14  O   -0.163017   0.880201
    15  H    0.229587  -0.031139
 Sum of Mulliken charges =  -0.00000   1.00000

 Dipole moment (field-independent basis, Debye):
    X=              0.0175    Y=              1.1422    Z=             -3.1537  Tot=              3.3542
 Quadrupole moment (field-independent basis, Debye-Ang):
   XX=            -33.5840   YY=            -47.5605   ZZ=            -51.6041
   XY=              0.3449   XZ=              3.0566   YZ=              0.0533

 =-419.2988084\CCSD(T)=-419.3530743\S2=1.021747\S2-1=0.947304\S2A=0.794
 Normal termination of Gaussian 16 at Fri Aug 29 11:44:57 2025.
