 Gaussian 16, Revision A.03,
 Gaussian 16:  ES64L-G16RevA.03 25-Dec-2016

 --------------------------
 # ccsd(t)/6-311++g(d,p) sp
 --------------------------

 -------------------
 Title Card Required
 -------------------
 Symbolic Z-matrix:
 Charge =  0 Multiplicity = 2

                         Standard orientation:
 ---------------------------------------------------------------------
 Center     Atomic      Atomic             Coordinates (Angstroms)
 Number     Number       Type             X           Y           Z
 ---------------------------------------------------------------------
      1          6           0       -2.796418   -0.441101   -0.415331
      2          1           0       -3.838907   -0.483479   -0.634190
      3          6           0       -1.624298   -0.173290   -0.099615
      4          6           0       -0.220132   -0.598735    0.142445
      5          8           0        0.137707   -1.198429    1.112949
      6          8           0        0.561457   -0.162115   -0.840678
      7          6           0        1.981242   -0.316381   -0.632281
      8          6           0        2.501823    0.752954    0.307671
      9          1           0        2.407268   -0.223213   -1.629516
     10          1           0        2.171808   -1.318672   -0.247276
     11          1           0        3.584374    0.654740    0.409403
     12          1           0        2.276341    1.746080   -0.082930
     13          1           0        2.050681    0.650226    1.294849
     14          8           0       -1.468304    1.564986    0.417239
     15          1           0       -1.551747    1.998099   -0.443755
 ---------------------------------------------------------------------

 SCF Done:  E(UHF) =  -417.977094638     A.U. after   30 cycles
 E2 =    -0.1259059224D+01 EUMP2 =    -0.41923615386171D+03
 CCSD(T)= -0.41935867196D+03

 The electronic state is 2-A.
 Alpha  occ. eigenvalues --  -20.61245 -20.60808 -20.55812 -11.41291 -11.29704
 Alpha  occ. eigenvalues --  -11.28587 -11.27929 -11.22433  -1.48214  -1.37918
 Alpha  occ. eigenvalues --   -1.36539  -1.08448  -1.04538  -0.92768  -0.83870
 Alpha  occ. eigenvalues --   -0.76682  -0.73245  -0.69574  -0.68398  -0.65673
 Alpha  occ. eigenvalues --   -0.62815  -0.62328  -0.57895  -0.54924  -0.54003
 Alpha  occ. eigenvalues --   -0.52899  -0.50435  -0.47601  -0.46046  -0.43891
 Alpha  occ. eigenvalues --   -0.42052
 Alpha virt. eigenvalues --    0.03679   0.04411   0.05669   0.06284   0.07334
 Alpha virt. eigenvalues --    0.08801   0.09595   0.10651   0.11169   0.12035
 Alpha virt. eigenvalues --    0.13408   0.13647   0.14190   0.15977   0.16540

  Beta  occ. eigenvalues --  -20.61250 -20.57751 -20.56180 -11.40918 -11.30820
  Beta  occ. eigenvalues --  -11.29705 -11.25132 -11.22435  -1.48356  -1.38508
  Beta  occ. eigenvalues --   -1.26624  -1.07586  -1.03407  -0.91420  -0.82762
  Beta  occ. eigenvalues --   -0.76361  -0.71804  -0.69809  -0.67625  -0.64002
  Beta  occ. eigenvalues --   -0.62605  -0.58160  -0.55590  -0.54110  -0.51108
  Beta  occ. eigenvalues --   -0.50427  -0.48255  -0.47069  -0.45533  -0.42766
  Beta virt. eigenvalues --    0.03742   0.04295   0.04548   0.06262   0.06783
  Beta virt. eigenvalues --    0.07733   0.09146   0.09584   0.10462   0.12015
  Beta virt. eigenvalues --    0.12498   0.13626   0.13933   0.15787   0.16233

 Mulliken charges and spin densities:
               1          2
     1  C   -0.038330   1.496401
     2  H    0.235735  -0.102175
     3  C    0.171490  -1.172860
     4  C   -0.288400   0.175439
     5  O   -0.272138  -0.075414
     6  O   -0.081778   0.002987
     7  C   -0.170982   0.002076
     8  C   -0.391595   0.001330
     9  H    0.161172  -0.000024
    10  H    0.177167  -0.000013
    11  H    0.136939  -0.000131
    12  H    0.141091  -0.000093
    13  H    0.185496  -0.001016
    14  O   -0.204497   0.695519
    15  H    0.238629  -0.022027
 Sum of Mulliken charges =  -0.00000   1.00000

 Dipole moment (field-independent basis, Debye):
    X=             -0.0621    Y=              0.7934    Z=             -3.2368  Tot=              3.3333
 Quadrupole moment (field-independent basis, Debye-Ang):
   XX=            -33.4022   YY=            -48.2041   ZZ=            -51.5829
   XY=              0.9625   XZ=              3.2347   YZ=              0.0164

 Q=-419.294894\CCSD=-419.3035141\CCSD(T)=-419.358672\S2=1.096338\S2-1=0
 Normal termination of Gaussian 16 at Tue Aug 19 22:16:10 2025.
