 Gaussian 16, Revision A.03,
 Gaussian 16:  ES64L-G16RevA.03 25-Dec-2016

 --------------------------
 # freq 6-311++g(d,p) m062x
 --------------------------

 -------------------
 Title Card Required
 -------------------
 Symbolic Z-matrix:
 Charge =  0 Multiplicity = 2

                         Standard orientation:
 ---------------------------------------------------------------------
 Center     Atomic      Atomic             Coordinates (Angstroms)
 Number     Number       Type             X           Y           Z
 ---------------------------------------------------------------------
      1          6           0       -2.804103   -0.436930   -0.398689
      2          1           0       -3.847418   -0.475177   -0.610452
      3          6           0       -1.630645   -0.320564   -0.130493
      4          6           0       -0.220619   -0.602805    0.157808
      5          8           0        0.144158   -1.163136    1.150104
      6          8           0        0.560173   -0.184001   -0.835481
      7          6           0        1.979444   -0.334203   -0.624860
      8          6           0        2.503339    0.760275    0.283424
      9          1           0        2.404373   -0.270220   -1.624961
     10          1           0        2.169291   -1.325319   -0.211448
     11          1           0        3.586014    0.664663    0.386236
     12          1           0        2.278495    1.742225   -0.135156
     13          1           0        2.053641    0.685329    1.273721
     14          8           0       -1.460813    1.667836    0.397978
     15          1           0       -1.557038    2.018274   -0.501896
 ---------------------------------------------------------------------

 SCF Done:  E(UM062X) =  -420.202484884     A.U. after   23 cycles

 The electronic state is 2-A.
 Alpha  occ. eigenvalues --  -19.68275 -19.66159 -19.63165 -10.70669 -10.60580
 Alpha  occ. eigenvalues --  -10.58881 -10.58292 -10.53616  -1.25724  -1.16478
 Alpha  occ. eigenvalues --   -1.12214  -0.91008  -0.87530  -0.78217  -0.70747
 Alpha  occ. eigenvalues --   -0.64609  -0.62041  -0.58693  -0.56953  -0.54384
 Alpha  occ. eigenvalues --   -0.53361  -0.50180  -0.48738  -0.46220  -0.45256
 Alpha  occ. eigenvalues --   -0.41992  -0.41860  -0.39158  -0.38488  -0.36833
 Alpha  occ. eigenvalues --   -0.34489
 Alpha virt. eigenvalues --   -0.00768  -0.00505   0.00488   0.01352   0.02202
 Alpha virt. eigenvalues --    0.02796   0.03496   0.04511   0.05449   0.06063
 Alpha virt. eigenvalues --    0.07123   0.07852   0.07944   0.10166   0.10553

  Beta  occ. eigenvalues --  -19.68280 -19.64702 -19.63184 -10.70648 -10.60580
  Beta  occ. eigenvalues --  -10.58915 -10.58086 -10.53617  -1.25730  -1.16517
  Beta  occ. eigenvalues --   -1.06015  -0.90490  -0.87097  -0.78009  -0.70533
  Beta  occ. eigenvalues --   -0.64524  -0.61584  -0.58622  -0.56675  -0.53481
  Beta  occ. eigenvalues --   -0.51715  -0.49147  -0.46677  -0.45287  -0.41981
  Beta  occ. eigenvalues --   -0.40737  -0.38793  -0.38251  -0.37255  -0.36426
  Beta virt. eigenvalues --   -0.09425  -0.00412   0.00138   0.00626   0.01672
  Beta virt. eigenvalues --    0.02288   0.02920   0.03466   0.04637   0.05543
  Beta virt. eigenvalues --    0.06049   0.07214   0.07711   0.08018   0.10310

 Mulliken charges and spin densities:
               1          2
     1  C   -0.672826   0.363212
     2  H    0.198610  -0.014337
     3  C    0.785708  -0.152898
     4  C   -0.332619   0.023906
     5  O   -0.189533  -0.008508
     6  O    0.001910  -0.002653
     7  C   -0.275564  -0.001020
     8  C   -0.424082   0.002035
     9  H    0.192213   0.000153
    10  H    0.193329  -0.000079
    11  H    0.168804   0.000022
    12  H    0.161095  -0.000481
    13  H    0.195496  -0.001353
    14  O   -0.223521   0.811523
    15  H    0.220980  -0.019522
 Sum of Mulliken charges =  -0.00000   1.00000

 Dipole moment (field-independent basis, Debye):
    X=              0.1038    Y=              0.5377    Z=             -3.0831  Tot=              3.1314
 Quadrupole moment (field-independent basis, Debye-Ang):
   XX=            -33.0411   YY=            -48.2893   ZZ=            -51.1887
   XY=              1.3304   XZ=              3.2662   YZ=             -0.3442

  Exact polarizability:  91.330   7.070  72.943   5.425   1.419  58.651
 Approx polarizability:  97.907   6.210  77.945   9.211  -2.821  75.378

 ******    2 imaginary frequencies (negative Signs) ******

                      1                      2                      3
                      A                      A                      A
 Frequencies --   -393.7610               -25.3303                52.9938
 Red. masses --     12.0386                 4.0755                 4.4746
 Frc consts  --      1.0997                 0.0015                 0.0074
 IR Inten    --     48.1435                 4.8536                 2.4774

                      4                      5                      6
                      A                      A                      A
 Frequencies --    106.4757               138.9274               158.4867
 Red. masses --      2.7143                 2.1844                 4.2500
 Frc consts  --      0.0181                 0.0248                 0.0629
 IR Inten    --     20.1902                16.9578                13.5464

                      7                      8                      9
                      A                      A                      A
 Frequencies --    184.3562               224.7588               248.7184
 Red. masses --      1.6093                 1.5985                 2.5034
 Frc consts  --      0.0322                 0.0476                 0.0912
 IR Inten    --     27.6604                 3.3799                11.1026

                     10                     11                     12
                      A                      A                      A
 Frequencies --    338.8947               427.0168               557.1835
 Red. masses --      2.9179                 3.8533                 4.0316
 Frc consts  --      0.1974                 0.4140                 0.7374
 IR Inten    --     11.8688                 1.2678                 5.8783

                     13                     14                     15
                      A                      A                      A
 Frequencies --    598.2075               697.3818               712.0874
 Red. masses --      4.4638                 1.1681                 1.3050
 Frc consts  --      0.9411                 0.3347                 0.3899
 IR Inten    --      8.4397                99.8780                 3.0999

                     16                     17                     18
                      A                      A                      A
 Frequencies --    729.1876               769.9848               802.5072
 Red. masses --      1.3488                 8.3928                 1.2116
 Frc consts  --      0.4225                 2.9317                 0.4597
 IR Inten    --     38.0079                51.2378                 5.3023

                     19                     20                     21
                      A                      A                      A
 Frequencies --    896.3028               925.8261              1075.1629
 Red. masses --      3.2565                 2.7209                 4.1215
 Frc consts  --      1.5414                 1.3741                 2.8071
 IR Inten    --     15.2388                 5.7950                23.3222

                     22                     23                     24
                      A                      A                      A
 Frequencies --   1128.4534              1203.4918              1280.1492
 Red. masses --      2.0991                 1.7785                 4.3829
 Frc consts  --      1.5749                 1.5177                 4.2318
 IR Inten    --     22.0468                 7.0565               564.6100

                     25                     26                     27
                      A                      A                      A
 Frequencies --   1345.1039              1401.3510              1430.8261
 Red. masses --      1.2061                 1.2717                 1.3706
 Frc consts  --      1.2857                 1.4714                 1.6532
 IR Inten    --     71.4668                21.2153                12.4463

                     28                     29                     30
                      A                      A                      A
 Frequencies --   1491.3365              1502.3175              1514.5885
 Red. masses --      1.0406                 1.0543                 1.0914
 Frc consts  --      1.3636                 1.4020                 1.4752
 IR Inten    --     10.6968                 1.4321                20.2112

                     31                     32                     33
                      A                      A                      A
 Frequencies --   1854.1668              2175.0058              3075.6837
 Red. masses --     12.0652                 6.1217                 1.0354
 Frc consts  --     24.4390                17.0624                 5.7712
 IR Inten    --    346.2733                86.1206                 9.4037

                     34                     35                     36
                      A                      A                      A
 Frequencies --   3107.1601              3150.7455              3155.2699
 Red. masses --      1.0608                 1.1018                 1.1046
 Frc consts  --      6.0339                 6.4445                 6.4794
 IR Inten    --     19.5338                14.0756                 3.5726

                     37                     38                     39
                      A                      A                      A
 Frequencies --   3175.0859              3480.7152              3810.2231
 Red. masses --      1.1071                 1.1569                 1.0674
 Frc consts  --      6.5755                 8.2585                 9.1299
 IR Inten    --     14.4847                69.5741                43.2162

 - Thermochemistry -
 -------------------
 Temperature   298.150 Kelvin.  Pressure   1.00000 Atm.
 Atom     1 has atomic number  6 and mass  12.00000

 Molecular mass:   115.03952 amu.
 Principal axes and moments of inertia in atomic units:
                           1         2         3
     Eigenvalues --   503.127851380.409801540.70276
           X            0.99989   0.01231   0.00828
           Y           -0.01247   0.99973   0.01936
           Z           -0.00804  -0.01946   0.99978
 This molecule is an asymmetric top.
 Rotational symmetry number  1.
 Warning -- assumption of classical behavior for rotation
           may cause significant error
 Rotational temperatures (Kelvin)      0.17215     0.06275     0.05622
 Rotational constants (GHZ):           3.58704     1.30740     1.17138
    2 imaginary frequencies ignored.
 Zero-point vibrational energy     292643.3 (Joules/Mol)
                                   69.94342 (Kcal/Mol)
 Warning -- explicit consideration of  11 degrees of freedom as
           vibrations may cause significant error
 Vibrational temperatures:     76.25   153.19   199.89   228.03   265.25
          (Kelvin)            323.38   357.85   487.59   614.38   801.66
                              860.69  1003.38  1024.53  1049.14  1107.84
                             1154.63  1289.58  1332.06  1546.92  1623.59
                             1731.56  1841.85  1935.30  2016.23  2058.64
                             2145.70  2161.50  2179.16  2667.73  3129.35
                             4425.22  4470.51  4533.22  4539.73  4568.24
                             5007.97  5482.06

 Zero-point correction=                           0.111462 (Hartree/Particle)
 Thermal correction to Energy=                    0.120447
 Thermal correction to Enthalpy=                  0.121391
 Thermal correction to Gibbs Free Energy=         0.076597
 Sum of electronic and zero-point Energies=           -420.091023
 Sum of electronic and thermal Energies=              -420.082038
 Sum of electronic and thermal Enthalpies=            -420.081094
 Sum of electronic and thermal Free Energies=         -420.125887

                     E (Thermal)             CV                S
                      KCal/Mol        Cal/Mol-Kelvin    Cal/Mol-Kelvin
 Total                   75.582             30.519             94.277
 Electronic               0.000              0.000              1.377
 Translational            0.889              2.981             40.136
 Rotational               0.889              2.981             28.461
 Vibrational             73.804             24.557             24.303
 Vibration     1          0.596              1.976              4.702
 Vibration     2          0.605              1.944              3.332
 Vibration     3          0.615              1.914              2.819
 Vibration     4          0.621              1.893              2.568
 Vibration     5          0.631              1.861              2.284
 Vibration     6          0.649              1.803              1.920
 Vibration     7          0.662              1.765              1.740
 Vibration     8          0.719              1.598              1.217
 Vibration     9          0.789              1.411              0.868
 Vibration    10          0.913              1.124              0.529
 Vibration    11          0.956              1.036              0.453

 1\1\GINC-AJ\Freq\UM062X\6-311++G(d,p)\C5H7O3(2)\AAYUSH\23-Jun-2025\0\\
 # freq 6-311++g(d,p) m062x\\Title Card Required\\0,2\C,-2.804103,-0.43
 693,-0.398689\H,-3.847418,-0.475176,-0.610452\C,-1.630645,-0.320564,-0
 .130493\C,-0.220619,-0.602805,0.157808\O,0.144158,-1.163136,1.150104\O
 ,0.560173,-0.184001,-0.835481\C,1.979444,-0.334203,-0.62486\C,2.503339
 ,0.760275,0.283424\H,2.404373,-0.27022,-1.624961\H,2.169291,-1.325319,
 -0.211448\H,3.586014,0.664663,0.386236\H,2.278495,1.742225,-0.135156\H
 ,2.053641,0.685329,1.273721\O,-1.460813,1.667836,0.397978\H,-1.557038,

 Normal termination of Gaussian 16 at Mon Jun 23 04:46:55 2025.
