 Gaussian 16, Revision A.03,
 Gaussian 16:  ES64L-G16RevA.03 25-Dec-2016

 --------------------------
 # freq 6-311++g(d,p) m062x
 --------------------------

 -------------------
 Title Card Required
 -------------------
 Symbolic Z-matrix:
 Charge =  0 Multiplicity = 2

                         Standard orientation:
 ---------------------------------------------------------------------
 Center     Atomic      Atomic             Coordinates (Angstroms)
 Number     Number       Type             X           Y           Z
 ---------------------------------------------------------------------
      1          6           0       -2.788627   -0.448950   -0.426304
      2          1           0       -3.834673   -0.456017   -0.640328
      3          6           0       -1.621407   -0.090355   -0.079020
      4          6           0       -0.222881   -0.598551    0.132545
      5          8           0        0.135136   -1.218872    1.090341
      6          8           0        0.562421   -0.148651   -0.843373
      7          6           0        1.982141   -0.305024   -0.636312
      8          6           0        2.500730    0.748952    0.322296
      9          1           0        2.409486   -0.194428   -1.631212
     10          1           0        2.173621   -1.313374   -0.268090
     11          1           0        3.583251    0.649934    0.423553
     12          1           0        2.274991    1.748463   -0.051625
     13          1           0        2.048858    0.629195    1.307267
     14          8           0       -1.473412    1.506590    0.426611
     15          1           0       -1.548434    1.987265   -0.407434
 ---------------------------------------------------------------------

 SCF Done:  E(UM062X) =  -420.222022238     A.U. after   18 cycles

 The electronic state is 2-A.
 Alpha  occ. eigenvalues --  -19.68300 -19.64428 -19.63415 -10.70339 -10.63352
 Alpha  occ. eigenvalues --  -10.60597 -10.59518 -10.53633  -1.25781  -1.16555
 Alpha  occ. eigenvalues --   -1.11799  -0.91120  -0.87704  -0.78200  -0.70925
 Alpha  occ. eigenvalues --   -0.64772  -0.61862  -0.59293  -0.57632  -0.54854
 Alpha  occ. eigenvalues --   -0.53123  -0.49361  -0.48458  -0.46337  -0.45283
 Alpha  occ. eigenvalues --   -0.42171  -0.41619  -0.38570  -0.37564  -0.37078
 Alpha  occ. eigenvalues --   -0.31251
 Alpha virt. eigenvalues --   -0.00547   0.00282   0.00519   0.01476   0.02215
 Alpha virt. eigenvalues --    0.02964   0.03103   0.04400   0.05532   0.06039
 Alpha virt. eigenvalues --    0.07186   0.07837   0.08124   0.10178   0.10303

  Beta  occ. eigenvalues --  -19.68297 -19.63903 -19.63420 -10.70284 -10.63509
  Beta  occ. eigenvalues --  -10.60596 -10.58864 -10.53633  -1.25748  -1.16554
  Beta  occ. eigenvalues --   -1.09964  -0.90004  -0.86537  -0.77530  -0.70020
  Beta  occ. eigenvalues --   -0.64552  -0.60901  -0.59035  -0.57289  -0.54150
  Beta  occ. eigenvalues --   -0.52783  -0.48825  -0.47011  -0.45263  -0.44755
  Beta  occ. eigenvalues --   -0.41928  -0.40393  -0.38516  -0.36832  -0.35634
  Beta virt. eigenvalues --   -0.08392  -0.00538   0.00470   0.01149   0.01727
  Beta virt. eigenvalues --    0.02373   0.03108   0.03302   0.04583   0.05529
  Beta virt. eigenvalues --    0.05937   0.07205   0.07774   0.08032   0.10257

 Mulliken charges and spin densities:
               1          2
     1  C    0.093462   1.045969
     2  H    0.228504  -0.027517
     3  C   -0.058847  -0.326059
     4  C   -0.237731   0.054668
     5  O   -0.195479  -0.000944
     6  O    0.003978   0.001559
     7  C   -0.287861   0.001733
     8  C   -0.423721   0.001281
     9  H    0.191200   0.000239
    10  H    0.193952  -0.000173
    11  H    0.165516  -0.000066
    12  H    0.163704  -0.000119
    13  H    0.195513  -0.000814
    14  O   -0.280155   0.249078
    15  H    0.247964   0.001164
 Sum of Mulliken charges =  -0.00000   1.00000

 Dipole moment (field-independent basis, Debye):
    X=              0.1104    Y=              0.3947    Z=             -3.1105  Tot=              3.1374
 Quadrupole moment (field-independent basis, Debye-Ang):
   XX=            -33.5629   YY=            -48.9250   ZZ=            -51.3229
   XY=              1.4675   XZ=              3.3409   YZ=             -0.3643

  Exact polarizability:  87.648   5.817  67.368   4.591   0.427  58.159
 Approx polarizability:  89.275   6.934  80.665   7.180  -1.977  75.033

 ******    2 imaginary frequencies (negative Signs) ******

                      1                      2                      3
                      A                      A                      A
 Frequencies --   -450.9196               -34.7374                89.9792
 Red. masses --      4.3774                 1.3366                 3.3778
 Frc consts  --      0.5244                 0.0010                 0.0161
 IR Inten    --    100.9014                54.7991                 4.5527

                      4                      5                      6
                      A                      A                      A
 Frequencies --    112.0866               128.7979               192.2517
 Red. masses --      3.0645                 2.9446                 1.6217
 Frc consts  --      0.0227                 0.0288                 0.0353
 IR Inten    --      9.5993                18.2678                 2.1835

                      7                      8                      9
                      A                      A                      A
 Frequencies --    213.7685               247.6097               274.6249
 Red. masses --      1.2904                 1.9964                 7.0686
 Frc consts  --      0.0347                 0.0721                 0.3141
 IR Inten    --     16.4046                 8.9617                 1.7263

                     10                     11                     12
                      A                      A                      A
 Frequencies --    343.0627               364.4459               449.1615
 Red. masses --      3.1706                 8.6470                 3.6078
 Frc consts  --      0.2199                 0.6767                 0.4288
 IR Inten    --     15.4208                 0.8102                 4.4099

                     13                     14                     15
                      A                      A                      A
 Frequencies --    600.4237               626.6401               697.2722
 Red. masses --      4.5207                 4.9672                 1.3593
 Frc consts  --      0.9602                 1.1492                 0.3894
 IR Inten    --      3.4346                18.8726                40.3431

                     16                     17                     18
                      A                      A                      A
 Frequencies --    786.4662               798.8340               891.5098
 Red. masses --     10.4240                 1.2118                 3.2642
 Frc consts  --      3.7988                 0.4556                 1.5285
 IR Inten    --     15.7938                 4.8656                16.8119

                     19                     20                     21
                      A                      A                      A
 Frequencies --    917.1435              1068.4290              1086.6884
 Red. masses --      2.6218                 4.0018                 1.1810
 Frc consts  --      1.2993                 2.6915                 0.8217
 IR Inten    --      0.5238                26.0044                40.3531

                     22                     23                     24
                      A                      A                      A
 Frequencies --   1127.3396              1201.9741              1270.1954
 Red. masses --      2.0896                 1.7850                 4.7033
 Frc consts  --      1.5647                 1.5194                 4.4709
 IR Inten    --     21.1332                 9.7860               539.8292

                     25                     26                     27
                      A                      A                      A
 Frequencies --   1342.9814              1401.0054              1429.4871
 Red. masses --      1.1921                 1.2664                 1.3570
 Frc consts  --      1.2668                 1.4645                 1.6337
 IR Inten    --     59.0546                15.3333                11.5906

                     28                     29                     30
                      A                      A                      A
 Frequencies --   1491.3788              1501.5492              1513.7453
 Red. masses --      1.0402                 1.0532                 1.0917
 Frc consts  --      1.3632                 1.3991                 1.4739
 IR Inten    --     10.3148                 1.1490                17.5405

                     31                     32                     33
                      A                      A                      A
 Frequencies --   1809.2985              1873.2852              3075.9726
 Red. masses --      7.7704                10.8818                 1.0354
 Frc consts  --     14.9869                22.4987                 5.7718
 IR Inten    --     73.8803               259.3166                 9.1515

                     34                     35                     36
                      A                      A                      A
 Frequencies --   3108.7282              3151.8316              3154.9437
 Red. masses --      1.0607                 1.1018                 1.1045
 Frc consts  --      6.0399                 6.4488                 6.4776
 IR Inten    --     19.7733                13.8506                 3.3939

                     37                     38                     39
                      A                      A                      A
 Frequencies --   3175.4497              3430.7141              3858.2594
 Red. masses --      1.1073                 1.1225                 1.0675
 Frc consts  --      6.5786                 7.7842                 9.3624
 IR Inten    --     14.4806                74.3721                64.0532

 - Thermochemistry -
 -------------------
 Temperature   298.150 Kelvin.  Pressure   1.00000 Atm.
 Atom     1 has atomic number  6 and mass  12.00000

 Molecular mass:   115.03952 amu.
 Principal axes and moments of inertia in atomic units:
                           1         2         3
     Eigenvalues --   471.092411373.560001508.65080
           X            0.99989   0.01193   0.00909
           Y           -0.01220   0.99947   0.03018
           Z           -0.00873  -0.03029   0.99950
 This molecule is an asymmetric top.
 Rotational symmetry number  1.
 Warning -- assumption of classical behavior for rotation
           may cause significant error
 Rotational temperatures (Kelvin)      0.18386     0.06306     0.05741
 Rotational constants (GHZ):           3.83097     1.31392     1.19626
    2 imaginary frequencies ignored.
 Zero-point vibrational energy     291932.7 (Joules/Mol)
                                   69.77359 (Kcal/Mol)
 Warning -- explicit consideration of  11 degrees of freedom as
           vibrations may cause significant error
 Vibrational temperatures:    129.46   161.27   185.31   276.61   307.57
          (Kelvin)            356.26   395.12   493.59   524.36   646.24
                              863.88   901.60  1003.22  1131.55  1149.34
                             1282.68  1319.56  1537.23  1563.50  1621.99
                             1729.37  1827.53  1932.25  2015.73  2056.71
                             2145.76  2160.39  2177.94  2603.18  2695.24
                             4425.64  4472.77  4534.78  4539.26  4568.76
                             4936.03  5551.17

 Zero-point correction=                           0.111191 (Hartree/Particle)
 Thermal correction to Energy=                    0.120038
 Thermal correction to Enthalpy=                  0.120982
 Thermal correction to Gibbs Free Energy=         0.076986
 Sum of electronic and zero-point Energies=           -420.110831
 Sum of electronic and thermal Energies=              -420.101984
 Sum of electronic and thermal Enthalpies=            -420.101040
 Sum of electronic and thermal Free Energies=         -420.145036

                     E (Thermal)             CV                S
                      KCal/Mol        Cal/Mol-Kelvin    Cal/Mol-Kelvin
 Total                   75.325             30.414             92.598
 Electronic               0.000              0.000              1.377
 Translational            0.889              2.981             40.136
 Rotational               0.889              2.981             28.370
 Vibrational             73.548             24.452             22.715
 Vibration     1          0.602              1.956              3.661
 Vibration     2          0.607              1.939              3.232
 Vibration     3          0.611              1.924              2.964
 Vibration     4          0.634              1.851              2.206
 Vibration     5          0.644              1.820              2.011
 Vibration     6          0.661              1.767              1.748
 Vibration     7          0.677              1.720              1.567
 Vibration     8          0.722              1.589              1.198
 Vibration     9          0.738              1.545              1.103
 Vibration    10          0.808              1.363              0.798
 Vibration    11          0.959              1.031              0.449

 1\1\GINC-AJ\Freq\UM062X\6-311++G(d,p)\C5H7O3(2)\AAYUSH\23-Jun-2025\0\\
 # freq 6-311++g(d,p) m062x\\Title Card Required\\0,2\C,-2.788627,-0.44
 895,-0.426304\H,-3.834673,-0.456016,-0.640328\C,-1.621407,-0.090355,-0
 .07902\C,-0.222881,-0.598551,0.132545\O,0.135136,-1.218872,1.090341\O,
 0.562421,-0.148651,-0.843373\C,1.982141,-0.305024,-0.636312\C,2.50073,
 0.748952,0.322296\H,2.409486,-0.194428,-1.631212\H,2.173621,-1.313374,
 -0.26809\H,3.583251,0.649934,0.423553\H,2.274991,1.748463,-0.051625\H,
 2.048858,0.629195,1.307267\O,-1.473412,1.50659,0.426611\H,-1.548434,1.

 Normal termination of Gaussian 16 at Mon Jun 23 04:39:37 2025.
