 Gaussian 16, Revision A.03,
 Gaussian 16:  ES64L-G16RevA.03 25-Dec-2016

 --------------------------
 # freq 6-311++g(d,p) m062x
 --------------------------

 -------------------
 Title Card Required
 -------------------
 Symbolic Z-matrix:
 Charge =  0 Multiplicity = 2

                         Standard orientation:
 ---------------------------------------------------------------------
 Center     Atomic      Atomic             Coordinates (Angstroms)
 Number     Number       Type             X           Y           Z
 ---------------------------------------------------------------------
      1          6           0       -2.785574   -0.451354   -0.429204
      2          1           0       -3.832858   -0.444551   -0.640731
      3          6           0       -1.620983   -0.070302   -0.073654
      4          6           0       -0.223976   -0.598308    0.130025
      5          8           0        0.134469   -1.224160    1.084279
      6          8           0        0.562715   -0.145085   -0.844026
      7          6           0        1.982390   -0.301950   -0.637234
      8          6           0        2.500358    0.748027    0.326221
      9          1           0        2.410190   -0.186786   -1.631433
     10          1           0        2.174216   -1.311795   -0.273365
     11          1           0        3.582874    0.648940    0.427444
     12          1           0        2.274531    1.749153   -0.043368
     13          1           0        2.048267    0.623761    1.310553
     14          8           0       -1.474996    1.491698    0.428706
     15          1           0       -1.548018    1.984968   -0.397693
 ---------------------------------------------------------------------

 SCF Done:  E(UM062X) =  -420.226223369     A.U. after   18 cycles

 The electronic state is 2-A.
 Alpha  occ. eigenvalues --  -19.68254 -19.64593 -19.63375 -10.70222 -10.63461
 Alpha  occ. eigenvalues --  -10.60575 -10.59413 -10.53637  -1.25717  -1.16489
 Alpha  occ. eigenvalues --   -1.12326  -0.90954  -0.87627  -0.78124  -0.70879
 Alpha  occ. eigenvalues --   -0.64732  -0.61635  -0.59461  -0.57718  -0.55098
 Alpha  occ. eigenvalues --   -0.53079  -0.49457  -0.48503  -0.46371  -0.45266
 Alpha  occ. eigenvalues --   -0.42257  -0.41671  -0.38529  -0.37494  -0.36911
 Alpha  occ. eigenvalues --   -0.31239
 Alpha virt. eigenvalues --   -0.00568   0.00329   0.00575   0.01471   0.02219
 Alpha virt. eigenvalues --    0.03075   0.03197   0.04416   0.05530   0.06063
 Alpha virt. eigenvalues --    0.07224   0.07823   0.08190   0.10157   0.10328

  Beta  occ. eigenvalues --  -19.68250 -19.64140 -19.63378 -10.70166 -10.63614
  Beta  occ. eigenvalues --  -10.60574 -10.58725 -10.53637  -1.25680  -1.16482
  Beta  occ. eigenvalues --   -1.10739  -0.89878  -0.86392  -0.77435  -0.69920
  Beta  occ. eigenvalues --   -0.64513  -0.60631  -0.59123  -0.57381  -0.54521
  Beta  occ. eigenvalues --   -0.52787  -0.48775  -0.47183  -0.45311  -0.45199
  Beta  occ. eigenvalues --   -0.41912  -0.40649  -0.38477  -0.36856  -0.35394
  Beta virt. eigenvalues --   -0.08125  -0.00569   0.00476   0.01203   0.01722
  Beta virt. eigenvalues --    0.02382   0.03110   0.03463   0.04593   0.05525
  Beta virt. eigenvalues --    0.05954   0.07232   0.07775   0.08105   0.10232

 Mulliken charges and spin densities:
               1          2
     1  C    0.086434   1.070936
     2  H    0.227612  -0.026447
     3  C   -0.075134  -0.311659
     4  C   -0.219154   0.051744
     5  O   -0.196335   0.000419
     6  O    0.004209   0.002093
     7  C   -0.289119   0.001780
     8  C   -0.423344   0.001086
     9  H    0.191032   0.000227
    10  H    0.194263  -0.000191
    11  H    0.165462  -0.000072
    12  H    0.163481  -0.000069
    13  H    0.195441  -0.000708
    14  O   -0.277647   0.209038
    15  H    0.252799   0.001823
 Sum of Mulliken charges =  -0.00000   1.00000

 Dipole moment (field-independent basis, Debye):
    X=              0.1358    Y=              0.5268    Z=             -3.0704  Tot=              3.1182
 Quadrupole moment (field-independent basis, Debye-Ang):
   XX=            -33.8217   YY=            -48.8230   ZZ=            -51.3500
   XY=              1.2107   XZ=              3.2552   YZ=             -0.3402

  Exact polarizability:  87.432   5.681  66.504   4.523   0.206  58.094
 Approx polarizability:  88.688   6.646  79.524   6.949  -2.330  74.871

 ******    2 imaginary frequencies (negative Signs) ******

                      1                      2                      3
                      A                      A                      A
 Frequencies --   -352.3690               -59.6995                91.2503
 Red. masses --      2.6380                 1.2703                 3.3868
 Frc consts  --      0.1930                 0.0027                 0.0166
 IR Inten    --    125.5491                63.6195                 4.2094

                      4                      5                      6
                      A                      A                      A
 Frequencies --    113.3490               128.5532               193.2768
 Red. masses --      3.0446                 3.3577                 1.5745
 Frc consts  --      0.0230                 0.0327                 0.0347
 IR Inten    --      6.7158                17.4770                 2.2497

                      7                      8                      9
                      A                      A                      A
 Frequencies --    235.6389               250.3860               289.1958
 Red. masses --      1.8128                 2.0146                 5.1030
 Frc consts  --      0.0593                 0.0744                 0.2515
 IR Inten    --      3.3376                 8.5832                 1.1201

                     10                     11                     12
                      A                      A                      A
 Frequencies --    344.3310               379.2602               451.5756
 Red. masses --      3.2129                 7.7119                 3.5973
 Frc consts  --      0.2244                 0.6536                 0.4322
 IR Inten    --     15.9823                 0.1702                 4.4497

                     13                     14                     15
                      A                      A                      A
 Frequencies --    607.4219               633.2041               696.0628
 Red. masses --      4.4339                 4.9607                 1.3703
 Frc consts  --      0.9639                 1.1719                 0.3912
 IR Inten    --      3.6891                22.4116                40.0733

                     16                     17                     18
                      A                      A                      A
 Frequencies --    790.6920               798.9915               891.3321
 Red. masses --      9.1274                 1.2320                 3.2532
 Frc consts  --      3.3621                 0.4634                 1.5228
 IR Inten    --     13.7090                 4.4303                16.6472

                     19                     20                     21
                      A                      A                      A
 Frequencies --    917.4464              1068.1684              1110.5167
 Red. masses --      2.6401                 4.0259                 1.1837
 Frc consts  --      1.3093                 2.7064                 0.8601
 IR Inten    --      0.3102                25.4375                40.2659

                     22                     23                     24
                      A                      A                      A
 Frequencies --   1127.2017              1201.8838              1269.2461
 Red. masses --      2.0887                 1.7862                 4.7650
 Frc consts  --      1.5636                 1.5202                 4.5227
 IR Inten    --     21.1175                 9.7789               539.7310

                     25                     26                     27
                      A                      A                      A
 Frequencies --   1342.6826              1400.8740              1429.3080
 Red. masses --      1.1893                 1.2657                 1.3561
 Frc consts  --      1.2633                 1.4634                 1.6323
 IR Inten    --     57.4149                14.9169                11.4566

                     28                     29                     30
                      A                      A                      A
 Frequencies --   1491.4463              1501.5533              1513.6242
 Red. masses --      1.0402                 1.0533                 1.0915
 Frc consts  --      1.3633                 1.3993                 1.4733
 IR Inten    --     10.2397                 1.1468                17.2700

                     31                     32                     33
                      A                      A                      A
 Frequencies --   1789.2042              1868.0009              3075.8590
 Red. masses --      7.5222                11.5484                 1.0354
 Frc consts  --     14.1879                23.7425                 5.7713
 IR Inten    --     42.1138               288.9024                 9.2147

                     34                     35                     36
                      A                      A                      A
 Frequencies --   3108.8379              3151.6731              3154.7720
 Red. masses --      1.0607                 1.1019                 1.1045
 Frc consts  --      6.0400                 6.4487                 6.4765
 IR Inten    --     19.8483                13.6382                 3.7254

                     37                     38                     39
                      A                      A                      A
 Frequencies --   3175.2710              3421.3796              3861.4213
 Red. masses --      1.1074                 1.1208                 1.0674
 Frc consts  --      6.5782                 7.7302                 9.3773
 IR Inten    --     14.5615                69.0129                66.3487

 - Thermochemistry -
 -------------------
 Temperature   298.150 Kelvin.  Pressure   1.00000 Atm.
 Atom     1 has atomic number  6 and mass  12.00000

 Molecular mass:   115.03952 amu.
 Principal axes and moments of inertia in atomic units:
                           1         2         3
     Eigenvalues --   468.549771372.604381505.88041
           X            0.99989   0.01177   0.00914
           Y           -0.01205   0.99944   0.03109
           Z           -0.00877  -0.03120   0.99947
 This molecule is an asymmetric top.
 Rotational symmetry number  1.
 Warning -- assumption of classical behavior for rotation
           may cause significant error
 Rotational temperatures (Kelvin)      0.18486     0.06310     0.05752
 Rotational constants (GHZ):           3.85176     1.31483     1.19846
    2 imaginary frequencies ignored.
 Zero-point vibrational energy     292336.8 (Joules/Mol)
                                   69.87016 (Kcal/Mol)
 Warning -- explicit consideration of  11 degrees of freedom as
           vibrations may cause significant error
 Vibrational temperatures:    131.29   163.08   184.96   278.08   339.03
          (Kelvin)            360.25   416.09   495.42   545.67   649.72
                              873.94   911.04  1001.48  1137.63  1149.57
                             1282.43  1320.00  1536.86  1597.79  1621.79
                             1729.24  1826.16  1931.82  2015.55  2056.46
                             2145.86  2160.40  2177.77  2574.27  2687.64
                             4425.48  4472.92  4534.55  4539.01  4568.51
                             4922.60  5555.72

 Zero-point correction=                           0.111345 (Hartree/Particle)
 Thermal correction to Energy=                    0.120102
 Thermal correction to Enthalpy=                  0.121046
 Thermal correction to Gibbs Free Energy=         0.077264
 Sum of electronic and zero-point Energies=           -420.114878
 Sum of electronic and thermal Energies=              -420.106122
 Sum of electronic and thermal Enthalpies=            -420.105178
 Sum of electronic and thermal Free Energies=         -420.148960

                     E (Thermal)             CV                S
                      KCal/Mol        Cal/Mol-Kelvin    Cal/Mol-Kelvin
 Total                   75.365             30.256             92.147
 Electronic               0.000              0.000              1.377
 Translational            0.889              2.981             40.136
 Rotational               0.889              2.981             28.362
 Vibrational             73.587             24.295             22.273
 Vibration     1          0.602              1.955              3.633
 Vibration     2          0.607              1.938              3.211
 Vibration     3          0.611              1.925              2.968
 Vibration     4          0.635              1.849              2.196
 Vibration     5          0.655              1.786              1.836
 Vibration     6          0.663              1.762              1.728
 Vibration     7          0.686              1.694              1.479
 Vibration     8          0.723              1.587              1.192
 Vibration     9          0.749              1.514              1.042
 Vibration    10          0.810              1.357              0.791
 Vibration    11          0.966              1.016              0.437

 1\1\GINC-AJ\Freq\UM062X\6-311++G(d,p)\C5H7O3(2)\AAYUSH\23-Jun-2025\0\\
 # freq 6-311++g(d,p) m062x\\Title Card Required\\0,2\C,-2.785574,-0.45
 1354,-0.429204\H,-3.832858,-0.444551,-0.640731\C,-1.620983,-0.070302,-
 0.073654\C,-0.223976,-0.598308,0.130025\O,0.134469,-1.22416,1.084279\O
 ,0.562715,-0.145085,-0.844026\C,1.98239,-0.30195,-0.637234\C,2.500358,
 0.748027,0.326221\H,2.41019,-0.186786,-1.631433\H,2.174216,-1.311795,-
 0.273365\H,3.582874,0.64894,0.427444\H,2.274531,1.749153,-0.043368\H,2
 .048267,0.623761,1.310553\O,-1.474996,1.491698,0.428706\H,-1.548018,1.

 Normal termination of Gaussian 16 at Mon Jun 23 04:42:01 2025.
