 Gaussian 16, Revision A.03,
 Gaussian 16:  ES64L-G16RevA.03 25-Dec-2016

 --------------------------
 # ccsd(t)/6-311++g(d,p) sp
 --------------------------

 -------------------
 Title Card Required
 -------------------
 Symbolic Z-matrix:
 Charge =  0 Multiplicity = 2

                         Standard orientation:
 ---------------------------------------------------------------------
 Center     Atomic      Atomic             Coordinates (Angstroms)
 Number     Number       Type             X           Y           Z
 ---------------------------------------------------------------------
      1          6           0       -2.813256   -0.442171   -0.388080
      2          1           0       -3.859817   -0.442228   -0.585730
      3          6           0       -1.635349   -0.418414   -0.147739
      4          6           0       -0.222317   -0.617800    0.166093
      5          8           0        0.152417   -1.135473    1.178456
      6          8           0        0.557146   -0.200949   -0.831024
      7          6           0        1.976896   -0.346047   -0.619889
      8          6           0        2.505072    0.765349    0.264517
      9          1           0        2.399915   -0.303360   -1.622027
     10          1           0        2.166603   -1.328580   -0.186243
     11          1           0        3.587916    0.670208    0.366225
     12          1           0        2.281170    1.739071   -0.173501
     13          1           0        2.057670    0.711011    1.257078
     14          8           0       -1.453458    1.747380    0.382523
     15          1           0       -1.548568    2.020710   -0.544860
 ---------------------------------------------------------------------

 SCF Done:  E(UHF) =  -417.988266300     A.U. after   38 cycles
 E2 =    -0.1260446053D+01 EUMP2 =    -0.41924871235215D+03
 CCSD(T)= -0.41935582018D+03

 The electronic state is 2-A.
 Alpha  occ. eigenvalues --  -20.62904 -20.61312 -20.55733 -11.41501 -11.29723
 Alpha  occ. eigenvalues --  -11.26790 -11.25775 -11.22462  -1.48147  -1.38549
 Alpha  occ. eigenvalues --   -1.37869  -1.07803  -1.04226  -0.92636  -0.83803
 Alpha  occ. eigenvalues --   -0.76467  -0.73064  -0.69501  -0.68132  -0.67004
 Alpha  occ. eigenvalues --   -0.64973  -0.63153  -0.58258  -0.55880  -0.54032
 Alpha  occ. eigenvalues --   -0.53905  -0.50510  -0.47786  -0.46224  -0.42865
 Alpha  occ. eigenvalues --   -0.42105
 Alpha virt. eigenvalues --    0.03662   0.04413   0.05630   0.06296   0.07303
 Alpha virt. eigenvalues --    0.08903   0.09435   0.09916   0.11041   0.11695
 Alpha virt. eigenvalues --    0.13606   0.13721   0.14412   0.16193   0.16453

  Beta  occ. eigenvalues --  -20.61316 -20.58834 -20.56060 -11.41258 -11.29723
  Beta  occ. eigenvalues --  -11.26899 -11.25446 -11.22463  -1.48282  -1.38387
  Beta  occ. eigenvalues --   -1.23431  -1.07849  -1.03721  -0.92058  -0.83569
  Beta  occ. eigenvalues --   -0.76381  -0.72415  -0.69689  -0.66801  -0.63554
  Beta  occ. eigenvalues --   -0.63052  -0.58511  -0.55368  -0.54111  -0.50675
  Beta  occ. eigenvalues --   -0.50540  -0.48213  -0.47088  -0.42972  -0.42427
  Beta virt. eigenvalues --    0.03689   0.04369   0.05030   0.06294   0.07085
  Beta virt. eigenvalues --    0.08478   0.09318   0.09530   0.10684   0.11008
  Beta virt. eigenvalues --    0.12500   0.13781   0.13906   0.15034   0.16337

 Mulliken charges and spin densities:
               1          2
     1  C   -0.491387   0.646434
     2  H    0.224067  -0.045408
     3  C    0.953933  -0.560274
     4  C   -0.669570   0.087406
     5  O   -0.264966  -0.067554
     6  O   -0.083077  -0.000573
     7  C   -0.145371   0.000886
     8  C   -0.385289   0.000895
     9  H    0.164193  -0.000147
    10  H    0.178839  -0.000256
    11  H    0.137130   0.000041
    12  H    0.136488  -0.000168
    13  H    0.187314  -0.000423
    14  O   -0.160578   0.978214
    15  H    0.218274  -0.039073
 Sum of Mulliken charges =  -0.00000   1.00000

 Dipole moment (field-independent basis, Debye):
    X=              0.0681    Y=              1.2572    Z=             -3.1736  Tot=              3.4142
 Quadrupole moment (field-independent basis, Debye-Ang):
   XX=            -33.5893   YY=            -47.5241   ZZ=            -51.7350
   XY=             -0.1059   XZ=              2.9066   YZ=             -0.2300

 MP4SDQ=-419.3016416\CCSD=-419.3030048\CCSD(T)=-419.3558202\S2=0.859177
 Normal termination of Gaussian 16 at Wed Aug 20 13:55:45 2025.
