 Gaussian 16, Revision A.03,
 Gaussian 16:  ES64L-G16RevA.03 25-Dec-2016

 -------------------
 # freq 6-31+g m062x
 -------------------

 -------------------
 Title Card Required
 -------------------
 Symbolic Z-matrix:
 Charge =  0 Multiplicity = 2

                         Standard orientation:
 ---------------------------------------------------------------------
 Center     Atomic      Atomic             Coordinates (Angstroms)
 Number     Number       Type             X           Y           Z
 ---------------------------------------------------------------------
      1          6           0       -2.817728   -0.447694   -0.382631
      2          1           0       -3.865575   -0.418994   -0.571335
      3          6           0       -1.638731   -0.471887   -0.154867
      4          6           0       -0.223842   -0.632283    0.170516
      5          8           0        0.158121   -1.119017    1.195692
      6          8           0        0.553432   -0.213627   -0.828376
      7          6           0        1.974238   -0.352343   -0.617097
      8          6           0        2.505530    0.768693    0.252966
      9          1           0        2.395361   -0.321546   -1.620511
     10          1           0        2.165616   -1.329485   -0.172076
     11          1           0        3.588517    0.672625    0.352716
     12          1           0        2.282676    1.737754   -0.195820
     13          1           0        2.060574    0.726697    1.247131
     14          8           0       -1.448620    1.798533    0.372382
     15          1           0       -1.527434    2.018922   -0.571007
 ---------------------------------------------------------------------

 SCF Done:  E(UM062X) =  -419.961245270     A.U. after   23 cycles

 The electronic state is 2-A.
 Alpha  occ. eigenvalues --  -19.70682 -19.70250 -19.66197 -10.72962 -10.61592
 Alpha  occ. eigenvalues --  -10.59395 -10.59101 -10.54425  -1.27959  -1.18626
 Alpha  occ. eigenvalues --   -1.14536  -0.91350  -0.87953  -0.78569  -0.71208
 Alpha  occ. eigenvalues --   -0.64693  -0.61958  -0.58501  -0.56925  -0.54954
 Alpha  occ. eigenvalues --   -0.53937  -0.50444  -0.49013  -0.46665  -0.45234
 Alpha  occ. eigenvalues --   -0.42646  -0.42055  -0.39401  -0.38332  -0.36808
 Alpha  occ. eigenvalues --   -0.36375
 Alpha virt. eigenvalues --   -0.01259   0.01948   0.02339   0.03502   0.03819
 Alpha virt. eigenvalues --    0.03889   0.05204   0.06522   0.07482   0.08199
 Alpha virt. eigenvalues --    0.08461   0.08975   0.09624   0.12094   0.12553

  Beta  occ. eigenvalues --  -19.70686 -19.68596 -19.66208 -10.72952 -10.61591
  Beta  occ. eigenvalues --  -10.59367 -10.59034 -10.54426  -1.27966  -1.18646
  Beta  occ. eigenvalues --   -1.07161  -0.91146  -0.87774  -0.78499  -0.71137
  Beta  occ. eigenvalues --   -0.64669  -0.61748  -0.58423  -0.56786  -0.53969
  Beta  occ. eigenvalues --   -0.51726  -0.49466  -0.46897  -0.45269  -0.42065
  Beta  occ. eigenvalues --   -0.40086  -0.38832  -0.38134  -0.38004  -0.36640
  Beta virt. eigenvalues --   -0.08963  -0.00878   0.01988   0.02371   0.03597
  Beta virt. eigenvalues --    0.03848   0.04084   0.05187   0.06668   0.07545
  Beta virt. eigenvalues --    0.08170   0.08549   0.09056   0.09697   0.12202

 Mulliken charges and spin densities:
               1          2
     1  C   -0.132001   0.054375
     2  H    0.344632  -0.004793
     3  C   -0.101672  -0.000093
     4  C    0.095881   0.044601
     5  O   -0.320374  -0.004261
     6  O   -0.221117  -0.002716
     7  C   -0.223991  -0.001529
     8  C   -0.566211   0.000738
     9  H    0.217700  -0.000000
    10  H    0.232709  -0.000073
    11  H    0.206665  -0.000007
    12  H    0.217394  -0.000067
    13  H    0.245014  -0.000088
    14  O   -0.396027   0.950308
    15  H    0.401398  -0.036393
 Sum of Mulliken charges =  -0.00000   1.00000

 Dipole moment (field-independent basis, Debye):
    X=              0.1763    Y=              0.7762    Z=             -3.2625  Tot=              3.3582
 Quadrupole moment (field-independent basis, Debye-Ang):
   XX=            -33.4742   YY=            -48.1533   ZZ=            -52.5364
   XY=              0.5579   XZ=              3.1847   YZ=             -0.7674

  Exact polarizability:  86.811   3.189  58.580   4.432  -2.092  55.787
 Approx polarizability:  92.493   0.654  59.500   8.764  -7.119  69.339

 ******    4 imaginary frequencies (negative Signs) ******

                      1                      2                      3
                      A                      A                      A
 Frequencies --   -489.2094              -205.9285               -46.5891
 Red. masses --      1.0746                 1.6514                 4.6857
 Frc consts  --      0.1515                 0.0413                 0.0060
 IR Inten    --    130.8561                79.2075                 1.0832

                      4                      5                      6
                      A                      A                      A
 Frequencies --     -9.7731                66.7454                83.8841
 Red. masses --      3.9163                 3.0433                 4.8430
 Frc consts  --      0.0002                 0.0080                 0.0201
 IR Inten    --     11.3127                 9.8265                 3.6104

                      7                      8                      9
                      A                      A                      A
 Frequencies --    113.1384               183.2002               215.6120
 Red. masses --      2.9354                 1.3249                 3.1088
 Frc consts  --      0.0221                 0.0262                 0.0852
 IR Inten    --     10.3573                 1.7546                 7.8415

                     10                     11                     12
                      A                      A                      A
 Frequencies --    283.8619               317.1374               421.0343
 Red. masses --      3.3074                 3.1339                 3.8789
 Frc consts  --      0.1570                 0.1857                 0.4051
 IR Inten    --     32.6515                14.1253                 1.9770

                     13                     14                     15
                      A                      A                      A
 Frequencies --    570.1178               627.9082               765.0347
 Red. masses --      4.1248                 5.5278                 3.1743
 Frc consts  --      0.7899                 1.2841                 1.0946
 IR Inten    --      3.6239                15.1061                81.1049

                     16                     17                     18
                      A                      A                      A
 Frequencies --    798.1505               817.6592               830.0927
 Red. masses --      1.4074                 1.2877                 1.8517
 Frc consts  --      0.5283                 0.5072                 0.7517
 IR Inten    --     62.8937                 2.3039                10.8684

                     19                     20                     21
                      A                      A                      A
 Frequencies --    899.5477               944.2555              1114.0652
 Red. masses --      3.3951                 2.5269                 4.1794
 Frc consts  --      1.6187                 1.3275                 3.0563
 IR Inten    --     17.8255                 5.1070                 7.5913

                     22                     23                     24
                      A                      A                      A
 Frequencies --   1158.7597              1227.8121              1323.3986
 Red. masses --      2.0851                 1.7593                 2.3483
 Frc consts  --      1.6495                 1.5626                 2.4232
 IR Inten    --     17.9119                 5.2993               389.2399

                     25                     26                     27
                      A                      A                      A
 Frequencies --   1369.9094              1443.2477              1458.4631
 Red. masses --      1.5707                 1.3475                 1.2641
 Frc consts  --      1.7367                 1.6538                 1.5842
 IR Inten    --    228.4622                28.7597                17.6190

                     28                     29                     30
                      A                      A                      A
 Frequencies --   1526.8913              1536.6483              1544.1044
 Red. masses --      1.0417                 1.0630                 1.0796
 Frc consts  --      1.4308                 1.4789                 1.5166
 IR Inten    --     13.8357                 3.4905                25.4422

                     31                     32                     33
                      A                      A                      A
 Frequencies --   1917.5019              2312.1138              3107.7876
 Red. masses --     12.3196                 5.6282                 1.0353
 Frc consts  --     26.6882                17.7273                 5.8916
 IR Inten    --    301.0967                63.8256                13.7474

                     34                     35                     36
                      A                      A                      A
 Frequencies --   3136.6633              3185.8030              3191.2762
 Red. masses --      1.0598                 1.1008                 1.1027
 Frc consts  --      6.1437                 6.5824                 6.6169
 IR Inten    --     21.2926                14.3954                 7.9507

                     37                     38                     39
                      A                      A                      A
 Frequencies --   3212.0139              3531.1123              3800.7195
 Red. masses --      1.1046                 1.1756                 1.0671
 Frc consts  --      6.7143                 8.6365                 9.0822
 IR Inten    --     16.4984                60.1611                10.4733

 - Thermochemistry -
 -------------------
 Temperature   298.150 Kelvin.  Pressure   1.00000 Atm.
 Atom     1 has atomic number  6 and mass  12.00000

 Molecular mass:   115.03952 amu.
 Principal axes and moments of inertia in atomic units:
                           1         2         3
     Eigenvalues --   535.162521385.337911571.85145
           X            0.99990   0.01214   0.00735
           Y           -0.01223   0.99986   0.01173
           Z           -0.00721  -0.01182   0.99990
 This molecule is an asymmetric top.
 Rotational symmetry number  1.
 Warning -- assumption of classical behavior for rotation
           may cause significant error
 Rotational temperatures (Kelvin)      0.16185     0.06252     0.05510
 Rotational constants (GHZ):           3.37232     1.30274     1.14816
    4 imaginary frequencies ignored.
 Zero-point vibrational energy     293298.4 (Joules/Mol)
                                   70.10001 (Kcal/Mol)
 Warning -- explicit consideration of   9 degrees of freedom as
           vibrations may cause significant error
 Vibrational temperatures:     96.03   120.69   162.78   263.58   310.22
          (Kelvin)            408.41   456.29   605.77   820.27   903.42
                             1100.71  1148.36  1176.43  1194.32  1294.25
                             1358.57  1602.89  1667.20  1766.55  1904.08
                             1970.99  2076.51  2098.40  2196.86  2210.89
                             2221.62  2758.86  3326.62  4471.41  4512.96
                             4583.66  4591.53  4621.37  5080.48  5468.39

 Zero-point correction=                           0.111711 (Hartree/Particle)
 Thermal correction to Energy=                    0.119910
 Thermal correction to Enthalpy=                  0.120854
 Thermal correction to Gibbs Free Energy=         0.077345
 Sum of electronic and zero-point Energies=           -419.849534
 Sum of electronic and thermal Energies=              -419.841335
 Sum of electronic and thermal Enthalpies=            -419.840391
 Sum of electronic and thermal Free Energies=         -419.883901

                     E (Thermal)             CV                S
                      KCal/Mol        Cal/Mol-Kelvin    Cal/Mol-Kelvin
 Total                   75.245             27.219             91.573
 Electronic               0.000              0.000              1.377
 Translational            0.889              2.981             40.136
 Rotational               0.889              2.981             28.546
 Vibrational             73.467             21.258             21.515
 Vibration     1          0.598              1.970              4.247
 Vibration     2          0.601              1.960              3.798
 Vibration     3          0.607              1.939              3.214
 Vibration     4          0.631              1.863              2.296
 Vibration     5          0.645              1.817              1.996
 Vibration     6          0.682              1.704              1.510
 Vibration     7          0.704              1.641              1.325
 Vibration     8          0.784              1.425              0.888
 Vibration     9          0.926              1.096              0.504

 Normal termination of Gaussian 16 at Fri Jun 20 13:48:13 2025.
