 Gaussian 16, Revision A.03,
 Gaussian 16:  ES64L-G16RevA.03 25-Dec-2016

 -------------------
 # freq 6-31+g m062x
 -------------------

 -------------------
 Title Card Required
 -------------------
 Symbolic Z-matrix:
 Charge =  0 Multiplicity = 2

                         Standard orientation:
 ---------------------------------------------------------------------
 Center     Atomic      Atomic             Coordinates (Angstroms)
 Number     Number       Type             X           Y           Z
 ---------------------------------------------------------------------
      1          6           0       -2.804103   -0.436930   -0.398689
      2          1           0       -3.847418   -0.475176   -0.610452
      3          6           0       -1.630645   -0.320564   -0.130493
      4          6           0       -0.220619   -0.602805    0.157808
      5          8           0        0.144158   -1.163136    1.150104
      6          8           0        0.560173   -0.184001   -0.835481
      7          6           0        1.979444   -0.334203   -0.624860
      8          6           0        2.503339    0.760275    0.283424
      9          1           0        2.404373   -0.270220   -1.624961
     10          1           0        2.169291   -1.325319   -0.211448
     11          1           0        3.586014    0.664663    0.386236
     12          1           0        2.278495    1.742225   -0.135156
     13          1           0        2.053641    0.685329    1.273721
     14          8           0       -1.460813    1.667836    0.397978
     15          1           0       -1.557038    2.018274   -0.501896
 ---------------------------------------------------------------------

 SCF Done:  E(UM062X) =  -419.954613987     A.U. after   23 cycles

 The electronic state is 2-A.
 Alpha  occ. eigenvalues --  -19.70707 -19.68761 -19.66313 -10.73037 -10.61621
 Alpha  occ. eigenvalues --  -10.60548 -10.59861 -10.54462  -1.28107  -1.18780
 Alpha  occ. eigenvalues --   -1.13427  -0.91753  -0.88241  -0.78725  -0.71334
 Alpha  occ. eigenvalues --   -0.64802  -0.62421  -0.58844  -0.57115  -0.54294
 Alpha  occ. eigenvalues --   -0.53729  -0.50228  -0.48805  -0.46544  -0.45290
 Alpha  occ. eigenvalues --   -0.42077  -0.41791  -0.39167  -0.38317  -0.37091
 Alpha  occ. eigenvalues --   -0.34586
 Alpha virt. eigenvalues --   -0.00906   0.01840   0.02330   0.03485   0.03631
 Alpha virt. eigenvalues --    0.03768   0.05154   0.06368   0.07494   0.07992
 Alpha virt. eigenvalues --    0.08491   0.09015   0.09609   0.11921   0.12558

  Beta  occ. eigenvalues --  -19.70712 -19.67238 -19.66334 -10.73011 -10.61621
  Beta  occ. eigenvalues --  -10.60591 -10.59647 -10.54463  -1.28114  -1.18813
  Beta  occ. eigenvalues --   -1.07340  -0.91292  -0.87886  -0.78563  -0.71153
  Beta  occ. eigenvalues --   -0.64729  -0.61935  -0.58707  -0.56936  -0.53966
  Beta  occ. eigenvalues --   -0.51408  -0.49289  -0.46900  -0.45323  -0.42055
  Beta  occ. eigenvalues --   -0.40744  -0.38780  -0.38308  -0.37128  -0.36712
  Beta virt. eigenvalues --   -0.09420   0.00019   0.01860   0.02411   0.03534
  Beta virt. eigenvalues --    0.03682   0.04039   0.05098   0.06439   0.07579
  Beta virt. eigenvalues --    0.07924   0.08591   0.09031   0.09701   0.12126

 Mulliken charges and spin densities:
               1          2
     1  C    0.084198   0.309305
     2  H    0.322375  -0.012272
     3  C   -0.284990  -0.117949
     4  C    0.114243   0.038861
     5  O   -0.328221  -0.008630
     6  O   -0.206924  -0.003655
     7  C   -0.248066  -0.000851
     8  C   -0.556293   0.001114
     9  H    0.219151  -0.000008
    10  H    0.235281  -0.000147
    11  H    0.206774  -0.000029
    12  H    0.219345  -0.000046
    13  H    0.242863  -0.000033
    14  O   -0.430964   0.824796
    15  H    0.411229  -0.030454
 Sum of Mulliken charges =  -0.00000   1.00000

 Dipole moment (field-independent basis, Debye):
    X=              0.1173    Y=              0.5641    Z=             -3.2643  Tot=              3.3147
 Quadrupole moment (field-independent basis, Debye-Ang):
   XX=            -32.9192   YY=            -48.4318   ZZ=            -52.4440
   XY=              1.2096   XZ=              3.5479   YZ=             -0.4221

  Exact polarizability:  86.750   6.693  68.445   5.249   0.429  56.094
 Approx polarizability:  91.587   6.370  68.766   9.828  -4.709  69.516

 ******    4 imaginary frequencies (negative Signs) ******

                      1                      2                      3
                      A                      A                      A
 Frequencies --   -502.4218              -368.1703              -122.2477
 Red. masses --      1.0800                 9.0272                 6.0919
 Frc consts  --      0.1606                 0.7209                 0.0536
 IR Inten    --    118.7470                24.4055                 3.4578

                      4                      5                      6
                      A                      A                      A
 Frequencies --    -38.4698                40.1204                86.7753
 Red. masses --      3.8944                 2.7643                 3.6077
 Frc consts  --      0.0034                 0.0026                 0.0160
 IR Inten    --      3.7336                 1.0742                 5.7040

                      7                      8                      9
                      A                      A                      A
 Frequencies --    140.4140               178.4143               204.0543
 Red. masses --      4.9156                 1.3813                 4.1413
 Frc consts  --      0.0571                 0.0259                 0.1016
 IR Inten    --      1.0106                 2.1971                 0.8248

                     10                     11                     12
                      A                      A                      A
 Frequencies --    311.0067               417.3564               463.7904
 Red. masses --      2.9037                 3.6029                 1.1889
 Frc consts  --      0.1655                 0.3698                 0.1507
 IR Inten    --     14.3912                 1.4394               101.3739

                     13                     14                     15
                      A                      A                      A
 Frequencies --    568.3996               628.6921               699.0479
 Red. masses --      4.0430                 4.7502                 1.6047
 Frc consts  --      0.7696                 1.1062                 0.4620
 IR Inten    --      4.9386                31.8358                 6.9587

                     16                     17                     18
                      A                      A                      A
 Frequencies --    728.5494               761.8158               817.5485
 Red. masses --      3.3855                 1.4212                 1.2791
 Frc consts  --      1.0588                 0.4860                 0.5037
 IR Inten    --     84.6820                51.5334                 6.6447

                     19                     20                     21
                      A                      A                      A
 Frequencies --    898.5797               943.4037              1110.1533
 Red. masses --      3.3806                 2.5030                 4.1849
 Frc consts  --      1.6083                 1.3125                 3.0388
 IR Inten    --     19.4030                 5.5969                 9.7740

                     22                     23                     24
                      A                      A                      A
 Frequencies --   1158.2615              1227.9530              1320.7867
 Red. masses --      2.0897                 1.7589                 2.3559
 Frc consts  --      1.6517                 1.5627                 2.4214
 IR Inten    --     16.9380                 6.5099               375.1019

                     25                     26                     27
                      A                      A                      A
 Frequencies --   1367.1492              1441.5460              1458.1129
 Red. masses --      1.5739                 1.3552                 1.2559
 Frc consts  --      1.7333                 1.6593                 1.5733
 IR Inten    --    218.5453                26.4384                19.8022

                     28                     29                     30
                      A                      A                      A
 Frequencies --   1526.8173              1536.9952              1544.6126
 Red. masses --      1.0414                 1.0548                 1.0879
 Frc consts  --      1.4304                 1.4682                 1.5292
 IR Inten    --     14.5390                 3.0250                26.9369

                     31                     32                     33
                      A                      A                      A
 Frequencies --   1920.7069              2241.1885              3107.5582
 Red. masses --     12.2864                 5.9099                 1.0352
 Frc consts  --     26.7052                17.4898                 5.8899
 IR Inten    --    317.2870                83.2612                12.3138

                     34                     35                     36
                      A                      A                      A
 Frequencies --   3137.8438              3186.6599              3191.1164
 Red. masses --      1.0601                 1.1008                 1.1024
 Frc consts  --      6.1496                 6.5859                 6.6143
 IR Inten    --     21.0323                13.2483                 7.8234

                     37                     38                     39
                      A                      A                      A
 Frequencies --   3211.5326              3523.5638              3822.7121
 Red. masses --      1.1050                 1.1644                 1.0672
 Frc consts  --      6.7147                 8.5175                 9.1882
 IR Inten    --     16.6600                62.1810                17.6469

 - Thermochemistry -
 -------------------
 Temperature   298.150 Kelvin.  Pressure   1.00000 Atm.
 Atom     1 has atomic number  6 and mass  12.00000

 Molecular mass:   115.03952 amu.
 Principal axes and moments of inertia in atomic units:
                           1         2         3
     Eigenvalues --   503.127871380.409531540.70268
           X            0.99989   0.01231   0.00828
           Y           -0.01247   0.99973   0.01936
           Z           -0.00804  -0.01946   0.99978
 This molecule is an asymmetric top.
 Rotational symmetry number  1.
 Warning -- assumption of classical behavior for rotation
           may cause significant error
 Rotational temperatures (Kelvin)      0.17215     0.06275     0.05622
 Rotational constants (GHZ):           3.58704     1.30740     1.17138
    4 imaginary frequencies ignored.
 Zero-point vibrational energy     292625.9 (Joules/Mol)
                                   69.93928 (Kcal/Mol)
 Warning -- explicit consideration of   9 degrees of freedom as
           vibrations may cause significant error
 Vibrational temperatures:     57.72   124.85   202.02   256.70   293.59
          (Kelvin)            447.47   600.48   667.29   817.80   904.55
                             1005.77  1048.22  1096.08  1176.27  1292.86
                             1357.35  1597.26  1666.48  1766.75  1900.32
                             1967.02  2074.06  2097.90  2196.75  2211.39
                             2222.35  2763.47  3224.57  4471.08  4514.66
                             4584.89  4591.30  4620.68  5069.62  5500.03

 Zero-point correction=                           0.111455 (Hartree/Particle)
 Thermal correction to Energy=                    0.119570
 Thermal correction to Enthalpy=                  0.120515
 Thermal correction to Gibbs Free Energy=         0.076970
 Sum of electronic and zero-point Energies=           -419.843159
 Sum of electronic and thermal Energies=              -419.835044
 Sum of electronic and thermal Enthalpies=            -419.834099
 Sum of electronic and thermal Free Energies=         -419.877644

                     E (Thermal)             CV                S
                      KCal/Mol        Cal/Mol-Kelvin    Cal/Mol-Kelvin
 Total                   75.032             27.240             91.648
 Electronic               0.000              0.000              1.377
 Translational            0.889              2.981             40.136
 Rotational               0.889              2.981             28.461
 Vibrational             73.254             21.279             21.674
 Vibration     1          0.594              1.981              5.253
 Vibration     2          0.601              1.958              3.731
 Vibration     3          0.615              1.913              2.798
 Vibration     4          0.629              1.869              2.345
 Vibration     5          0.640              1.834              2.096
 Vibration     6          0.700              1.653              1.357
 Vibration     7          0.780              1.433              0.901
 Vibration     8          0.821              1.330              0.755
 Vibration     9          0.924              1.100              0.507

 Normal termination of Gaussian 16 at Fri Jun 20 13:45:50 2025.
