 Gaussian 16, Revision A.03,
 Gaussian 16:  ES64L-G16RevA.03 25-Dec-2016

 --------------------------
 # ccsd(t)/6-311++g(d,p) sp
 --------------------------

 -------------------
 Title Card Required
 -------------------
 Symbolic Z-matrix:
 Charge =  0 Multiplicity = 2

                         Standard orientation:
 ---------------------------------------------------------------------
 Center     Atomic      Atomic             Coordinates (Angstroms)
 Number     Number       Type             X           Y           Z
 ---------------------------------------------------------------------
      1          6           0       -2.816429   -0.445598   -0.384426
      2          1           0       -3.864018   -0.426592   -0.575825
      3          6           0       -1.637657   -0.454718   -0.152649
      4          6           0       -0.223258   -0.627097    0.168978
      5          8           0        0.156253   -1.124343    1.189949
      6          8           0        0.554849   -0.209047   -0.829242
      7          6           0        1.975250   -0.350311   -0.618005
      8          6           0        2.505535    0.767534    0.256795
      9          1           0        2.397040   -0.315730   -1.621002
     10          1           0        2.165812   -1.329272   -0.176676
     11          1           0        3.588468    0.671847    0.357319
     12          1           0        2.282307    1.738123   -0.188480
     13          1           0        2.059668    0.721467    1.250404
     14          8           0       -1.450308    1.781085    0.375836
     15          1           0       -1.536275    2.019739   -0.562253
 ---------------------------------------------------------------------

 SCF Done:  E(UHF) =  -417.990691437     A.U. after   38 cycles
 E2 =    -0.1261358740D+01 EUMP2 =    -0.41925205017724D+03
 CCSD(T)= -0.41935693495D+03

 The electronic state is 2-A.
 Alpha  occ. eigenvalues --  -20.63011 -20.61357 -20.55790 -11.41546 -11.29746
 Alpha  occ. eigenvalues --  -11.26792 -11.25807 -11.22468  -1.48175  -1.38584
 Alpha  occ. eigenvalues --   -1.37919  -1.07806  -1.04194  -0.92610  -0.83825
 Alpha  occ. eigenvalues --   -0.76484  -0.73063  -0.69516  -0.68025  -0.67102
 Alpha  occ. eigenvalues --   -0.65036  -0.63215  -0.58328  -0.55921  -0.54063
 Alpha  occ. eigenvalues --   -0.53995  -0.50537  -0.47869  -0.46326  -0.42808
 Alpha  occ. eigenvalues --   -0.42145
 Alpha virt. eigenvalues --    0.03655   0.04409   0.05638   0.06297   0.07295
 Alpha virt. eigenvalues --    0.08920   0.09371   0.09804   0.11007   0.11673
 Alpha virt. eigenvalues --    0.13584   0.13727   0.14419   0.16166   0.16460

  Beta  occ. eigenvalues --  -20.61361 -20.58913 -20.56075 -11.41340 -11.29747
  Beta  occ. eigenvalues --  -11.26750 -11.25652 -11.22469  -1.48293  -1.38370
  Beta  occ. eigenvalues --   -1.23237  -1.07838  -1.03764  -0.92131  -0.83647
  Beta  occ. eigenvalues --   -0.76417  -0.72529  -0.69689  -0.66703  -0.63534
  Beta  occ. eigenvalues --   -0.63085  -0.58546  -0.55327  -0.54112  -0.50697
  Beta  occ. eigenvalues --   -0.50505  -0.48233  -0.47064  -0.42864  -0.42425
  Beta virt. eigenvalues --    0.03681   0.04362   0.05081   0.06294   0.07101
  Beta virt. eigenvalues --    0.08571   0.09339   0.09514   0.10554   0.10873
  Beta virt. eigenvalues --    0.12459   0.13757   0.13893   0.14944   0.16328

 Mulliken charges and spin densities:
               1          2
     1  C   -0.519589   0.530533
     2  H    0.225130  -0.037425
     3  C    1.004491  -0.452983
     4  C   -0.695007   0.067064
     5  O   -0.264449  -0.058638
     6  O   -0.083125  -0.001182
     7  C   -0.141379   0.000827
     8  C   -0.386130   0.000529
     9  H    0.164528  -0.000147
    10  H    0.178372  -0.000252
    11  H    0.137275   0.000054
    12  H    0.136094  -0.000158
    13  H    0.187873  -0.000212
    14  O   -0.160404   0.993001
    15  H    0.216320  -0.041012
 Sum of Mulliken charges =  -0.00000   1.00000

 Dipole moment (field-independent basis, Debye):
    X=              0.0841    Y=              1.2288    Z=             -3.1949  Tot=              3.4241
 Quadrupole moment (field-independent basis, Debye-Ang):
   XX=            -33.5960   YY=            -47.6325   ZZ=            -51.7749
   XY=             -0.1306   XZ=              2.8582   YZ=             -0.3411

 419.3040255\CCSD=-419.3043701\CCSD(T)=-419.3569349\S2=0.828144\S2-1=0.
 Normal termination of Gaussian 16 at Wed Aug 20 16:27:27 2025.
