 Gaussian 16, Revision A.03,
 Gaussian 16:  ES64L-G16RevA.03 25-Dec-2016

 --------------------------
 # ccsd(t)/6-311++g(d,p) sp
 --------------------------

 -------------------
 Title Card Required
 -------------------
 Symbolic Z-matrix:
 Charge =  0 Multiplicity = 2

                         Standard orientation:
 ---------------------------------------------------------------------
 Center     Atomic      Atomic             Coordinates (Angstroms)
 Number     Number       Type             X           Y           Z
 ---------------------------------------------------------------------
      1          6           0       -2.793303   -0.444651   -0.420689
      2          1           0       -3.837192   -0.473312   -0.638091
      3          6           0       -1.622633   -0.131376   -0.089512
      4          6           0       -0.221187   -0.598731    0.137554
      5          8           0        0.136408   -1.208518    1.101940
      6          8           0        0.561893   -0.155538   -0.842041
      7          6           0        1.981676   -0.310883   -0.634347
      8          6           0        2.501346    0.750900    0.314790
      9          1           0        2.408265   -0.209164   -1.630505
     10          1           0        2.172609   -1.316220   -0.257614
     11          1           0        3.583878    0.652182    0.416226
     12          1           0        2.275746    1.747201   -0.067597
     13          1           0        2.049858    0.639855    1.300927
     14          8           0       -1.470640    1.535999    0.422096
     15          1           0       -1.549838    1.992359   -0.426082
 ---------------------------------------------------------------------

 SCF Done:  E(UHF) =  -417.980742787     A.U. after   29 cycles
 E2 =    -0.1263534699D+01 EUMP2 =    -0.41924427748598D+03
 CCSD(T)= -0.41936430839D+03

 The electronic state is 2-A.
 Alpha  occ. eigenvalues --  -20.61277 -20.60102 -20.55944 -11.41250 -11.29849
 Alpha  occ. eigenvalues --  -11.29716 -11.28347 -11.22425  -1.48253  -1.37999
 Alpha  occ. eigenvalues --   -1.35786  -1.08707  -1.04577  -0.92806  -0.83992
 Alpha  occ. eigenvalues --   -0.76764  -0.73258  -0.69624  -0.68460  -0.65511
 Alpha  occ. eigenvalues --   -0.62780  -0.61310  -0.57853  -0.54803  -0.54010
 Alpha  occ. eigenvalues --   -0.52530  -0.50434  -0.47582  -0.46175  -0.44079
 Alpha  occ. eigenvalues --   -0.41919
 Alpha virt. eigenvalues --    0.03683   0.04411   0.05700   0.06282   0.07333
 Alpha virt. eigenvalues --    0.08800   0.09631   0.10684   0.11148   0.12195
 Alpha virt. eigenvalues --    0.13343   0.13630   0.14201   0.15952   0.16569

  Beta  occ. eigenvalues --  -20.61282 -20.57553 -20.56255 -11.40897 -11.32089
  Beta  occ. eigenvalues --  -11.29718 -11.25313 -11.22427  -1.48370  -1.38500
  Beta  occ. eigenvalues --   -1.27930  -1.07412  -1.03307  -0.91329  -0.82650
  Beta  occ. eigenvalues --   -0.76391  -0.71692  -0.69850  -0.67793  -0.64239
  Beta  occ. eigenvalues --   -0.62531  -0.58073  -0.55646  -0.54103  -0.51505
  Beta  occ. eigenvalues --   -0.50413  -0.48692  -0.46999  -0.46139  -0.42767
  Beta virt. eigenvalues --    0.03757   0.04234   0.04489   0.06248   0.06707
  Beta virt. eigenvalues --    0.07638   0.09105   0.09607   0.10407   0.11946
  Beta virt. eigenvalues --    0.12694   0.13598   0.13918   0.15834   0.16244

 Mulliken charges and spin densities:
               1          2
     1  C    0.065698   1.607112
     2  H    0.243584  -0.105095
     3  C    0.034007  -1.162365
     4  C   -0.232443   0.167212
     5  O   -0.272517  -0.062851
     6  O   -0.081784   0.003150
     7  C   -0.173619   0.001754
     8  C   -0.391010   0.001054
     9  H    0.161042   0.000004
    10  H    0.177421   0.000007
    11  H    0.136556  -0.000127
    12  H    0.141705  -0.000038
    13  H    0.185380  -0.000941
    14  O   -0.236815   0.568393
    15  H    0.242794  -0.017270
 Sum of Mulliken charges =  -0.00000   1.00000

 Dipole moment (field-independent basis, Debye):
    X=             -0.0918    Y=              0.6437    Z=             -3.2814  Tot=              3.3452
 Quadrupole moment (field-independent basis, Debye-Ang):
   XX=            -33.3533   YY=            -48.5577   ZZ=            -51.5926
   XY=              1.1802   XZ=              3.3120   YZ=             -0.0564

 SDQ=-419.3017632\CCSD=-419.3092409\CCSD(T)=-419.3643084\S2=1.070963\S2
 Normal termination of Gaussian 16 at Tue Aug 19 20:02:35 2025.
