 Gaussian 16, Revision A.03,
 Gaussian 16:  ES64L-G16RevA.03 25-Dec-2016

 --------------------------
 # freq 6-311++g(d,p) m062x
 --------------------------

 -------------------
 Title Card Required
 -------------------
 Symbolic Z-matrix:
 Charge =  0 Multiplicity = 2

                         Standard orientation:
 ---------------------------------------------------------------------
 Center     Atomic      Atomic             Coordinates (Angstroms)
 Number     Number       Type             X           Y           Z
 ---------------------------------------------------------------------
      1          6           0       -2.816429   -0.445598   -0.384426
      2          1           0       -3.864018   -0.426592   -0.575825
      3          6           0       -1.637657   -0.454718   -0.152649
      4          6           0       -0.223258   -0.627097    0.168978
      5          8           0        0.156253   -1.124343    1.189949
      6          8           0        0.554849   -0.209047   -0.829242
      7          6           0        1.975250   -0.350311   -0.618005
      8          6           0        2.505535    0.767534    0.256795
      9          1           0        2.397040   -0.315730   -1.621002
     10          1           0        2.165812   -1.329272   -0.176676
     11          1           0        3.588468    0.671847    0.357319
     12          1           0        2.282307    1.738123   -0.188480
     13          1           0        2.059668    0.721467    1.250404
     14          8           0       -1.450308    1.781085    0.375836
     15          1           0       -1.536275    2.019739   -0.562253
 ---------------------------------------------------------------------

 SCF Done:  E(UM062X) =  -420.207404772     A.U. after   23 cycles

 The electronic state is 2-A.
 Alpha  occ. eigenvalues --  -19.68261 -19.67555 -19.63068 -10.70615 -10.60565
 Alpha  occ. eigenvalues --  -10.57750 -10.57474 -10.53604  -1.25620  -1.16367
 Alpha  occ. eigenvalues --   -1.13278  -0.90636  -0.87244  -0.78066  -0.70622
 Alpha  occ. eigenvalues --   -0.64502  -0.61621  -0.58483  -0.56677  -0.55206
 Alpha  occ. eigenvalues --   -0.53482  -0.50428  -0.48926  -0.46370  -0.45226
 Alpha  occ. eigenvalues --   -0.42669  -0.41985  -0.39356  -0.38507  -0.36509
 Alpha  occ. eigenvalues --   -0.36005
 Alpha virt. eigenvalues --   -0.01189  -0.00492   0.00504   0.01353   0.02180
 Alpha virt. eigenvalues --    0.02859   0.03693   0.04623   0.05475   0.06163
 Alpha virt. eigenvalues --    0.07289   0.07931   0.07989   0.10285   0.10579

  Beta  occ. eigenvalues --  -19.68266 -19.65976 -19.63080 -10.70605 -10.60565
  Beta  occ. eigenvalues --  -10.57704 -10.57418 -10.53605  -1.25627  -1.16393
  Beta  occ. eigenvalues --   -1.05708  -0.90399  -0.87013  -0.77970  -0.70534
  Beta  occ. eigenvalues --   -0.64471  -0.61398  -0.58439  -0.56449  -0.53519
  Beta  occ. eigenvalues --   -0.52192  -0.49277  -0.46660  -0.45255  -0.42001
  Beta  occ. eigenvalues --   -0.40179  -0.38879  -0.38169  -0.37859  -0.36318
  Beta virt. eigenvalues --   -0.08769  -0.00730  -0.00335   0.00559   0.01666
  Beta virt. eigenvalues --    0.02226   0.02943   0.03693   0.04750   0.05574
  Beta virt. eigenvalues --    0.06212   0.07345   0.07975   0.07998   0.10436

 Mulliken charges and spin densities:
               1          2
     1  C   -0.427351   0.140217
     2  H    0.203027  -0.007227
     3  C    0.814571  -0.030548
     4  C   -0.638018  -0.001058
     5  O   -0.188805  -0.004655
     6  O   -0.005036  -0.002317
     7  C   -0.258112  -0.001077
     8  C   -0.419447   0.000052
     9  H    0.192978  -0.000002
    10  H    0.193393  -0.000093
    11  H    0.166758   0.000017
    12  H    0.157650   0.000019
    13  H    0.195965  -0.001142
    14  O   -0.208526   0.930289
    15  H    0.220952  -0.022476
 Sum of Mulliken charges =  -0.00000   1.00000

 Dipole moment (field-independent basis, Debye):
    X=              0.1775    Y=              0.7891    Z=             -3.0609  Tot=              3.1659
 Quadrupole moment (field-independent basis, Debye-Ang):
   XX=            -33.5269   YY=            -48.0077   ZZ=            -51.2925
   XY=              0.6104   XZ=              2.9367   YZ=             -0.5738

  Exact polarizability:  91.405   3.745  63.316   4.669  -1.098  58.304
 Approx polarizability:  98.829   1.291  69.342   8.348  -5.186  75.044

 ******    1 imaginary frequencies (negative Signs) ******

                      1                      2                      3
                      A                      A                      A
 Frequencies --    -19.5320                42.3814               106.7333
 Red. masses --      4.6392                 4.9701                 3.8385
 Frc consts  --      0.0010                 0.0053                 0.0258
 IR Inten    --      2.4695                 2.0388                 5.5705

                      4                      5                      6
                      A                      A                      A
 Frequencies --    125.6877               157.6476               194.5626
 Red. masses --      3.5682                 2.4014                 1.6272
 Frc consts  --      0.0332                 0.0352                 0.0363
 IR Inten    --      7.4203                15.8590                37.6710

                      7                      8                      9
                      A                      A                      A
 Frequencies --    210.3814               233.4354               284.0761
 Red. masses --      2.8025                 1.4985                 3.8030
 Frc consts  --      0.0731                 0.0481                 0.1808
 IR Inten    --      8.7176                17.2327                 9.2985

                     10                     11                     12
                      A                      A                      A
 Frequencies --    343.0310               423.8684               521.0692
 Red. masses --      3.0140                 3.9645                 1.1270
 Frc consts  --      0.2090                 0.4197                 0.1803
 IR Inten    --     14.0256                 0.8846                97.5735

                     13                     14                     15
                      A                      A                      A
 Frequencies --    562.6592               614.4652               734.0787
 Red. masses --      3.6428                 6.0768                 1.3147
 Frc consts  --      0.6795                 1.3518                 0.4174
 IR Inten    --      8.8084                15.8988                37.9817

                     16                     17                     18
                      A                      A                      A
 Frequencies --    751.1606               779.4603               803.0541
 Red. masses --      1.3350                 7.4244                 1.2224
 Frc consts  --      0.4438                 2.6577                 0.4645
 IR Inten    --     23.5070                46.6717                 5.3114

                     19                     20                     21
                      A                      A                      A
 Frequencies --    896.5128               927.1847              1077.7519
 Red. masses --      3.2042                 2.7658                 4.1086
 Frc consts  --      1.5173                 1.4009                 2.8118
 IR Inten    --     14.3219                 4.8162                22.3316

                     22                     23                     24
                      A                      A                      A
 Frequencies --   1129.0772              1203.7390              1283.7759
 Red. masses --      2.0936                 1.7766                 4.3657
 Frc consts  --      1.5725                 1.5167                 4.2392
 IR Inten    --     21.7030                 5.5672               587.9214

                     25                     26                     27
                      A                      A                      A
 Frequencies --   1347.2999              1402.0147              1432.3703
 Red. masses --      1.2040                 1.2710                 1.3748
 Frc consts  --      1.2877                 1.4720                 1.6619
 IR Inten    --     74.8891                24.1099                10.1014

                     28                     29                     30
                      A                      A                      A
 Frequencies --   1491.3638              1502.4646              1514.3720
 Red. masses --      1.0410                 1.0584                 1.0874
 Frc consts  --      1.3642                 1.4078                 1.4693
 IR Inten    --     10.3877                 1.6746                19.4176

                     31                     32                     33
                      A                      A                      A
 Frequencies --   1850.9200              2246.1917              3075.7133
 Red. masses --     12.0847                 5.8349                 1.0355
 Frc consts  --     24.3927                17.3450                 5.7718
 IR Inten    --    330.7385                63.2328                10.4883

                     34                     35                     36
                      A                      A                      A
 Frequencies --   3106.2323              3149.9082              3155.4530
 Red. masses --      1.0605                 1.1019                 1.1048
 Frc consts  --      6.0288                 6.4416                 6.4815
 IR Inten    --     19.6407                14.4774                 3.8469

                     37                     38                     39
                      A                      A                      A
 Frequencies --   3174.7829              3488.2976              3792.1736
 Red. masses --      1.1068                 1.1674                 1.0672
 Frc consts  --      6.5730                 8.3692                 9.0421
 IR Inten    --     14.4060                67.1584                31.8656

 - Thermochemistry -
 -------------------
 Temperature   298.150 Kelvin.  Pressure   1.00000 Atm.
 Atom     1 has atomic number  6 and mass  12.00000

 Molecular mass:   115.03952 amu.
 Principal axes and moments of inertia in atomic units:
                           1         2         3
     Eigenvalues --   530.593011385.048281567.77694
           X            0.99990   0.01211   0.00748
           Y           -0.01220   0.99985   0.01261
           Z           -0.00732  -0.01270   0.99989
 This molecule is an asymmetric top.
 Rotational symmetry number  1.
 Warning -- assumption of classical behavior for rotation
           may cause significant error
 Rotational temperatures (Kelvin)      0.16324     0.06253     0.05525
 Rotational constants (GHZ):           3.40137     1.30302     1.15115
    1 imaginary frequencies ignored.
 Zero-point vibrational energy     293894.7 (Joules/Mol)
                                   70.24251 (Kcal/Mol)
 Warning -- explicit consideration of  13 degrees of freedom as
           vibrations may cause significant error
 Vibrational temperatures:     60.98   153.57   180.84   226.82   279.93
          (Kelvin)            302.69   335.86   408.72   493.55   609.85
                              749.70   809.54   884.08  1056.18  1080.75
                             1121.47  1155.42  1289.88  1334.01  1550.64
                             1624.49  1731.91  1847.07  1938.46  2017.19
                             2060.86  2145.74  2161.71  2178.84  2663.06
                             3231.77  4425.27  4469.18  4532.02  4539.99
                             4567.80  5018.88  5456.09

 Zero-point correction=                           0.111939 (Hartree/Particle)
 Thermal correction to Energy=                    0.121500
 Thermal correction to Enthalpy=                  0.122444
 Thermal correction to Gibbs Free Energy=         0.076439
 Sum of electronic and zero-point Energies=           -420.095466
 Sum of electronic and thermal Energies=              -420.085905
 Sum of electronic and thermal Enthalpies=            -420.084961
 Sum of electronic and thermal Free Energies=         -420.130966

                     E (Thermal)             CV                S
                      KCal/Mol        Cal/Mol-Kelvin    Cal/Mol-Kelvin
 Total                   76.242             32.486             96.825
 Electronic               0.000              0.000              1.377
 Translational            0.889              2.981             40.136
 Rotational               0.889              2.981             28.534
 Vibrational             74.465             26.524             26.778
 Vibration     1          0.595              1.980              5.145
 Vibration     2          0.606              1.944              3.327
 Vibration     3          0.611              1.927              3.011
 Vibration     4          0.621              1.894              2.578
 Vibration     5          0.635              1.847              2.184
 Vibration     6          0.643              1.825              2.040
 Vibration     7          0.654              1.790              1.852
 Vibration     8          0.682              1.703              1.509
 Vibration     9          0.722              1.589              1.198
 Vibration    10          0.786              1.418              0.879
 Vibration    11          0.876              1.203              0.607
 Vibration    12          0.918              1.112              0.519
 Vibration    13          0.974              1.001              0.425

 1\1\GINC-AJ\Freq\UM062X\6-311++G(d,p)\C5H7O3(2)\AAYUSH\23-Jun-2025\0\\
 # freq 6-311++g(d,p) m062x\\Title Card Required\\0,2\C,-2.816429,-0.44
 5598,-0.384426\H,-3.864018,-0.426592,-0.575825\C,-1.637657,-0.454718,-
 0.152649\C,-0.223258,-0.627097,0.168978\O,0.156253,-1.124343,1.189949\
 O,0.554849,-0.209047,-0.829242\C,1.97525,-0.350311,-0.618005\C,2.50553
 5,0.767534,0.256795\H,2.39704,-0.31573,-1.621002\H,2.165812,-1.329272,
 -0.176676\H,3.588468,0.671847,0.357319\H,2.282307,1.738123,-0.18848\H,
 2.059668,0.721467,1.250404\O,-1.450308,1.781085,0.375836\H,-1.536275,2

 Normal termination of Gaussian 16 at Mon Jun 23 04:32:18 2025.
