 Gaussian 16, Revision A.03,
 Gaussian 16:  ES64L-G16RevA.03 25-Dec-2016

 --------------------------
 # freq 6-311++g(d,p) m062x
 --------------------------

 -------------------
 Title Card Required
 -------------------
 Symbolic Z-matrix:
 Charge =  0 Multiplicity = 2

                         Standard orientation:
 ---------------------------------------------------------------------
 Center     Atomic      Atomic             Coordinates (Angstroms)
 Number     Number       Type             X           Y           Z
 ---------------------------------------------------------------------
      1          6           0       -2.796418   -0.441101   -0.415331
      2          1           0       -3.838907   -0.483479   -0.634190
      3          6           0       -1.624298   -0.173290   -0.099615
      4          6           0       -0.220132   -0.598735    0.142445
      5          8           0        0.137707   -1.198429    1.112949
      6          8           0        0.561457   -0.162115   -0.840678
      7          6           0        1.981242   -0.316381   -0.632281
      8          6           0        2.501823    0.752954    0.307671
      9          1           0        2.407268   -0.223213   -1.629516
     10          1           0        2.171808   -1.318672   -0.247276
     11          1           0        3.584374    0.654740    0.409403
     12          1           0        2.276341    1.746080   -0.082930
     13          1           0        2.050681    0.650226    1.294849
     14          8           0       -1.468304    1.564986    0.417239
     15          1           0       -1.551747    1.998099   -0.443755
 ---------------------------------------------------------------------

 SCF Done:  E(UM062X) =  -420.208124313     A.U. after   20 cycles

 The electronic state is 2-A.
 Alpha  occ. eigenvalues --  -19.68399 -19.64220 -19.63471 -10.70701 -10.62277
 Alpha  occ. eigenvalues --  -10.60648 -10.59666 -10.53618  -1.25922  -1.16696
 Alpha  occ. eigenvalues --   -1.10710  -0.91542  -0.87870  -0.78393  -0.71036
 Alpha  occ. eigenvalues --   -0.64868  -0.62460  -0.59016  -0.57358  -0.54042
 Alpha  occ. eigenvalues --   -0.53176  -0.49399  -0.48374  -0.46193  -0.45321
 Alpha  occ. eigenvalues --   -0.42072  -0.41369  -0.38703  -0.37936  -0.37383
 Alpha  occ. eigenvalues --   -0.31888
 Alpha virt. eigenvalues --   -0.00513  -0.00150   0.00423   0.01478   0.02252
 Alpha virt. eigenvalues --    0.02477   0.03127   0.04381   0.05517   0.05991
 Alpha virt. eigenvalues --    0.07061   0.07831   0.07956   0.10202   0.10307

  Beta  occ. eigenvalues --  -19.68400 -19.63487 -19.63330 -10.70654 -10.62427
  Beta  occ. eigenvalues --  -10.60647 -10.59170 -10.53618  -1.25908  -1.16722
  Beta  occ. eigenvalues --   -1.07542  -0.90434  -0.86995  -0.77864  -0.70396
  Beta  occ. eigenvalues --   -0.64660  -0.61679  -0.58909  -0.57063  -0.53492
  Beta  occ. eigenvalues --   -0.52015  -0.48985  -0.46760  -0.45303  -0.42626
  Beta  occ. eigenvalues --   -0.41982  -0.39565  -0.38636  -0.36625  -0.36228
  Beta virt. eigenvalues --   -0.09460  -0.00448   0.00427   0.00939   0.01735
  Beta virt. eigenvalues --    0.02371   0.02825   0.03144   0.04552   0.05551
  Beta virt. eigenvalues --    0.05911   0.07131   0.07638   0.07977   0.10326

 Mulliken charges and spin densities:
               1          2
     1  C    0.050447   0.873512
     2  H    0.224930  -0.026903
     3  C    0.090635  -0.344508
     4  C   -0.332657   0.054196
     5  O   -0.192138  -0.007412
     6  O    0.002443  -0.000871
     7  C   -0.283701   0.001257
     8  C   -0.424300   0.002005
     9  H    0.191703   0.000291
    10  H    0.192903  -0.000112
    11  H    0.166127  -0.000051
    12  H    0.163813  -0.000389
    13  H    0.195772  -0.001253
    14  O   -0.276659   0.455315
    15  H    0.230684  -0.005075
 Sum of Mulliken charges =  -0.00000   1.00000

 Dipole moment (field-independent basis, Debye):
    X=              0.0347    Y=              0.0783    Z=             -3.1979  Tot=              3.1990
 Quadrupole moment (field-independent basis, Debye-Ang):
   XX=            -32.7733   YY=            -49.0925   ZZ=            -51.2224
   XY=              2.1098   XZ=              3.5462   YZ=             -0.4013

  Exact polarizability:  88.967   6.701  71.371   5.040   1.474  58.512
 Approx polarizability:  92.560   8.227  84.313   8.367  -0.841  75.609

 ******    1 imaginary frequencies (negative Signs) ******

                      1                      2                      3
                      A                      A                      A
 Frequencies --   -670.7229                56.5891                82.2806
 Red. masses --     11.7689                 1.8073                 3.4190
 Frc consts  --      3.1194                 0.0034                 0.0136
 IR Inten    --      1.7483                34.0367                 3.0752

                      4                      5                      6
                      A                      A                      A
 Frequencies --    102.6590               132.8936               187.8680
 Red. masses --      2.6316                 2.1344                 1.7954
 Frc consts  --      0.0163                 0.0222                 0.0373
 IR Inten    --     25.3134                21.1784                 4.9917

                      7                      8                      9
                      A                      A                      A
 Frequencies --    233.7091               239.6711               284.2142
 Red. masses --      2.2153                 4.5067                 2.1523
 Frc consts  --      0.0713                 0.1525                 0.1024
 IR Inten    --     11.7409                 1.9060                11.9643

                     10                     11                     12
                      A                      A                      A
 Frequencies --    341.3567               417.8781               442.2075
 Red. masses --      3.0968                 1.7401                 3.3950
 Frc consts  --      0.2126                 0.1790                 0.3912
 IR Inten    --     12.5351                23.7363                 9.6923

                     13                     14                     15
                      A                      A                      A
 Frequencies --    577.0298               606.2285               706.7092
 Red. masses --      4.4082                 5.3902                 1.3287
 Frc consts  --      0.8648                 1.1672                 0.3910
 IR Inten    --      2.4141                11.8948                40.3346

                     16                     17                     18
                      A                      A                      A
 Frequencies --    771.6956               799.7026               892.1513
 Red. masses --      9.7797                 1.2156                 3.1600
 Frc consts  --      3.4314                 0.4580                 1.4819
 IR Inten    --     28.5160                 5.2140                17.8433

                     19                     20                     21
                      A                      A                      A
 Frequencies --    918.0953               967.9039              1070.1104
 Red. masses --      2.5858                 1.1874                 4.0452
 Frc consts  --      1.2842                 0.6554                 2.7293
 IR Inten    --      1.8368                52.1701                24.6276

                     22                     23                     24
                      A                      A                      A
 Frequencies --   1127.7379              1202.3716              1272.8470
 Red. masses --      2.0910                 1.7816                 4.5612
 Frc consts  --      1.5668                 1.5175                 4.3540
 IR Inten    --     20.8274                 9.7330               545.8937

                     25                     26                     27
                      A                      A                      A
 Frequencies --   1343.8630              1401.3000              1430.0309
 Red. masses --      1.1985                 1.2682                 1.3603
 Frc consts  --      1.2753                 1.4672                 1.6390
 IR Inten    --     63.3303                16.8191                12.3724

                     28                     29                     30
                      A                      A                      A
 Frequencies --   1491.2015              1501.6687              1514.1870
 Red. masses --      1.0403                 1.0530                 1.0923
 Frc consts  --      1.3629                 1.3990                 1.4755
 IR Inten    --     10.6209                 1.2096                18.7431

                     31                     32                     33
                      A                      A                      A
 Frequencies --   1850.9424              1946.0483              3076.1707
 Red. masses --     11.2007                 7.3192                 1.0354
 Frc consts  --     22.6089                16.3312                 5.7729
 IR Inten    --    312.4156                51.1927                 8.9729

                     34                     35                     36
                      A                      A                      A
 Frequencies --   3108.1927              3152.0175              3155.3608
 Red. masses --      1.0609                 1.1017                 1.1047
 Frc consts  --      6.0387                 6.4487                 6.4801
 IR Inten    --     19.5373                14.1637                 2.8238

                     37                     38                     39
                      A                      A                      A
 Frequencies --   3175.7755              3454.9162              3841.3395
 Red. masses --      1.1072                 1.1307                 1.0676
 Frc consts  --      6.5790                 7.9517                 9.2818
 IR Inten    --     14.2726                81.2713                59.3395

 - Thermochemistry -
 -------------------
 Temperature   298.150 Kelvin.  Pressure   1.00000 Atm.
 Atom     1 has atomic number  6 and mass  12.00000

 Molecular mass:   115.03952 amu.
 Principal axes and moments of inertia in atomic units:
                           1         2         3
     Eigenvalues --   481.668901376.449141519.51273
           X            0.99988   0.01233   0.00886
           Y           -0.01256   0.99957   0.02637
           Z           -0.00853  -0.02648   0.99961
 This molecule is an asymmetric top.
 Rotational symmetry number  1.
 Warning -- assumption of classical behavior for rotation
           may cause significant error
 Rotational temperatures (Kelvin)      0.17982     0.06293     0.05700
 Rotational constants (GHZ):           3.74685     1.31116     1.18771
    1 imaginary frequencies ignored.
 Zero-point vibrational energy     292348.9 (Joules/Mol)
                                   69.87307 (Kcal/Mol)
 Warning -- explicit consideration of  13 degrees of freedom as
           vibrations may cause significant error
 Vibrational temperatures:     81.42   118.38   147.70   191.20   270.30
          (Kelvin)            336.26   344.83   408.92   491.14   601.23
                              636.24   830.22   872.23  1016.80  1110.30
                             1150.59  1283.61  1320.93  1392.60  1539.65
                             1622.56  1729.94  1831.34  1933.52  2016.16
                             2057.50  2145.51  2160.57  2178.58  2663.09
                             2799.93  4425.92  4472.00  4535.05  4539.86
                             4569.23  4970.85  5526.83

 Zero-point correction=                           0.111350 (Hartree/Particle)
 Thermal correction to Energy=                    0.121013
 Thermal correction to Enthalpy=                  0.121957
 Thermal correction to Gibbs Free Energy=         0.075723
 Sum of electronic and zero-point Energies=           -420.096774
 Sum of electronic and thermal Energies=              -420.087111
 Sum of electronic and thermal Enthalpies=            -420.086167
 Sum of electronic and thermal Free Energies=         -420.132401

                     E (Thermal)             CV                S
                      KCal/Mol        Cal/Mol-Kelvin    Cal/Mol-Kelvin
 Total                   75.937             32.479             97.308
 Electronic               0.000              0.000              1.377
 Translational            0.889              2.981             40.136
 Rotational               0.889              2.981             28.401
 Vibrational             74.159             26.517             27.394
 Vibration     1          0.596              1.975              4.573
 Vibration     2          0.600              1.961              3.836
 Vibration     3          0.605              1.947              3.403
 Vibration     4          0.613              1.920              2.904
 Vibration     5          0.633              1.857              2.249
 Vibration     6          0.654              1.789              1.850
 Vibration     7          0.657              1.780              1.805
 Vibration     8          0.683              1.703              1.508
 Vibration     9          0.721              1.593              1.206
 Vibration    10          0.781              1.431              0.899
 Vibration    11          0.802              1.378              0.820
 Vibration    12          0.933              1.081              0.491
 Vibration    13          0.965              1.019              0.439

 1\1\GINC-AJ\Freq\UM062X\6-311++G(d,p)\C5H7O3(2)\AAYUSH\16-Aug-2025\0\\
 # freq 6-311++g(d,p) m062x\\Title Card Required\\0,2\C,2.735683,-0.422
 82,0.416021\H,3.778365,-0.46934,0.633115\C,1.56323,-0.14898,0.106782\C
 ,0.15898,-0.569818,-0.142729\O,-0.199499,-1.149747,-1.124939\O,-0.6219
 14,-0.153516,0.849715\C,-2.041829,-0.303921,0.63939\C,-2.563479,0.7841
 65,-0.278184\H,-2.467055,-0.231184,1.638664\H,-2.232441,-1.298227,0.23
 4229\H,-3.646087,0.687728,-0.381003\H,-2.337945,1.769204,0.132356\H,-2
 .113126,0.701673,-1.267618\O,1.406334,1.599407,-0.374471\H,1.490372,2.

 Normal termination of Gaussian 16 at Sat Aug 16 20:27:24 2025.
