 Gaussian 16, Revision A.03,
 Gaussian 16:  ES64L-G16RevA.03 25-Dec-2016

 --------------------------
 # ccsd(t)/6-311++g(d,p) sp
 --------------------------

 -------------------
 Title Card Required
 -------------------
 Symbolic Z-matrix:
 Charge =  0 Multiplicity = 2

                         Standard orientation:
 ---------------------------------------------------------------------
 Center     Atomic      Atomic             Coordinates (Angstroms)
 Number     Number       Type             X           Y           Z
 ---------------------------------------------------------------------
      1          6           0       -2.811421   -0.440695   -0.390163
      2          1           0       -3.857341   -0.449892   -0.590970
      3          6           0       -1.634287   -0.399598   -0.144627
      4          6           0       -0.221919   -0.613828    0.164595
      5          8           0        0.150574   -1.141132    1.172684
      6          8           0        0.558031   -0.197267   -0.831948
      7          6           0        1.977556   -0.343789   -0.620863
      8          6           0        2.504727    0.764314    0.268373
      9          1           0        2.401092   -0.296905   -1.622579
     10          1           0        2.167119   -1.328079   -0.191190
     11          1           0        3.587531    0.669288    0.370521
     12          1           0        2.280562    1.739660   -0.165862
     13          1           0        2.056705    0.705803    1.260447
     14          8           0       -1.455050    1.730999    0.385758
     15          1           0       -1.552032    2.020906   -0.536206
 ---------------------------------------------------------------------

 SCF Done:  E(UHF) =  -417.986988419     A.U. after   45 cycles
 E2 =    -0.1260012444D+01 EUMP2 =    -0.41924700086384D+03
 CCSD(T)= -0.41935542455D+03

 The electronic state is 2-A.
 Alpha  occ. eigenvalues --  -20.62837 -20.61292 -20.55708 -11.41480 -11.29713
 Alpha  occ. eigenvalues --  -11.26798 -11.25776 -11.22461  -1.48135  -1.38515
 Alpha  occ. eigenvalues --   -1.37847  -1.07810  -1.04245  -0.92649  -0.83792
 Alpha  occ. eigenvalues --   -0.76462  -0.73066  -0.69496  -0.68183  -0.66936
 Alpha  occ. eigenvalues --   -0.64930  -0.63121  -0.58223  -0.55850  -0.54025
 Alpha  occ. eigenvalues --   -0.53855  -0.50498  -0.47746  -0.46175  -0.42903
 Alpha  occ. eigenvalues --   -0.42089
 Alpha virt. eigenvalues --    0.03652   0.04394   0.05604   0.06282   0.07306
 Alpha virt. eigenvalues --    0.08881   0.09441   0.09979   0.10905   0.11572
 Alpha virt. eigenvalues --    0.13471   0.13714   0.14357   0.15697   0.16445

  Beta  occ. eigenvalues --  -20.61296 -20.58788 -20.56054 -11.41218 -11.29714
  Beta  occ. eigenvalues --  -11.26999 -11.25343 -11.22462  -1.48278  -1.38397
  Beta  occ. eigenvalues --   -1.23546  -1.07855  -1.03701  -0.92018  -0.83523
  Beta  occ. eigenvalues --   -0.76365  -0.72355  -0.69690  -0.66857  -0.63569
  Beta  occ. eigenvalues --   -0.63032  -0.58492  -0.55391  -0.54112  -0.50668
  Beta  occ. eigenvalues --   -0.50553  -0.48203  -0.47100  -0.43050  -0.42435
  Beta virt. eigenvalues --    0.03686   0.04339   0.04991   0.06283   0.07071
  Beta virt. eigenvalues --    0.08422   0.09300   0.09505   0.10613   0.11124
  Beta virt. eigenvalues --    0.12299   0.13616   0.13904   0.15087   0.15829

 Mulliken charges and spin densities:
               1          2
     1  C   -1.831660   0.672617
     2  H    0.200163  -0.050276
     3  C    1.797779  -0.631501
     4  C   -0.152954   0.148023
     5  O   -0.264973  -0.071759
     6  O   -0.077795   0.000020
     7  C   -0.150068   0.001873
     8  C   -0.390839   0.000311
     9  H    0.164741  -0.000016
    10  H    0.178326  -0.000094
    11  H    0.140729  -0.000052
    12  H    0.137044  -0.000123
    13  H    0.187165  -0.000496
    14  O   -0.157958   0.969962
    15  H    0.220301  -0.038489
 Sum of Mulliken charges =  -0.00000   1.00000

 Dipole moment (field-independent basis, Debye):
    X=              0.0623    Y=              1.2641    Z=             -3.1626  Tot=              3.4064
 Quadrupole moment (field-independent basis, Debye-Ang):
   XX=            -33.5961   YY=            -47.4868   ZZ=            -51.7099
   XY=             -0.0714   XZ=              2.9273   YZ=             -0.1740

 PMP3-0=-419.2821652\MP4SDQ=-419.3004817\CCSD=-419.3024391\CCSD(T)=-419
 Normal termination of Gaussian 16 at Sun Aug  3 08:06:39 2025.
