 Gaussian 16, Revision A.03,
 Gaussian 16:  ES64L-G16RevA.03 25-Dec-2016

 -------------------
 # freq 6-31+g m062x
 -------------------

 -------------------
 Title Card Required
 -------------------
 Symbolic Z-matrix:
 Charge =  0 Multiplicity = 2

                         Standard orientation:
 ---------------------------------------------------------------------
 Center     Atomic      Atomic             Coordinates (Angstroms)
 Number     Number       Type             X           Y           Z
 ---------------------------------------------------------------------
      1          6           0       -2.816429   -0.445598   -0.384426
      2          1           0       -3.864018   -0.426592   -0.575825
      3          6           0       -1.637657   -0.454718   -0.152649
      4          6           0       -0.223258   -0.627097    0.168978
      5          8           0        0.156253   -1.124343    1.189949
      6          8           0        0.554849   -0.209047   -0.829242
      7          6           0        1.975250   -0.350311   -0.618005
      8          6           0        2.505535    0.767534    0.256795
      9          1           0        2.397040   -0.315730   -1.621002
     10          1           0        2.165812   -1.329272   -0.176676
     11          1           0        3.588468    0.671847    0.357319
     12          1           0        2.282307    1.738123   -0.188480
     13          1           0        2.059668    0.721467    1.250404
     14          8           0       -1.450308    1.781085    0.375836
     15          1           0       -1.536275    2.019739   -0.562253
 ---------------------------------------------------------------------

 SCF Done:  E(UM062X) =  -419.960634655     A.U. after   23 cycles

 The electronic state is 2-A.
 Alpha  occ. eigenvalues --  -19.70672 -19.70129 -19.66190 -10.72953 -10.61585
 Alpha  occ. eigenvalues --  -10.59444 -10.59139 -10.54424  -1.27959  -1.18629
 Alpha  occ. eigenvalues --   -1.14462  -0.91371  -0.87970  -0.78576  -0.71212
 Alpha  occ. eigenvalues --   -0.64692  -0.61985  -0.58528  -0.56935  -0.54885
 Alpha  occ. eigenvalues --   -0.53922  -0.50449  -0.48990  -0.46646  -0.45232
 Alpha  occ. eigenvalues --   -0.42574  -0.42049  -0.39381  -0.38319  -0.36813
 Alpha  occ. eigenvalues --   -0.36227
 Alpha virt. eigenvalues --   -0.01206   0.01942   0.02343   0.03514   0.03808
 Alpha virt. eigenvalues --    0.03865   0.05203   0.06500   0.07488   0.08179
 Alpha virt. eigenvalues --    0.08469   0.08986   0.09635   0.12088   0.12542

  Beta  occ. eigenvalues --  -19.70676 -19.68482 -19.66202 -10.72942 -10.61585
  Beta  occ. eigenvalues --  -10.59421 -10.59061 -10.54425  -1.27967  -1.18651
  Beta  occ. eigenvalues --   -1.07169  -0.91148  -0.87776  -0.78500  -0.71134
  Beta  occ. eigenvalues --   -0.64665  -0.61753  -0.58442  -0.56787  -0.53961
  Beta  occ. eigenvalues --   -0.51695  -0.49447  -0.46891  -0.45270  -0.42055
  Beta  occ. eigenvalues --   -0.40134  -0.38795  -0.38127  -0.37966  -0.36633
  Beta virt. eigenvalues --   -0.08947  -0.00777   0.01981   0.02378   0.03605
  Beta virt. eigenvalues --    0.03836   0.04072   0.05183   0.06641   0.07553
  Beta virt. eigenvalues --    0.08143   0.08561   0.09061   0.09709   0.12202

 Mulliken charges and spin densities:
               1          2
     1  C   -0.135093   0.067078
     2  H    0.343096  -0.005260
     3  C   -0.121010  -0.006575
     4  C    0.121294   0.047538
     5  O   -0.321276  -0.004736
     6  O   -0.218731  -0.002828
     7  C   -0.227135  -0.001436
     8  C   -0.564677   0.000729
     9  H    0.217831  -0.000001
    10  H    0.233033  -0.000079
    11  H    0.206676  -0.000008
    12  H    0.217577  -0.000065
    13  H    0.244745  -0.000084
    14  O   -0.399358   0.941657
    15  H    0.403028  -0.035932
 Sum of Mulliken charges =  -0.00000   1.00000

 Dipole moment (field-independent basis, Debye):
    X=              0.1636    Y=              0.7802    Z=             -3.2557  Tot=              3.3518
 Quadrupole moment (field-independent basis, Debye-Ang):
   XX=            -33.4080   YY=            -48.1323   ZZ=            -52.5267
   XY=              0.5750   XZ=              3.2237   YZ=             -0.7117

  Exact polarizability:  86.820   3.506  59.374   4.507  -1.933  55.779
 Approx polarizability:  92.449   1.220  60.261   8.875  -6.995  69.300

 ******    3 imaginary frequencies (negative Signs) ******

                      1                      2                      3
                      A                      A                      A
 Frequencies --   -487.7659              -183.1327               -44.4081
 Red. masses --      1.0750                 1.9765                 4.4097
 Frc consts  --      0.1507                 0.0391                 0.0051
 IR Inten    --    129.2389                57.6892                 0.6033

                      4                      5                      6
                      A                      A                      A
 Frequencies --     20.3157                81.4717                84.8259
 Red. masses --      3.2364                 3.4446                 4.9237
 Frc consts  --      0.0008                 0.0135                 0.0209
 IR Inten    --      7.7318                14.7904                 2.8477

                      7                      8                      9
                      A                      A                      A
 Frequencies --    118.6914               183.1904               216.8418
 Red. masses --      2.7720                 1.3377                 3.1538
 Frc consts  --      0.0230                 0.0264                 0.0874
 IR Inten    --     17.2154                 1.8038                 5.5641

                     10                     11                     12
                      A                      A                      A
 Frequencies --    290.7534               316.0500               421.1203
 Red. masses --      2.7954                 3.0978                 3.8696
 Frc consts  --      0.1392                 0.1823                 0.4043
 IR Inten    --     45.4673                14.0680                 1.9052

                     13                     14                     15
                      A                      A                      A
 Frequencies --    569.7573               627.9332               761.8605
 Red. masses --      4.1290                 5.5431                 3.3090
 Frc consts  --      0.7897                 1.2878                 1.1316
 IR Inten    --      3.7146                15.5614                81.1332

                     16                     17                     18
                      A                      A                      A
 Frequencies --    794.6620               814.7135               819.5690
 Red. masses --      1.3996                 1.5557                 1.4504
 Frc consts  --      0.5207                 0.6084                 0.5740
 IR Inten    --     61.4465                 9.8630                 4.3857

                     19                     20                     21
                      A                      A                      A
 Frequencies --    899.6489               944.5572              1113.7492
 Red. masses --      3.3986                 2.5219                 4.1774
 Frc consts  --      1.6207                 1.3257                 3.0530
 IR Inten    --     17.8615                 5.1060                 7.7041

                     22                     23                     24
                      A                      A                      A
 Frequencies --   1158.8138              1227.9267              1323.5419
 Red. masses --      2.0878                 1.7595                 2.3178
 Frc consts  --      1.6518                 1.5631                 2.3922
 IR Inten    --     17.9210                 5.3028               383.5870

                     25                     26                     27
                      A                      A                      A
 Frequencies --   1369.6761              1443.0483              1458.4203
 Red. masses --      1.5836                 1.3499                 1.2636
 Frc consts  --      1.7504                 1.6562                 1.5836
 IR Inten    --    231.9184                29.1150                17.8062

                     28                     29                     30
                      A                      A                      A
 Frequencies --   1526.8877              1536.7363              1544.1346
 Red. masses --      1.0416                 1.0619                 1.0808
 Frc consts  --      1.4308                 1.4776                 1.5183
 IR Inten    --     13.8847                 3.3647                25.7388

                     31                     32                     33
                      A                      A                      A
 Frequencies --   1917.8724              2309.7948              3107.7634
 Red. masses --     12.3191                 5.6390                 1.0353
 Frc consts  --     26.6974                17.7254                 5.8914
 IR Inten    --    302.5766                64.2751                13.6215

                     34                     35                     36
                      A                      A                      A
 Frequencies --   3136.7773              3185.8886              3191.2606
 Red. masses --      1.0599                 1.1008                 1.1027
 Frc consts  --      6.1442                 6.5829                 6.6165
 IR Inten    --     21.2864                14.1882                 8.0435

                     37                     38                     39
                      A                      A                      A
 Frequencies --   3211.8896              3531.0708              3802.7928
 Red. masses --      1.1046                 1.1752                 1.0671
 Frc consts  --      6.7141                 8.6331                 9.0922
 IR Inten    --     16.5669                60.3614                11.2260

 - Thermochemistry -
 -------------------
 Temperature   298.150 Kelvin.  Pressure   1.00000 Atm.
 Atom     1 has atomic number  6 and mass  12.00000

 Molecular mass:   115.03952 amu.
 Principal axes and moments of inertia in atomic units:
                           1         2         3
     Eigenvalues --   530.592881385.048181567.77669
           X            0.99990   0.01211   0.00748
           Y           -0.01220   0.99985   0.01261
           Z           -0.00732  -0.01270   0.99989
 This molecule is an asymmetric top.
 Rotational symmetry number  1.
 Warning -- assumption of classical behavior for rotation
           may cause significant error
 Rotational temperatures (Kelvin)      0.16324     0.06253     0.05525
 Rotational constants (GHZ):           3.40137     1.30302     1.15115
    3 imaginary frequencies ignored.
 Zero-point vibrational energy     293467.9 (Joules/Mol)
                                   70.14052 (Kcal/Mol)
 Warning -- explicit consideration of  10 degrees of freedom as
           vibrations may cause significant error
 Vibrational temperatures:     29.23   117.22   122.05   170.77   263.57
          (Kelvin)            311.99   418.33   454.73   605.90   819.75
                              903.46  1096.15  1143.34  1172.19  1179.18
                             1294.39  1359.01  1602.44  1667.27  1766.71
                             1904.28  1970.66  2076.22  2098.34  2196.85
                             2211.02  2221.67  2759.39  3323.28  4471.38
                             4513.12  4583.78  4591.51  4621.19  5080.42
                             5471.37

 Zero-point correction=                           0.111776 (Hartree/Particle)
 Thermal correction to Energy=                    0.120828
 Thermal correction to Enthalpy=                  0.121772
 Thermal correction to Gibbs Free Energy=         0.075385
 Sum of electronic and zero-point Energies=           -419.848859
 Sum of electronic and thermal Energies=              -419.839807
 Sum of electronic and thermal Enthalpies=            -419.838863
 Sum of electronic and thermal Free Energies=         -419.885250

                     E (Thermal)             CV                S
                      KCal/Mol        Cal/Mol-Kelvin    Cal/Mol-Kelvin
 Total                   75.821             29.212             97.629
 Electronic               0.000              0.000              1.377
 Translational            0.889              2.981             40.136
 Rotational               0.889              2.981             28.534
 Vibrational             74.043             23.250             27.582
 Vibration     1          0.593              1.986              6.603
 Vibration     2          0.600              1.962              3.855
 Vibration     3          0.601              1.960              3.776
 Vibration     4          0.609              1.934              3.122
 Vibration     5          0.631              1.863              2.296
 Vibration     6          0.646              1.815              1.985
 Vibration     7          0.687              1.691              1.470
 Vibration     8          0.703              1.643              1.330
 Vibration     9          0.784              1.424              0.888
 Vibration    10          0.926              1.097              0.505

 Normal termination of Gaussian 16 at Fri Jun 20 13:41:07 2025.
