 Gaussian 16, Revision A.03,
 Gaussian 16:  ES64L-G16RevA.03 25-Dec-2016

 --------------------------
 # ccsd(t)/6-311++g(d,p) sp
 --------------------------

 -------------------
 Title Card Required
 -------------------
 Symbolic Z-matrix:
 Charge =  0 Multiplicity = 2

                         Standard orientation:
 ---------------------------------------------------------------------
 Center     Atomic      Atomic             Coordinates (Angstroms)
 Number     Number       Type             X           Y           Z
 ---------------------------------------------------------------------
      1          6           0       -2.804103   -0.436930   -0.398689
      2          1           0       -3.847418   -0.475176   -0.610452
      3          6           0       -1.630645   -0.320564   -0.130493
      4          6           0       -0.220619   -0.602805    0.157808
      5          8           0        0.144158   -1.163136    1.150104
      6          8           0        0.560173   -0.184001   -0.835481
      7          6           0        1.979444   -0.334203   -0.624860
      8          6           0        2.503339    0.760275    0.283424
      9          1           0        2.404373   -0.270220   -1.624961
     10          1           0        2.169291   -1.325319   -0.211448
     11          1           0        3.586014    0.664663    0.386236
     12          1           0        2.278495    1.742225   -0.135156
     13          1           0        2.053641    0.685329    1.273721
     14          8           0       -1.460813    1.667836    0.397978
     15          1           0       -1.557038    2.018274   -0.501896
 ---------------------------------------------------------------------

 SCF Done:  E(UHF) =  -417.981203366     A.U. after   37 cycles
 E2 =    -0.1257454939D+01 EUMP2 =    -0.41923865830457D+03
 CCSD(T)= -0.41935332842D+03

 The electronic state is 2-A.
 Alpha  occ. eigenvalues --  -20.62432 -20.61227 -20.55638 -11.41398 -11.29691
 Alpha  occ. eigenvalues --  -11.26947 -11.26031 -11.22458  -1.48117  -1.38220
 Alpha  occ. eigenvalues --   -1.37790  -1.07907  -1.04345  -0.92685  -0.83744
 Alpha  occ. eigenvalues --   -0.76473  -0.73098  -0.69502  -0.68337  -0.66526
 Alpha  occ. eigenvalues --   -0.64594  -0.62987  -0.58083  -0.55637  -0.54006
 Alpha  occ. eigenvalues --   -0.53633  -0.50460  -0.47617  -0.46006  -0.43150
 Alpha  occ. eigenvalues --   -0.42071
 Alpha virt. eigenvalues --    0.03668   0.04405   0.05596   0.06283   0.07319
 Alpha virt. eigenvalues --    0.08840   0.09484   0.10310   0.11020   0.11689
 Alpha virt. eigenvalues --    0.13504   0.13691   0.14288   0.15891   0.16442

  Beta  occ. eigenvalues --  -20.61233 -20.58533 -20.56044 -11.41068 -11.29691
  Beta  occ. eigenvalues --  -11.27690 -11.25002 -11.22460  -1.48281  -1.38435
  Beta  occ. eigenvalues --   -1.24183  -1.07856  -1.03624  -0.91821  -0.83279
  Beta  occ. eigenvalues --   -0.76318  -0.72116  -0.69701  -0.67110  -0.63659
  Beta  occ. eigenvalues --   -0.62909  -0.58398  -0.55475  -0.54115  -0.50704
  Beta  occ. eigenvalues --   -0.50540  -0.48157  -0.47136  -0.43572  -0.42519
  Beta virt. eigenvalues --    0.03706   0.04353   0.04856   0.06283   0.07006
  Beta virt. eigenvalues --    0.08174   0.09257   0.09522   0.10620   0.11646
  Beta virt. eigenvalues --    0.12292   0.13662   0.13924   0.15358   0.16038

 Mulliken charges and spin densities:
               1          2
     1  C   -0.966986   0.965096
     2  H    0.211602  -0.070072
     3  C    1.044999  -0.869858
     4  C   -0.265674   0.169745
     5  O   -0.267359  -0.083955
     6  O   -0.078894   0.001307
     7  C   -0.157468   0.001986
     8  C   -0.392614   0.001006
     9  H    0.162846  -0.000052
    10  H    0.177426  -0.000033
    11  H    0.139626  -0.000094
    12  H    0.138572  -0.000141
    13  H    0.186381  -0.000830
    14  O   -0.158640   0.919834
    15  H    0.226184  -0.033939
 Sum of Mulliken charges =  -0.00000   1.00000

 Dipole moment (field-independent basis, Debye):
    X=              0.0380    Y=              1.2197    Z=             -3.1451  Tot=              3.3735
 Quadrupole moment (field-independent basis, Debye-Ang):
   XX=            -33.6101   YY=            -47.4591   ZZ=            -51.6304
   XY=              0.1633   XZ=              3.0105   YZ=              0.0034

 6\PMP3-0=-419.2797744\MP4SDQ=-419.294735\CCSD=-419.2995636\CCSD(T)=-41
 Normal termination of Gaussian 16 at Fri Aug 29 13:35:32 2025.
