 Gaussian 16, Revision A.03,
 Gaussian 16:  ES64L-G16RevA.03 25-Dec-2016

 --------------------------
 # ccsd(t)/6-311++g(d,p) sp
 --------------------------

 -------------------
 Title Card Required
 -------------------
 Symbolic Z-matrix:
 Charge =  0 Multiplicity = 2

                         Standard orientation:
 ---------------------------------------------------------------------
 Center     Atomic      Atomic             Coordinates (Angstroms)
 Number     Number       Type             X           Y           Z
 ---------------------------------------------------------------------
      1          6           0       -2.800320   -0.436985   -0.405452
      2          1           0       -3.842503   -0.485240   -0.622314
      3          6           0       -1.628087   -0.258120   -0.118240
      4          6           0       -0.219837   -0.599524    0.151650
      5          8           0        0.140828   -1.178568    1.134035
      6          8           0        0.560812   -0.174664   -0.837832
      7          6           0        1.980348   -0.326660   -0.628034
      8          6           0        2.502591    0.757190    0.294011
      9          1           0        2.405712   -0.249998   -1.627001
     10          1           0        2.170543   -1.322708   -0.226904
     11          1           0        3.585203    0.660460    0.396484
     12          1           0        2.277383    1.744018   -0.112538
     13          1           0        2.052178    0.670264    1.283028
     14          8           0       -1.464274    1.622831    0.406621
     15          1           0       -1.555613    2.011007   -0.476956
 ---------------------------------------------------------------------

 SCF Done:  E(UHF) =  -417.977472552     A.U. after   35 cycles
 E2 =    -0.1256120165D+01 EUMP2 =    -0.41923359271719D+03
 CCSD(T)= -0.41935333243D+03

 The electronic state is 2-A.
 Alpha  occ. eigenvalues --  -20.61911 -20.61210 -20.55653 -11.41349 -11.29689
 Alpha  occ. eigenvalues --  -11.27285 -11.26675 -11.22451  -1.48141  -1.37809
 Alpha  occ. eigenvalues --   -1.37719  -1.08060  -1.04430  -0.92707  -0.83740
 Alpha  occ. eigenvalues --   -0.76534  -0.73149  -0.69522  -0.68379  -0.66134
 Alpha  occ. eigenvalues --   -0.63980  -0.62887  -0.57989  -0.55352  -0.53999
 Alpha  occ. eigenvalues --   -0.53419  -0.50442  -0.47577  -0.45947  -0.43429
 Alpha  occ. eigenvalues --   -0.42087
 Alpha virt. eigenvalues --    0.03677   0.04410   0.05612   0.06284   0.07327
 Alpha virt. eigenvalues --    0.08815   0.09523   0.10513   0.11114   0.11801
 Alpha virt. eigenvalues --    0.13493   0.13672   0.14243   0.15968   0.16469

  Beta  occ. eigenvalues --  -20.61216 -20.58244 -20.56070 -11.40982 -11.29689
  Beta  occ. eigenvalues --  -11.28692 -11.24920 -11.22453  -1.48307  -1.38471
  Beta  occ. eigenvalues --   -1.24942  -1.07794  -1.03550  -0.91642  -0.83045
  Beta  occ. eigenvalues --   -0.76315  -0.71958  -0.69733  -0.67325  -0.63763
  Beta  occ. eigenvalues --   -0.62783  -0.58308  -0.55530  -0.54116  -0.50792
  Beta  occ. eigenvalues --   -0.50488  -0.48134  -0.47140  -0.44245  -0.42621
  Beta virt. eigenvalues --    0.03721   0.04350   0.04728   0.06279   0.06927
  Beta virt. eigenvalues --    0.07973   0.09215   0.09544   0.10577   0.12006
  Beta virt. eigenvalues --    0.12230   0.13664   0.13938   0.15585   0.16152

 Mulliken charges and spin densities:
               1          2
     1  C   -0.449275   1.204821
     2  H    0.220733  -0.086074
     3  C    0.599504  -1.039531
     4  C   -0.331424   0.177447
     5  O   -0.269698  -0.086320
     6  O   -0.080398   0.002176
     7  C   -0.163974   0.002159
     8  C   -0.392496   0.001385
     9  H    0.161870  -0.000056
    10  H    0.177059  -0.000027
    11  H    0.138298  -0.000114
    12  H    0.139685  -0.000153
    13  H    0.185929  -0.000976
    14  O   -0.167176   0.854868
    15  H    0.231362  -0.029605
 Sum of Mulliken charges =  -0.00000   1.00000

 Dipole moment (field-independent basis, Debye):
    X=              0.0052    Y=              1.0899    Z=             -3.1632  Tot=              3.3457
 Quadrupole moment (field-independent basis, Debye-Ang):
   XX=            -33.5603   YY=            -47.6421   ZZ=            -51.5938
   XY=              0.4533   XZ=              3.0848   YZ=              0.0663

 DQ=-419.2916081\CCSD=-419.2988177\CCSD(T)=-419.3533324\S2=1.04596\S2-1
 Normal termination of Gaussian 16 at Wed Aug 20 03:15:15 2025.
