 Gaussian 16, Revision A.03,
 Gaussian 16:  ES64L-G16RevA.03 25-Dec-2016

 --------------------------
 # freq 6-311++g(d,p) m062x
 --------------------------

 -------------------
 Title Card Required
 -------------------
 Symbolic Z-matrix:
 Charge =  0 Multiplicity = 2

                         Standard orientation:
 ---------------------------------------------------------------------
 Center     Atomic      Atomic             Coordinates (Angstroms)
 Number     Number       Type             X           Y           Z
 ---------------------------------------------------------------------
      1          6           0       -1.654451   -0.225117   -0.061137
      2          1           0       -3.140404   -0.983144    0.126135
      3          6           0       -0.625070    0.407930   -0.045279
      4          6           0        0.649740    1.125448    0.015788
      5          8           0        0.684767    2.273988    0.341587
      6          8           0        1.747072    0.451695   -0.325295
      7          6           0        1.697573   -0.955469   -0.624273
      8          6           0        1.746509   -1.781410    0.645583
      9          1           0        0.809141   -1.174947   -1.219038
     10          1           0        2.578709   -1.123357   -1.241390
     11          1           0        2.633492   -1.527396    1.227453
     12          1           0        0.860706   -1.608947    1.259055
     13          1           0        1.786098   -2.843109    0.394114
     14          8           0       -3.976476   -0.521495   -0.099676
     15          1           0       -4.056457    0.199094    0.536648
 ---------------------------------------------------------------------

 SCF Done:  E(UM062X) =  -420.169513475     A.U. after   23 cycles

 The electronic state is 2-A.
 Alpha  occ. eigenvalues --  -19.68737 -19.68270 -19.63441 -10.71393 -10.61734
 Alpha  occ. eigenvalues --  -10.61669 -10.58706 -10.54877  -1.25827  -1.19267
 Alpha  occ. eigenvalues --   -1.17288  -0.90732  -0.89031  -0.77882  -0.74060
 Alpha  occ. eigenvalues --   -0.67400  -0.64252  -0.58850  -0.57377  -0.55373
 Alpha  occ. eigenvalues --   -0.53601  -0.50123  -0.47807  -0.47667  -0.46427
 Alpha  occ. eigenvalues --   -0.43144  -0.42516  -0.40689  -0.39542  -0.38114
 Alpha  occ. eigenvalues --   -0.37068
 Alpha virt. eigenvalues --   -0.02888  -0.00927  -0.00033   0.01238   0.01340
 Alpha virt. eigenvalues --    0.02938   0.03904   0.04296   0.04961   0.05736
 Alpha virt. eigenvalues --    0.06958   0.07751   0.07959   0.09313   0.10011

  Beta  occ. eigenvalues --  -19.68743 -19.67641 -19.63425 -10.71371 -10.61736
  Beta  occ. eigenvalues --  -10.60454 -10.58590 -10.54878  -1.25816  -1.17260
  Beta  occ. eigenvalues --   -1.17055  -0.89209  -0.88698  -0.77491  -0.73172
  Beta  occ. eigenvalues --   -0.65326  -0.64156  -0.58825  -0.57410  -0.53614
  Beta  occ. eigenvalues --   -0.51332  -0.50129  -0.47780  -0.46538  -0.43577
  Beta  occ. eigenvalues --   -0.42868  -0.39805  -0.38846  -0.37262  -0.36436
  Beta virt. eigenvalues --   -0.16043  -0.01565  -0.00649   0.00107   0.01340
  Beta virt. eigenvalues --    0.01575   0.03066   0.04009   0.04674   0.05774
  Beta virt. eigenvalues --    0.06046   0.07111   0.07839   0.08129   0.09348

 Mulliken charges and spin densities:
               1          2
     1  C   -0.444420   0.857763
     2  H    0.352739  -0.025490
     3  C    0.593166  -0.035169
     4  C   -0.284062  -0.032771
     5  O   -0.245098   0.002513
     6  O   -0.030545  -0.000435
     7  C   -0.364029  -0.008162
     8  C   -0.405349   0.003741
     9  H    0.167927   0.003001
    10  H    0.203517  -0.000166
    11  H    0.188224   0.000339
    12  H    0.137693   0.000248
    13  H    0.157364  -0.000526
    14  O   -0.308834   0.242131
    15  H    0.281709  -0.007017
 Sum of Mulliken charges =  -0.00000   1.00000

 Dipole moment (field-independent basis, Debye):
    X=             -0.3408    Y=             -3.6323    Z=              0.5879  Tot=              3.6953
 Quadrupole moment (field-independent basis, Debye-Ang):
   XX=            -47.3719   YY=            -53.3722   ZZ=            -47.1191
   XY=             -8.4146   XZ=             -6.6195   YZ=             -0.6719

  Exact polarizability: 118.050  14.499  78.840  -2.558   3.250  52.016
 Approx polarizability: 109.605  19.490  94.723  -0.983   6.863  60.636

 ******    4 imaginary frequencies (negative Signs) ******

                      1                      2                      3
                      A                      A                      A
 Frequencies --   -449.6141              -212.6942               -58.9723
 Red. masses --      1.0442                 1.0563                 8.2473
 Frc consts  --      0.1244                 0.0282                 0.0169
 IR Inten    --    207.4921                81.7430                 1.5865

                      4                      5                      6
                      A                      A                      A
 Frequencies --    -53.5886                70.3618                98.2896
 Red. masses --      7.1506                 3.9673                 5.0048
 Frc consts  --      0.0121                 0.0116                 0.0285
 IR Inten    --      5.9905                 0.8478                 3.1936

                      7                      8                      9
                      A                      A                      A
 Frequencies --    135.9853               196.2124               222.0016
 Red. masses --      3.2387                 8.2601                 1.4211
 Frc consts  --      0.0353                 0.1874                 0.0413
 IR Inten    --      8.4514                40.0801                 4.6414

                     10                     11                     12
                      A                      A                      A
 Frequencies --    233.5252               354.5609               411.4844
 Red. masses --      3.7366                 2.7738                 3.5242
 Frc consts  --      0.1201                 0.2055                 0.3516
 IR Inten    --     16.4274                 2.3260                12.6461

                     13                     14                     15
                      A                      A                      A
 Frequencies --    426.5576               551.2770               606.6607
 Red. masses --      1.0788                 6.7154                 6.2856
 Frc consts  --      0.1157                 1.2024                 1.3630
 IR Inten    --    122.1761                57.4129                 7.2681

                     16                     17                     18
                      A                      A                      A
 Frequencies --    746.1945               765.8652               814.4992
 Red. masses --     10.5017                 4.6983                 1.1976
 Frc consts  --      3.4452                 1.6237                 0.4681
 IR Inten    --     22.6771                 5.8466                 2.9862

                     19                     20                     21
                      A                      A                      A
 Frequencies --    951.9533              1106.5890              1132.4987
 Red. masses --      2.2656                 3.4206                 2.5994
 Frc consts  --      1.2096                 2.4679                 1.9643
 IR Inten    --      8.6185                58.3356                56.9414

                     22                     23                     24
                      A                      A                      A
 Frequencies --   1178.8086              1260.6060              1348.4405
 Red. masses --      1.9204                 2.9879                 1.2474
 Frc consts  --      1.5723                 2.7975                 1.3364
 IR Inten    --     68.1372               436.9957               121.6586

                     25                     26                     27
                      A                      A                      A
 Frequencies --   1405.6837              1432.8102              1488.9814
 Red. masses --      1.2702                 1.3690                 1.0866
 Frc consts  --      1.4788                 1.6559                 1.4193
 IR Inten    --     29.3983                20.4335                70.3164

                     28                     29                     30
                      A                      A                      A
 Frequencies --   1493.0282              1501.9906              1525.4678
 Red. masses --      1.0417                 1.0473                 1.1006
 Frc consts  --      1.3682                 1.3920                 1.5090
 IR Inten    --      8.7750                 3.0286                18.6946

                     31                     32                     33
                      A                      A                      A
 Frequencies --   1862.3430              2192.0491              3073.5242
 Red. masses --     13.0347                11.7184                 1.0353
 Frc consts  --     26.6360                33.1758                 5.7625
 IR Inten    --    470.7276                76.7542                 7.0574

                     34                     35                     36
                      A                      A                      A
 Frequencies --   3102.4391              3146.1640              3152.6217
 Red. masses --      1.0624                 1.1041                 1.1012
 Frc consts  --      6.0246                 6.4389                 6.4486
 IR Inten    --     15.5679                 1.2792                12.4789

                     37                     38                     39
                      A                      A                      A
 Frequencies --   3168.3033              3353.5136              3887.4215
 Red. masses --      1.1062                 1.0662                 1.0692
 Frc consts  --      6.5426                 7.0648                 9.5203
 IR Inten    --     23.8925               201.7072               136.7107

 - Thermochemistry -
 -------------------
 Temperature   298.150 Kelvin.  Pressure   1.00000 Atm.
 Atom     1 has atomic number  6 and mass  12.00000

 Molecular mass:   115.03952 amu.
 Principal axes and moments of inertia in atomic units:
                           1         2         3
     Eigenvalues --   688.628331744.069282289.50691
           X            0.99916  -0.04088  -0.00343
           Y            0.04083   0.99906  -0.01457
           Z            0.00403   0.01442   0.99989
 This molecule is an asymmetric top.
 Rotational symmetry number  1.
 Warning -- assumption of classical behavior for rotation
           may cause significant error
 Rotational temperatures (Kelvin)      0.12578     0.04966     0.03783
 Rotational constants (GHZ):           2.62078     1.03479     0.78827
    4 imaginary frequencies ignored.
 Zero-point vibrational energy     289488.6 (Joules/Mol)
                                   69.18943 (Kcal/Mol)
 Warning -- explicit consideration of  11 degrees of freedom as
           vibrations may cause significant error
 Vibrational temperatures:    101.24   141.42   195.65   282.31   319.41
          (Kelvin)            335.99   510.13   592.03   613.72   793.16
                              872.85  1073.61  1101.91  1171.88  1369.65
                             1592.13  1629.41  1696.04  1813.73  1940.11
                             2022.47  2061.49  2142.31  2148.13  2161.03
                             2194.81  2679.50  3153.87  4422.12  4463.72
                             4526.63  4535.92  4558.48  4824.96  5593.13

 Zero-point correction=                           0.110260 (Hartree/Particle)
 Thermal correction to Energy=                    0.118604
 Thermal correction to Enthalpy=                  0.119548
 Thermal correction to Gibbs Free Energy=         0.075655
 Sum of electronic and zero-point Energies=           -419.3177272
 Sum of electronic and thermal Energies=              -420.050909
 Sum of electronic and thermal Enthalpies=            -420.049965
 Sum of electronic and thermal Free Energies=         -420.093859

                     E (Thermal)             CV                S
                      KCal/Mol        Cal/Mol-Kelvin    Cal/Mol-Kelvin
 Total                   74.425             27.894             92.382
 Electronic               0.000              0.000              1.377
 Translational            0.889              2.981             40.136
 Rotational               0.889              2.981             29.399
 Vibrational             72.648             21.932             21.470
 Vibration     1          0.598              1.968              4.143
 Vibration     2          0.604              1.950              3.488
 Vibration     3          0.614              1.917              2.860
 Vibration     4          0.636              1.845              2.168
 Vibration     5          0.648              1.808              1.943
 Vibration     6          0.654              1.790              1.852
 Vibration     7          0.730              1.566              1.146
 Vibration     8          0.775              1.445              0.921
 Vibration     9          0.788              1.412              0.870
 Vibration    10          0.907              1.137              0.542
 Vibration    11          0.965              1.018              0.438

 1\1\GINC-AJ\Freq\UM062X\6-311++G(d,p)\C5H7O3(2)\AAYUSH\29-Mar-2025\0\\
 # freq 6-311++g(d,p) m062x\\Title Card Required\\0,2\C,-1.640595,-0.31
 0117,-0.050079\H,-3.123199,-1.074164,0.139263\C,-0.613864,0.327255,-0.
 035771\C,0.657978,1.050175,0.023449\O,0.688464,2.199201,0.347988\O,1.7
 57837,0.380661,-0.317842\C,1.713985,-1.027019,-0.615272\C,1.767453,-1.
 851383,0.655426\H,0.82598,-1.250857,-1.209049\H,2.595297,-1.191875,-1.
 232955\H,2.653853,-1.593029,1.236272\H,0.881452,-1.681975,1.269463\H,1
 .81128,-2.913176,0.40506\O,-3.961389,-0.616265,-0.086334\H,-4.043854,0

 Normal termination of Gaussian 16 at Sat Mar 29 01:47:49 2025.
