 Gaussian 16, Revision A.03,
 Gaussian 16:  ES64L-G16RevA.03 25-Dec-2016

 --------------------------
 # ccsd(t)/6-311++g(d,p) sp
 --------------------------

 -------------------
 Title Card Required
 -------------------
 Symbolic Z-matrix:
 Charge =  0 Multiplicity = 2

                         Standard orientation:
 ---------------------------------------------------------------------
 Center     Atomic      Atomic             Coordinates (Angstroms)
 Number     Number       Type             X           Y           Z
 ---------------------------------------------------------------------
      1          6           0       -1.654451   -0.225117   -0.061137
      2          1           0       -3.140404   -0.983144    0.126135
      3          6           0       -0.625070    0.407930   -0.045279
      4          6           0        0.649740    1.125448    0.015788
      5          8           0        0.684767    2.273988    0.341587
      6          8           0        1.747072    0.451695   -0.325295
      7          6           0        1.697573   -0.955469   -0.624273
      8          6           0        1.746509   -1.781410    0.645583
      9          1           0        0.809141   -1.174947   -1.219038
     10          1           0        2.578709   -1.123357   -1.241390
     11          1           0        2.633492   -1.527396    1.227453
     12          1           0        0.860706   -1.608947    1.259055
     13          1           0        1.786098   -2.843109    0.394114
     14          8           0       -3.976476   -0.521495   -0.099676
     15          1           0       -4.056457    0.199094    0.536648
 ---------------------------------------------------------------------

 SCF Done:  E(UHF) =  -417.933815064     A.U. after   31 cycles
 E2 =    -0.1261871035D+01 EUMP2 =    -0.41919568609869D+03
 CCSD(T)= -0.41931772724D+03

 The electronic state is 2-A.
 Alpha  occ. eigenvalues --  -20.61879 -20.60533 -20.56184 -11.42431 -11.32925
 Alpha  occ. eigenvalues --  -11.31331 -11.27059 -11.24190  -1.48393  -1.40031
 Alpha  occ. eigenvalues --   -1.38484  -1.10022  -1.05922  -0.92820  -0.88431
 Alpha  occ. eigenvalues --   -0.78902  -0.75473  -0.70002  -0.67736  -0.67176
 Alpha  occ. eigenvalues --   -0.63959  -0.59355  -0.58513  -0.56077  -0.55570
 Alpha  occ. eigenvalues --   -0.54562  -0.51889  -0.49323  -0.48165  -0.45991
 Alpha  occ. eigenvalues --   -0.44932
 Alpha virt. eigenvalues --    0.03300   0.04518   0.05303   0.06030   0.07218
 Alpha virt. eigenvalues --    0.07937   0.08543   0.08753   0.10751   0.12008
 Alpha virt. eigenvalues --    0.12890   0.13244   0.14348   0.15414   0.15725

  Beta  occ. eigenvalues --  -20.61797 -20.59409 -20.57060 -11.41834 -11.31354
  Beta  occ. eigenvalues --  -11.28908 -11.27290 -11.24191  -1.48687  -1.39798
  Beta  occ. eigenvalues --   -1.36388  -1.08095  -1.05903  -0.91598  -0.86547
  Beta  occ. eigenvalues --   -0.75711  -0.74045  -0.70816  -0.67788  -0.64425
  Beta  occ. eigenvalues --   -0.59837  -0.59765  -0.57207  -0.55786  -0.52624
  Beta  occ. eigenvalues --   -0.52061  -0.49768  -0.48003  -0.45147  -0.44450
  Beta virt. eigenvalues --   -0.00957   0.03752   0.05047   0.05848   0.06056
  Beta virt. eigenvalues --    0.07461   0.08390   0.08633   0.10521   0.10866
  Beta virt. eigenvalues --    0.12186   0.13111   0.13631   0.14988   0.15417

 Mulliken charges and spin densities:
               1          2
     1  C   -0.357941   2.027674
     2  H    0.331674  -0.069311
     3  C    0.692269  -1.140536
     4  C   -0.225804   0.210593
     5  O   -0.315532  -0.186808
     6  O   -0.147668  -0.000700
     7  C   -0.225296  -0.004964
     8  C   -0.406984  -0.001874
     9  H    0.136825   0.006888
    10  H    0.179137  -0.000113
    11  H    0.173325   0.000977
    12  H    0.118704   0.003894
    13  H    0.130043  -0.001312
    14  O   -0.360178   0.166670
    15  H    0.277428  -0.011078
 Sum of Mulliken charges =  -0.00000   1.00000

 Dipole moment (field-independent basis, Debye):
    X=              0.1499    Y=             -4.1240    Z=              0.5605  Tot=              4.1646
 Quadrupole moment (field-independent basis, Debye-Ang):
   XX=            -52.0757   YY=            -53.9940   ZZ=            -46.8178
   XY=             -8.9901   XZ=             -6.7845   YZ=             -0.7308

 PMP3-0=-419.2418347\MP4SDQ=-419.2498215\CCSD=-419.2623514\CCSD(T)=-419
 Normal termination of Gaussian 16 at Mon May  5 16:34:54 2025.
