 Gaussian 16, Revision A.03,
 Gaussian 16:  ES64L-G16RevA.03 25-Dec-2016

 --------------------------
 # freq 6-311++g(d,p) m062x
 --------------------------

 -------------------
 Title Card Required
 -------------------
 Symbolic Z-matrix:
 Charge =  0 Multiplicity = 2

                         Standard orientation:
 ---------------------------------------------------------------------
 Center     Atomic      Atomic             Coordinates (Angstroms)
 Number     Number       Type             X           Y           Z
 ---------------------------------------------------------------------
      1          6           0       -1.664569   -0.237061   -0.053578
      2          1           0       -2.939224   -0.825337    0.018786
      3          6           0       -0.634381    0.396866   -0.043388
      4          6           0        0.639479    1.125817    0.014179
      5          8           0        0.672131    2.274684    0.339709
      6          8           0        1.741577    0.457683   -0.326059
      7          6           0        1.699789   -0.949932   -0.623601
      8          6           0        1.753775   -1.774390    0.646977
      9          1           0        0.812056   -1.174823   -1.217508
     10          1           0        2.581302   -1.113798   -1.241315
     11          1           0        2.640061   -1.515597    1.227813
     12          1           0        0.867564   -1.605597    1.260842
     13          1           0        1.798150   -2.836117    0.396430
     14          8           0       -3.969308   -0.544566   -0.089578
     15          1           0       -4.079659    0.201061    0.518823
 ---------------------------------------------------------------------

 SCF Done:  E(UM062X) =  -420.167184812     A.U. after   21 cycles

 The electronic state is 2-A.
 Alpha  occ. eigenvalues --  -19.70054 -19.68688 -19.63416 -10.71385 -10.61671
 Alpha  occ. eigenvalues --  -10.60785 -10.58673 -10.54791  -1.25758  -1.19414
 Alpha  occ. eigenvalues --   -1.17224  -0.90423  -0.88947  -0.77823  -0.74145
 Alpha  occ. eigenvalues --   -0.68341  -0.64143  -0.58792  -0.57403  -0.57111
 Alpha  occ. eigenvalues --   -0.53579  -0.50034  -0.47752  -0.46982  -0.46451
 Alpha  occ. eigenvalues --   -0.43699  -0.42731  -0.40511  -0.39325  -0.37994
 Alpha  occ. eigenvalues --   -0.37001
 Alpha virt. eigenvalues --   -0.02718  -0.00905  -0.00095   0.01318   0.01380
 Alpha virt. eigenvalues --    0.02969   0.04151   0.04501   0.04979   0.05779
 Alpha virt. eigenvalues --    0.07049   0.07580   0.08017   0.09348   0.10035

  Beta  occ. eigenvalues --  -19.69104 -19.68692 -19.63393 -10.71370 -10.61672
  Beta  occ. eigenvalues --  -10.59857 -10.58569 -10.54791  -1.25741  -1.17181
  Beta  occ. eigenvalues --   -1.15819  -0.89173  -0.88722  -0.77479  -0.73323
  Beta  occ. eigenvalues --   -0.64702  -0.63762  -0.58753  -0.57321  -0.53602
  Beta  occ. eigenvalues --   -0.52066  -0.50036  -0.47694  -0.46446  -0.43941
  Beta  occ. eigenvalues --   -0.42803  -0.39793  -0.38798  -0.37298  -0.36492
  Beta virt. eigenvalues --   -0.17574  -0.01893  -0.00644   0.00096   0.01393
  Beta virt. eigenvalues --    0.01586   0.03054   0.04344   0.04806   0.05621
  Beta virt. eigenvalues --    0.05832   0.07156   0.07680   0.08154   0.09407

 Mulliken charges and spin densities:
               1          2
     1  C   -0.483144   0.631231
     2  H    0.426271  -0.035991
     3  C    0.545213  -0.014579
     4  C   -0.291840  -0.025837
     5  O   -0.244876   0.006011
     6  O   -0.030013   0.000107
     7  C   -0.357119  -0.006548
     8  C   -0.405995   0.003081
     9  H    0.164646   0.001620
    10  H    0.204979   0.000012
    11  H    0.188009   0.000216
    12  H    0.138940  -0.000016
    13  H    0.156668  -0.000352
    14  O   -0.286933   0.451745
    15  H    0.275193  -0.010700
 Sum of Mulliken charges =  -0.00000   1.00000

 Dipole moment (field-independent basis, Debye):
    X=             -0.5986    Y=             -3.3678    Z=              0.3863  Tot=              3.4423
 Quadrupole moment (field-independent basis, Debye-Ang):
   XX=            -45.0808   YY=            -54.0448   ZZ=            -47.2114
   XY=             -9.1854   XZ=             -5.8963   YZ=             -0.4259

  Exact polarizability: 123.010  15.447  77.518  -1.997   3.300  51.215
 Approx polarizability: 115.845  21.237  94.232  -0.858   7.176  60.253

 ******    1 imaginary frequencies (negative Signs) ******

                      1                      2                      3
                      A                      A                      A
 Frequencies --  -1033.8055                39.3579                49.4370
 Red. masses --      1.0388                 2.9189                 5.7425
 Frc consts  --      0.6541                 0.0027                 0.0083
 IR Inten    --    361.4891                16.2942                 2.1980

                      4                      5                      6
                      A                      A                      A
 Frequencies --     76.9333               108.9988               127.8028
 Red. masses --      3.7191                 3.9813                 1.7543
 Frc consts  --      0.0130                 0.0279                 0.0169
 IR Inten    --      4.1320                 0.0923                66.3746

                      7                      8                      9
                      A                      A                      A
 Frequencies --    168.7672               226.9493               243.4057
 Red. masses --      2.5149                 1.1675                 7.4520
 Frc consts  --      0.0422                 0.0354                 0.2601
 IR Inten    --     16.8904                 0.0401                12.5459

                     10                     11                     12
                      A                      A                      A
 Frequencies --    335.0125               358.8447               414.8280
 Red. masses --      7.2090                 2.7876                 3.6007
 Frc consts  --      0.4767                 0.2115                 0.3651
 IR Inten    --     14.8171                 3.5107                 5.9273

                     13                     14                     15
                      A                      A                      A
 Frequencies --    554.4531               581.0787               617.4631
 Red. masses --      5.5735                 1.1093                 6.5422
 Frc consts  --      1.0095                 0.2207                 1.4696
 IR Inten    --     72.5238               158.7339                 5.3429

                     16                     17                     18
                      A                      A                      A
 Frequencies --    750.0450               763.2330               814.3300
 Red. masses --      7.7350                 5.4197                 1.1809
 Frc consts  --      2.5638                 1.8601                 0.4614
 IR Inten    --     16.1195                13.6313                 3.9739

                     19                     20                     21
                      A                      A                      A
 Frequencies --    951.0362              1105.9373              1131.9511
 Red. masses --      2.2482                 3.4613                 2.5248
 Frc consts  --      1.1981                 2.4943                 1.9061
 IR Inten    --      8.9554                57.7116                50.8286

                     22                     23                     24
                      A                      A                      A
 Frequencies --   1178.9381              1244.9723              1260.0224
 Red. masses --      1.9366                 1.2156                 2.8943
 Frc consts  --      1.5859                 1.1101                 2.7073
 IR Inten    --     77.5895                56.9640               451.4008

                     25                     26                     27
                      A                      A                      A
 Frequencies --   1348.1551              1405.6296              1432.7384
 Red. masses --      1.2424                 1.2688                 1.3672
 Frc consts  --      1.3305                 1.4770                 1.6535
 IR Inten    --    124.9693                28.5110                19.4853

                     28                     29                     30
                      A                      A                      A
 Frequencies --   1493.0554              1501.9376              1525.4633
 Red. masses --      1.0400                 1.0471                 1.0998
 Frc consts  --      1.3660                 1.3916                 1.5079
 IR Inten    --      2.4607                 3.9586                20.3573

                     31                     32                     33
                      A                      A                      A
 Frequencies --   1776.7094              1860.8053              2245.0190
 Red. masses --      1.1093                13.0311                 9.0663
 Frc consts  --      2.0632                26.5849                26.9228
 IR Inten    --    549.1481               488.2599                15.3732

                     34                     35                     36
                      A                      A                      A
 Frequencies --   3073.5491              3101.6759              3146.1155
 Red. masses --      1.0353                 1.0624                 1.1041
 Frc consts  --      5.7626                 6.0221                 6.4388
 IR Inten    --      7.0403                15.1554                 0.9608

                     37                     38                     39
                      A                      A                      A
 Frequencies --   3152.5383              3168.0671              3836.9317
 Red. masses --      1.1012                 1.1061                 1.0667
 Frc consts  --      6.4482                 6.5411                 9.2522
 IR Inten    --     12.7557                24.1632               158.7290

 - Thermochemistry -
 -------------------
 Temperature   298.150 Kelvin.  Pressure   1.00000 Atm.
 Atom     1 has atomic number  6 and mass  12.00000

 Molecular mass:   115.03952 amu.
 Principal axes and moments of inertia in atomic units:
                           1         2         3
     Eigenvalues --   687.121731738.130222282.55019
           X            0.99906  -0.04333  -0.00256
           Y            0.04329   0.99896  -0.01398
           Z            0.00316   0.01386   0.99990
 This molecule is an asymmetric top.
 Rotational symmetry number  1.
 Warning -- assumption of classical behavior for rotation
           may cause significant error
 Rotational temperatures (Kelvin)      0.12605     0.04983     0.03795
 Rotational constants (GHZ):           2.62652     1.03832     0.79067
    1 imaginary frequencies ignored.
 Zero-point vibrational energy     282152.3 (Joules/Mol)
                                   67.43603 (Kcal/Mol)
 Warning -- explicit consideration of  14 degrees of freedom as
           vibrations may cause significant error
 Vibrational temperatures:     56.63    71.13   110.69   156.82   183.88
          (Kelvin)            242.82   326.53   350.21   482.01   516.30
                              596.84   797.73   836.04   888.39  1079.15
                             1098.12  1171.64  1368.33  1591.20  1628.63
                             1696.23  1791.24  1812.89  1939.69  2022.39
                             2061.39  2148.17  2160.95  2194.80  2556.29
                             2677.28  3230.08  4422.15  4462.62  4526.56
                             4535.80  4558.14  5520.49

 Zero-point correction=                           0.107466 (Hartree/Particle)
 Thermal correction to Energy=                    0.117767
 Thermal correction to Enthalpy=                  0.118711
 Thermal correction to Gibbs Free Energy=         0.069661
 Sum of electronic and zero-point Energies=           -419.3151876
 Sum of electronic and thermal Energies=              -420.049418
 Sum of electronic and thermal Enthalpies=            -420.048474
 Sum of electronic and thermal Free Energies=         -420.097524

                     E (Thermal)             CV                S
                      KCal/Mol        Cal/Mol-Kelvin    Cal/Mol-Kelvin
 Total                   73.900             33.207            103.234
 Electronic               0.000              0.000              1.377
 Translational            0.889              2.981             40.136
 Rotational               0.889              2.981             29.390
 Vibrational             72.122             27.246             32.331
 Vibration     1          0.594              1.981              5.291
 Vibration     2          0.595              1.978              4.840
 Vibration     3          0.599              1.965              3.968
 Vibration     4          0.606              1.942              3.287
 Vibration     5          0.611              1.925              2.979
 Vibration     6          0.625              1.881              2.449
 Vibration     7          0.651              1.800              1.903
 Vibration     8          0.659              1.774              1.778
 Vibration     9          0.716              1.606              1.236
 Vibration    10          0.734              1.557              1.127
 Vibration    11          0.778              1.438              0.910
 Vibration    12          0.910              1.130              0.535
 Vibration    13          0.938              1.072              0.483
 Vibration    14          0.977              0.995              0.421

 1\1\GINC-AJ\Freq\UM062X\6-311++G(d,p)\C5H7O3(2)\AAYUSH\29-Mar-2025\0\\
 # freq 6-311++g(d,p) m062x\\Title Card Required\\0,2\C,-1.650265,-0.31
 2841,-0.045268\H,-2.925143,-0.900634,0.027096\C,-0.619837,0.320695,-0.
 035078\C,0.654299,1.049163,0.022489\O,0.687387,2.198018,0.348019\O,1.7
 56144,0.380612,-0.317749\C,1.713823,-1.026987,-0.615291\C,1.767496,-1.
 851466,0.655287\H,0.826005,-1.251542,-1.209198\H,2.595274,-1.191187,-1
 .233005\H,2.65388,-1.593008,1.236123\H,0.881349,-1.682337,1.269152\H,1
 .811469,-2.913209,0.40474\O,-3.95512,-0.619473,-0.081268\H,-4.065189,0

 Normal termination of Gaussian 16 at Sat Mar 29 01:23:22 2025.
