 Gaussian 16, Revision A.03,
 Gaussian 16:  ES64L-G16RevA.03 25-Dec-2016

 --------------------------
 # ccsd(t)/6-311++g(d,p) sp
 --------------------------

 -------------------
 Title Card Required
 -------------------
 Symbolic Z-matrix:
 Charge =  0 Multiplicity = 2

                         Standard orientation:
 ---------------------------------------------------------------------
 Center     Atomic      Atomic             Coordinates (Angstroms)
 Number     Number       Type             X           Y           Z
 ---------------------------------------------------------------------
      1          6           0       -1.666526   -0.238865   -0.052580
      2          1           0       -2.892724   -0.804496    0.007788
      3          6           0       -0.636003    0.394972   -0.043216
      4          6           0        0.637686    1.125955    0.013889
      5          8           0        0.670297    2.274919    0.339360
      6          8           0        1.740733    0.458563   -0.326293
      7          6           0        1.699976   -0.949081   -0.623593
      8          6           0        1.754716   -1.773311    0.647120
      9          1           0        0.812323   -1.174843   -1.217274
     10          1           0        2.581540   -1.112562   -1.241366
     11          1           0        2.640897   -1.513769    1.227803
     12          1           0        0.868485   -1.604885    1.261065
     13          1           0        1.799748   -2.835088    0.396891
     14          8           0       -3.969273   -0.547666   -0.088336
     15          1           0       -4.083428    0.201084    0.517523
 ---------------------------------------------------------------------

 SCF Done:  E(UHF) =  -417.924349500     A.U. after   36 cycles
 E2 =    -0.1273237398D+01 EUMP2 =    -0.41919758689776D+03
 CCSD(T)= -0.41931600752D+03

 The electronic state is 2-A.
 Alpha  occ. eigenvalues --  -20.66776 -20.61272 -20.55469 -11.41770 -11.30722
 Alpha  occ. eigenvalues --  -11.30212 -11.25951 -11.23604  -1.47714  -1.44688
 Alpha  occ. eigenvalues --   -1.37882  -1.08076  -1.05306  -0.92037  -0.87886
 Alpha  occ. eigenvalues --   -0.82461  -0.74833  -0.71133  -0.69362  -0.66898
 Alpha  occ. eigenvalues --   -0.63405  -0.60299  -0.58707  -0.57610  -0.55349
 Alpha  occ. eigenvalues --   -0.54931  -0.51268  -0.47877  -0.46583  -0.44399
 Alpha  occ. eigenvalues --   -0.43827
 Alpha virt. eigenvalues --    0.03508   0.04293   0.05567   0.06063   0.07413
 Alpha virt. eigenvalues --    0.08491   0.08970   0.09170   0.10991   0.12391
 Alpha virt. eigenvalues --    0.13128   0.13724   0.14710   0.15630   0.15983

  Beta  occ. eigenvalues --  -20.63808 -20.61212 -20.56163 -11.41303 -11.30739
  Beta  occ. eigenvalues --  -11.27535 -11.26148 -11.23605  -1.47947  -1.38930
  Beta  occ. eigenvalues --   -1.34226  -1.06934  -1.05281  -0.91055  -0.86147
  Beta  occ. eigenvalues --   -0.75249  -0.74133  -0.70014  -0.67071  -0.63749
  Beta  occ. eigenvalues --   -0.60636  -0.59000  -0.56425  -0.55332  -0.54484
  Beta  occ. eigenvalues --   -0.51402  -0.48722  -0.47213  -0.43569  -0.43022
  Beta virt. eigenvalues --   -0.01372   0.03935   0.04964   0.05583   0.06130
  Beta virt. eigenvalues --    0.07502   0.08633   0.09004   0.10503   0.11088
  Beta virt. eigenvalues --    0.12538   0.13140   0.13833   0.15204   0.15606

 Mulliken charges and spin densities:
               1          2
     1  C   -0.470626   1.483889
     2  H    0.424091  -0.172907
     3  C    0.598546  -0.931569
     4  C   -0.239496   0.168510
     5  O   -0.326641  -0.147226
     6  O   -0.148965  -0.000625
     7  C   -0.213324  -0.005948
     8  C   -0.410571  -0.001128
     9  H    0.136410   0.005186
    10  H    0.178305  -0.000265
    11  H    0.171005   0.000799
    12  H    0.123763   0.002635
    13  H    0.126478  -0.000891
    14  O   -0.230468   0.627000
    15  H    0.281495  -0.027460
 Sum of Mulliken charges =  -0.00000   1.00000

 Dipole moment (field-independent basis, Debye):
    X=             -1.4906    Y=             -3.8845    Z=              0.3038  Tot=              4.1717
 Quadrupole moment (field-independent basis, Debye-Ang):
   XX=            -42.3690   YY=            -55.3010   ZZ=            -47.1229
   XY=             -9.2904   XZ=             -5.9009   YZ=             -0.4779

 P3-0=-419.2411851\MP4SDQ=-419.2516545\CCSD=-419.2598331\CCSD(T)=-419.3
 Normal termination of Gaussian 16 at Fri May  2 00:12:48 2025.
