 Gaussian 16, Revision A.03,
 Gaussian 16:  ES64L-G16RevA.03 25-Dec-2016

 --------------------------
 # ccsd(t)/6-311++g(d,p) sp
 --------------------------

 -------------------
 Title Card Required
 -------------------
 Symbolic Z-matrix:
 Charge =  0 Multiplicity = 2

                         Standard orientation:
 ---------------------------------------------------------------------
 Center     Atomic      Atomic             Coordinates (Angstroms)
 Number     Number       Type             X           Y           Z
 ---------------------------------------------------------------------
      1          6           0       -1.669573   -0.241860   -0.051225
      2          1           0       -2.763790   -0.779528   -0.005792
      3          6           0       -0.639185    0.391592   -0.043073
      4          6           0        0.633941    1.126361    0.013621
      5          8           0        0.666715    2.275486    0.339157
      6          8           0        1.738990    0.460265   -0.326428
      7          6           0        1.700042   -0.947318   -0.623533
      8          6           0        1.755920   -1.771407    0.647278
      9          1           0        0.812662   -1.174470   -1.217010
     10          1           0        2.581826   -1.109996   -1.241287
     11          1           0        2.641848   -1.510663    1.227836
     12          1           0        0.869538   -1.603779    1.261212
     13          1           0        1.802231   -2.833215    0.397267
     14          8           0       -3.973247   -0.552456   -0.087312
     15          1           0       -4.090840    0.201092    0.516027
 ---------------------------------------------------------------------

 SCF Done:  E(UHF) =  -417.939283958     A.U. after   41 cycles
 E2 =    -0.1273120778D+01 EUMP2 =    -0.41921240473569D+03
 CCSD(T)= -0.41932254427D+03

 The electronic state is 2-A.
 Alpha  occ. eigenvalues --  -20.68790 -20.60929 -20.55027 -11.41325 -11.30369
 Alpha  occ. eigenvalues --  -11.27772 -11.25438 -11.23286  -1.47317  -1.46216
 Alpha  occ. eigenvalues --   -1.37596  -1.06802  -1.04956  -0.91564  -0.87639
 Alpha  occ. eigenvalues --   -0.82725  -0.74462  -0.73415  -0.69037  -0.66506
 Alpha  occ. eigenvalues --   -0.63110  -0.62581  -0.58577  -0.57648  -0.55124
 Alpha  occ. eigenvalues --   -0.54623  -0.50924  -0.47289  -0.45903  -0.42810
 Alpha  occ. eigenvalues --   -0.42527
 Alpha virt. eigenvalues --    0.03356   0.04225   0.05714   0.06079   0.07511
 Alpha virt. eigenvalues --    0.08662   0.09098   0.09561   0.11161   0.12618
 Alpha virt. eigenvalues --    0.13218   0.13989   0.14886   0.15719   0.16150

  Beta  occ. eigenvalues --  -20.65031 -20.60891 -20.55485 -11.41026 -11.30380
  Beta  occ. eigenvalues --  -11.26516 -11.25403 -11.23286  -1.47465  -1.38289
  Beta  occ. eigenvalues --   -1.32420  -1.06209  -1.04929  -0.90849  -0.86197
  Beta  occ. eigenvalues --   -0.75400  -0.74048  -0.69446  -0.66634  -0.64037
  Beta  occ. eigenvalues --   -0.63003  -0.58506  -0.56056  -0.55811  -0.54673
  Beta  occ. eigenvalues --   -0.51006  -0.47993  -0.46611  -0.42364  -0.42031
  Beta virt. eigenvalues --    0.00472   0.04064   0.05017   0.05705   0.06182
  Beta virt. eigenvalues --    0.07557   0.08704   0.09176   0.10421   0.11209
  Beta virt. eigenvalues --    0.12725   0.13257   0.14005   0.15344   0.15790

 Mulliken charges and spin densities:
               1          2
     1  C   -0.517062   0.888005
     2  H    0.448784  -0.118594
     3  C    0.550885  -0.603421
     4  C   -0.240778   0.110074
     5  O   -0.335428  -0.096983
     6  O   -0.149322  -0.000075
     7  C   -0.206634  -0.004026
     8  C   -0.413328  -0.000557
     9  H    0.137232   0.003086
    10  H    0.177384  -0.000142
    11  H    0.169645   0.000479
    12  H    0.125818   0.001439
    13  H    0.124360  -0.000515
    14  O   -0.154301   0.856189
    15  H    0.282745  -0.034960
 Sum of Mulliken charges =  -0.00000   1.00000

 Dipole moment (field-independent basis, Debye):
    X=             -2.3886    Y=             -3.9920    Z=              0.2871  Tot=              4.6609
 Quadrupole moment (field-independent basis, Debye-Ang):
   XX=            -37.5938   YY=            -55.6689   ZZ=            -47.2723
   XY=             -8.6710   XZ=             -5.8957   YZ=             -0.4929

 MP3-0=-419.2458318\MP4SDQ=-419.2641323\CCSD=-419.2673691\CCSD(T)=-419.
 Normal termination of Gaussian 16 at Fri May  2 01:08:41 2025.
