 Gaussian 16, Revision A.03,
 Gaussian 16:  ES64L-G16RevA.03 25-Dec-2016

 --------------------------
 # ccsd(t)/6-311++g(d,p) sp
 --------------------------

 -------------------
 Title Card Required
 -------------------
 Symbolic Z-matrix:
 Charge =  0 Multiplicity = 2

                         Standard orientation:
 ---------------------------------------------------------------------
 Center     Atomic      Atomic             Coordinates (Angstroms)
 Number     Number       Type             X           Y           Z
 ---------------------------------------------------------------------
      1          6           0       -1.658505   -0.230875   -0.057236
      2          1           0       -3.053262   -0.909528    0.073040
      3          6           0       -0.629134    0.403338   -0.044290
      4          6           0        0.645256    1.125513    0.014893
      5          8           0        0.678613    2.274226    0.340418
      6          8           0        1.744397    0.454523   -0.325812
      7          6           0        1.698609   -0.952969   -0.623965
      8          6           0        1.750067   -1.778006    0.646330
      9          1           0        0.810452   -1.175069   -1.218262
     10          1           0        2.579848   -1.118881   -1.241459
     11          1           0        2.636761   -1.521658    1.227612
     12          1           0        0.864122   -1.607306    1.260090
     13          1           0        1.791882   -2.839737    0.395426
     14          8           0       -3.973174   -0.532559   -0.094394
     15          1           0       -4.066253    0.200647    0.527468
 ---------------------------------------------------------------------

 SCF Done:  E(UHF) =  -417.928305087     A.U. after   34 cycles
 E2 =    -0.1265641478D+01 EUMP2 =    -0.41919394656514D+03
 CCSD(T)= -0.41931596467D+03

 The electronic state is 2-A.
 Alpha  occ. eigenvalues --  -20.61915 -20.61464 -20.56240 -11.42505 -11.32891
 Alpha  occ. eigenvalues --  -11.31337 -11.27202 -11.24171  -1.48434  -1.40532
 Alpha  occ. eigenvalues --   -1.38529  -1.10026  -1.05922  -0.92859  -0.88506
 Alpha  occ. eigenvalues --   -0.80035  -0.75490  -0.70031  -0.67808  -0.67369
 Alpha  occ. eigenvalues --   -0.63997  -0.59232  -0.58107  -0.56201  -0.55552
 Alpha  occ. eigenvalues --   -0.55304  -0.51895  -0.49320  -0.48163  -0.46050
 Alpha  occ. eigenvalues --   -0.44967
 Alpha virt. eigenvalues --    0.03367   0.04553   0.05310   0.06026   0.07215
 Alpha virt. eigenvalues --    0.07882   0.08712   0.08774   0.10733   0.12012
 Alpha virt. eigenvalues --    0.12910   0.13282   0.14332   0.15364   0.15743

  Beta  occ. eigenvalues --  -20.61833 -20.59954 -20.57098 -11.41920 -11.31359
  Beta  occ. eigenvalues --  -11.29047 -11.27437 -11.24172  -1.48721  -1.39816
  Beta  occ. eigenvalues --   -1.35527  -1.08172  -1.05905  -0.91630  -0.86647
  Beta  occ. eigenvalues --   -0.75737  -0.73525  -0.70832  -0.67805  -0.64436
  Beta  occ. eigenvalues --   -0.59764  -0.59423  -0.57198  -0.55774  -0.52802
  Beta  occ. eigenvalues --   -0.52061  -0.49781  -0.48007  -0.45182  -0.44504
  Beta virt. eigenvalues --   -0.01450   0.03733   0.05065   0.05759   0.06028
  Beta virt. eigenvalues --    0.07420   0.08419   0.08767   0.10406   0.10832
  Beta virt. eigenvalues --    0.12178   0.13048   0.13612   0.14952   0.15376

 Mulliken charges and spin densities:
               1          2
     1  C   -0.374582   1.964595
     2  H    0.360577  -0.106700
     3  C    0.670740  -1.128274
     4  C   -0.226420   0.208609
     5  O   -0.315317  -0.183231
     6  O   -0.147175  -0.000605
     7  C   -0.223725  -0.005390
     8  C   -0.406838  -0.001950
     9  H    0.135874   0.006761
    10  H    0.179920  -0.000154
    11  H    0.173293   0.000951
    12  H    0.119475   0.003766
    13  H    0.129943  -0.001226
    14  O   -0.351762   0.256941
    15  H    0.275998  -0.014093
 Sum of Mulliken charges =  -0.00000   1.00000

 Dipole moment (field-independent basis, Debye):
    X=              0.0981    Y=             -3.9367    Z=              0.4421  Tot=              3.9626
 Quadrupole moment (field-independent basis, Debye-Ang):
   XX=            -51.2634   YY=            -54.3706   ZZ=            -46.8759
   XY=             -9.5760   XZ=             -6.3704   YZ=             -0.5906

 P3-0=-419.2404687\MP4SDQ=-419.2479969\CCSD=-419.2601273\CCSD(T)=-419.3
 Normal termination of Gaussian 16 at Sun May  4 18:07:25 2025.
