 Gaussian 16, Revision A.03,
 Gaussian 16:  ES64L-G16RevA.03 25-Dec-2016

 --------------------------
 # ccsd(t)/6-311++g(d,p) sp
 --------------------------

 -------------------
 Title Card Required
 -------------------
 Symbolic Z-matrix:
 Charge =  0 Multiplicity = 2

                         Standard orientation:
 ---------------------------------------------------------------------
 Center     Atomic      Atomic             Coordinates (Angstroms)
 Number     Number       Type             X           Y           Z
 ---------------------------------------------------------------------
      1          6           0       -1.662491   -0.235093   -0.054446
      2          1           0       -2.981334   -0.850584    0.034090
      3          6           0       -0.632627    0.399042   -0.043603
      4          6           0        0.641433    1.125674    0.014191
      5          8           0        0.674208    2.274533    0.339541
      6          8           0        1.742444    0.456634   -0.326221
      7          6           0        1.699383   -0.951002   -0.623756
      8          6           0        1.752731   -1.775461    0.646833
      9          1           0        0.811442   -1.175070   -1.217668
     10          1           0        2.580728   -1.115536   -1.241505
     11          1           0        2.639218   -1.517371    1.227664
     12          1           0        0.866667   -1.606045    1.260749
     13          1           0        1.796281   -2.837209    0.396261
     14          8           0       -3.970175   -0.540930   -0.090398
     15          1           0       -4.075395    0.200961    0.521724
 ---------------------------------------------------------------------

 SCF Done:  E(UHF) =  -417.924185825     A.U. after   34 cycles
 E2 =    -0.1269734748D+01 EUMP2 =    -0.41919392057276D+03
 CCSD(T)= -0.41931511210D+03

 The electronic state is 2-A.
 Alpha  occ. eigenvalues --  -20.63217 -20.61773 -20.56085 -11.42368 -11.32295
 Alpha  occ. eigenvalues --  -11.31189 -11.26961 -11.24025  -1.48273  -1.41768
 Alpha  occ. eigenvalues --   -1.38390  -1.09581  -1.05770  -0.92679  -0.88380
 Alpha  occ. eigenvalues --   -0.81114  -0.75338  -0.69890  -0.68409  -0.67409
 Alpha  occ. eigenvalues --   -0.63875  -0.59114  -0.58017  -0.57025  -0.55722
 Alpha  occ. eigenvalues --   -0.55396  -0.51745  -0.48943  -0.47782  -0.45745
 Alpha  occ. eigenvalues --   -0.44766
 Alpha virt. eigenvalues --    0.03450   0.04507   0.05373   0.06031   0.07266
 Alpha virt. eigenvalues --    0.08024   0.08845   0.08861   0.10783   0.12106
 Alpha virt. eigenvalues --    0.12959   0.13413   0.14423   0.15417   0.15816

  Beta  occ. eigenvalues --  -20.61697 -20.61156 -20.56902 -11.41812 -11.31210
  Beta  occ. eigenvalues --  -11.28757 -11.27208 -11.24026  -1.48548  -1.39615
  Beta  occ. eigenvalues --   -1.34804  -1.07917  -1.05754  -0.91501  -0.86557
  Beta  occ. eigenvalues --   -0.75595  -0.73386  -0.70647  -0.67634  -0.64275
  Beta  occ. eigenvalues --   -0.59605  -0.59317  -0.57010  -0.55629  -0.53348
  Beta  occ. eigenvalues --   -0.51904  -0.49537  -0.47823  -0.44833  -0.44191
  Beta virt. eigenvalues --   -0.01732   0.03776   0.05101   0.05620   0.06050
  Beta virt. eigenvalues --    0.07421   0.08478   0.08889   0.10383   0.10881
  Beta virt. eigenvalues --    0.12261   0.13030   0.13660   0.15000   0.15413

 Mulliken charges and spin densities:
               1          2
     1  C   -0.400806   1.834688
     2  H    0.387360  -0.147828
     3  C    0.644287  -1.083320
     4  C   -0.232773   0.199237
     5  O   -0.317803  -0.174163
     6  O   -0.147489  -0.000617
     7  C   -0.220421  -0.005795
     8  C   -0.407589  -0.001775
     9  H    0.135475   0.006331
    10  H    0.179912  -0.000202
    11  H    0.172742   0.000915
    12  H    0.120822   0.003477
    13  H    0.129057  -0.001113
    14  O   -0.319244   0.388967
    15  H    0.276472  -0.018802
 Sum of Mulliken charges =  -0.00000   1.00000

 Dipole moment (field-independent basis, Debye):
    X=             -0.3091    Y=             -3.8362    Z=              0.3575  Tot=              3.8652
 Quadrupole moment (field-independent basis, Debye-Ang):
   XX=            -48.7407   YY=            -54.7522   ZZ=            -46.9481
   XY=             -9.7702   XZ=             -6.0794   YZ=             -0.5072

 96\PMP3-0=-419.240678\MP4SDQ=-419.2479815\CCSD=-419.258959\CCSD(T)=-41
 Normal termination of Gaussian 16 at Fri May  2 05:53:12 2025.
