 Gaussian 16, Revision A.03,
 Gaussian 16:  ES64L-G16RevA.03 25-Dec-2016

 --------------------------
 # freq 6-311++g(d,p) m062x
 --------------------------

 -------------------
 Title Card Required
 -------------------
 Symbolic Z-matrix:
 Charge =  0 Multiplicity = 2

                         Standard orientation:
 ---------------------------------------------------------------------
 Center     Atomic      Atomic             Coordinates (Angstroms)
 Number     Number       Type             X           Y           Z
 ---------------------------------------------------------------------
      1          6           0       -1.669573   -0.241860   -0.051225
      2          1           0       -2.763790   -0.779528   -0.005792
      3          6           0       -0.639185    0.391592   -0.043073
      4          6           0        0.633941    1.126361    0.013621
      5          8           0        0.666715    2.275486    0.339157
      6          8           0        1.738990    0.460265   -0.326428
      7          6           0        1.700042   -0.947318   -0.623533
      8          6           0        1.755920   -1.771407    0.647278
      9          1           0        0.812662   -1.174470   -1.217010
     10          1           0        2.581826   -1.109996   -1.241287
     11          1           0        2.641848   -1.510663    1.227836
     12          1           0        0.869538   -1.603779    1.261212
     13          1           0        1.802231   -2.833215    0.397267
     14          8           0       -3.973247   -0.552456   -0.087312
     15          1           0       -4.090840    0.201092    0.516027
 ---------------------------------------------------------------------

 SCF Done:  E(UM062X) =  -420.172267196     A.U. after   22 cycles

 The electronic state is 2-A.
 Alpha  occ. eigenvalues --  -19.71911 -19.68336 -19.62934 -10.70955 -10.61411
 Alpha  occ. eigenvalues --  -10.58979 -10.57995 -10.54582  -1.25338  -1.19559
 Alpha  occ. eigenvalues --   -1.16785  -0.89607  -0.88658  -0.77512  -0.73971
 Alpha  occ. eigenvalues --   -0.68175  -0.63771  -0.58989  -0.58431  -0.56916
 Alpha  occ. eigenvalues --   -0.53239  -0.49739  -0.48097  -0.47420  -0.46329
 Alpha  occ. eigenvalues --   -0.44844  -0.42515  -0.39932  -0.38784  -0.37458
 Alpha  occ. eigenvalues --   -0.36443
 Alpha virt. eigenvalues --   -0.02255  -0.01074  -0.00134   0.01428   0.01482
 Alpha virt. eigenvalues --    0.03078   0.04321   0.04781   0.05168   0.05893
 Alpha virt. eigenvalues --    0.07206   0.07556   0.08158   0.09439   0.10052

  Beta  occ. eigenvalues --  -19.70568 -19.68339 -19.62922 -10.70948 -10.61411
  Beta  occ. eigenvalues --  -10.58441 -10.57914 -10.54582  -1.25330  -1.16762
  Beta  occ. eigenvalues --   -1.13974  -0.88901  -0.88488  -0.77264  -0.73261
  Beta  occ. eigenvalues --   -0.64394  -0.63034  -0.58417  -0.56944  -0.54070
  Beta  occ. eigenvalues --   -0.53023  -0.49728  -0.47409  -0.46187  -0.44273
  Beta  occ. eigenvalues --   -0.42536  -0.39521  -0.38516  -0.37035  -0.36236
  Beta virt. eigenvalues --   -0.16228  -0.01797  -0.00710   0.00036   0.01495
  Beta virt. eigenvalues --    0.01625   0.03128   0.04507   0.04947   0.05619
  Beta virt. eigenvalues --    0.05938   0.07290   0.07688   0.08286   0.09549

 Mulliken charges and spin densities:
               1          2
     1  C   -0.497218   0.334825
     2  H    0.423722  -0.029581
     3  C    0.507320   0.002553
     4  C   -0.299331  -0.017267
     5  O   -0.249668   0.003180
     6  O   -0.031520  -0.000004
     7  C   -0.351672  -0.004001
     8  C   -0.407072   0.002118
     9  H    0.161909   0.000638
    10  H    0.204555   0.000063
    11  H    0.187528   0.000071
    12  H    0.138765  -0.000100
    13  H    0.155272  -0.000169
    14  O   -0.215667   0.725170
    15  H    0.273080  -0.017496
 Sum of Mulliken charges =  -0.00000   1.00000

 Dipole moment (field-independent basis, Debye):
    X=             -1.2358    Y=             -3.4476    Z=              0.3239  Tot=              3.6767
 Quadrupole moment (field-independent basis, Debye-Ang):
   XX=            -41.7479   YY=            -54.3807   ZZ=            -47.2446
   XY=             -8.9211   XZ=             -5.6645   YZ=             -0.3880

  Exact polarizability: 113.533  11.757  75.331  -1.869   3.284  50.856
 Approx polarizability: 108.721  18.213  91.435  -0.963   7.127  59.974

 ******    3 imaginary frequencies (negative Signs) ******

                      1                      2                      3
                      A                      A                      A
 Frequencies --  -1347.2809              -155.0091               -78.2402
 Red. masses --      1.0871                 2.5936                 6.7898
 Frc consts  --      1.1626                 0.0367                 0.0245
 IR Inten    --    412.4391                14.5849                 6.9767

                      4                      5                      6
                      A                      A                      A
 Frequencies --     75.3208               106.0294               152.9238
 Red. masses --      3.7904                 3.7543                 2.0395
 Frc consts  --      0.0127                 0.0249                 0.0281
 IR Inten    --      0.5002                 0.1126                51.7534

                      7                      8                      9
                      A                      A                      A
 Frequencies --    185.1090               229.3677               271.1611
 Red. masses --      1.8615                 1.2072                 4.5976
 Frc consts  --      0.0376                 0.0374                 0.1992
 IR Inten    --     48.9809                 0.5498                16.1918

                     10                     11                     12
                      A                      A                      A
 Frequencies --    361.4865               403.6970               447.7418
 Red. masses --      2.9249                 4.7292                 4.2936
 Frc consts  --      0.2252                 0.4541                 0.5071
 IR Inten    --      1.2389                 6.1324                 5.9852

                     13                     14                     15
                      A                      A                      A
 Frequencies --    582.8362               631.9992               702.8731
 Red. masses --      4.3209                 6.8140                 1.3432
 Frc consts  --      0.8648                 1.6036                 0.3910
 IR Inten    --      4.0236                 8.4275               160.9399

                     16                     17                     18
                      A                      A                      A
 Frequencies --    755.3518               766.4552               813.5373
 Red. masses --      4.2179                 5.6905                 1.1522
 Frc consts  --      1.4179                 1.9696                 0.4493
 IR Inten    --      2.5350                36.9611                 9.5130

                     19                     20                     21
                      A                      A                      A
 Frequencies --    933.5385               967.0121              1107.1270
 Red. masses --      1.6259                 1.7519                 3.2972
 Frc consts  --      0.8349                 0.9652                 2.3812
 IR Inten    --     88.7473                32.5084                46.0906

                     22                     23                     24
                      A                      A                      A
 Frequencies --   1132.7800              1179.6198              1260.3094
 Red. masses --      2.5813                 1.9181                 2.9481
 Frc consts  --      1.9516                 1.5725                 2.7590
 IR Inten    --     46.4468                67.1675               425.4108

                     25                     26                     27
                      A                      A                      A
 Frequencies --   1348.1072              1404.7200              1431.1075
 Red. masses --      1.2413                 1.2580                 1.3245
 Frc consts  --      1.3292                 1.4625                 1.5983
 IR Inten    --    117.0293                20.8630                 7.8384

                     28                     29                     30
                      A                      A                      A
 Frequencies --   1448.3623              1492.9803              1502.1100
 Red. masses --      1.1900                 1.0401                 1.0469
 Frc consts  --      1.4708                 1.3659                 1.3918
 IR Inten    --    121.4400                 3.2187                 4.0257

                     31                     32                     33
                      A                      A                      A
 Frequencies --   1525.4665              1861.0399              2304.1017
 Red. masses --      1.1012                12.9823                 9.6858
 Frc consts  --      1.5099                26.4920                30.2962
 IR Inten    --     20.9620               507.9291                25.8115

                     34                     35                     36
                      A                      A                      A
 Frequencies --   3073.2739              3101.7614              3145.7444
 Red. masses --      1.0353                 1.0622                 1.1042
 Frc consts  --      5.7615                 6.0212                 6.4379
 IR Inten    --      7.4063                15.3094                 0.8370

                     37                     38                     39
                      A                      A                      A
 Frequencies --   3151.9744              3167.6274              3789.5210
 Red. masses --      1.1012                 1.1062                 1.0667
 Frc consts  --      6.4457                 6.5397                 9.0255
 IR Inten    --     13.5719                24.3448               105.4981

 - Thermochemistry -
 -------------------
 Temperature   298.150 Kelvin.  Pressure   1.00000 Atm.
 Atom     1 has atomic number  6 and mass  12.00000

 Molecular mass:   115.03952 amu.
 Principal axes and moments of inertia in atomic units:
                           1         2         3
     Eigenvalues --   686.743931736.896252281.00511
           X            0.99902  -0.04428  -0.00231
           Y            0.04425   0.99893  -0.01379
           Z            0.00292   0.01367   0.99990
 This molecule is an asymmetric top.
 Rotational symmetry number  1.
 Warning -- assumption of classical behavior for rotation
           may cause significant error
 Rotational temperatures (Kelvin)      0.12612     0.04987     0.03797
 Rotational constants (GHZ):           2.62797     1.03906     0.79120
    3 imaginary frequencies ignored.
 Zero-point vibrational energy     280010.9 (Joules/Mol)
                                   66.92422 (Kcal/Mol)
 Warning -- explicit consideration of  10 degrees of freedom as
           vibrations may cause significant error
 Vibrational temperatures:    108.37   152.55   220.02   266.33   330.01
          (Kelvin)            390.14   520.10   580.83   644.20   838.57
                              909.31  1011.28  1086.78  1102.76  1170.50
                             1343.15  1391.31  1592.91  1629.82  1697.21
                             1813.30  1939.63  2021.08  2059.04  2083.87
                             2148.07  2161.20  2194.81  2677.62  3315.09
                             4421.76  4462.74  4526.02  4534.99  4557.51
                             5452.28

 Zero-point correction=                           0.106651 (Hartree/Particle)
 Thermal correction to Energy=                    0.114997
 Thermal correction to Enthalpy=                  0.115941
 Thermal correction to Gibbs Free Energy=         0.072281
 Sum of electronic and zero-point Energies=           -419.3225443
 Sum of electronic and thermal Energies=              -420.057270
 Sum of electronic and thermal Enthalpies=            -420.056326
 Sum of electronic and thermal Free Energies=         -420.099987

                     E (Thermal)             CV                S
                      KCal/Mol        Cal/Mol-Kelvin    Cal/Mol-Kelvin
 Total                   72.162             28.898             91.892
 Electronic               0.000              0.000              1.377
 Translational            0.889              2.981             40.136
 Rotational               0.889              2.981             29.388
 Vibrational             70.384             22.936             20.991
 Vibration     1          0.599              1.965              4.009
 Vibration     2          0.605              1.944              3.340
 Vibration     3          0.619              1.899              2.636
 Vibration     4          0.631              1.860              2.276
 Vibration     5          0.652              1.796              1.884
 Vibration     6          0.675              1.726              1.589
 Vibration     7          0.736              1.552              1.116
 Vibration     8          0.769              1.462              0.949
 Vibration     9          0.807              1.366              0.803
 Vibration    10          0.940              1.068              0.480

 Normal termination of Gaussian 16 at Fri Mar 28 02:45:08 2025.
