 Gaussian 16, Revision A.03,
 Gaussian 16:  ES64L-G16RevA.03 25-Dec-2016

 --------------------------
 # freq 6-311++g(d,p) m062x
 --------------------------

 -------------------
 Title Card Required
 -------------------
 Symbolic Z-matrix:
 Charge =  0 Multiplicity = 2

                         Standard orientation:
 ---------------------------------------------------------------------
 Center     Atomic      Atomic             Coordinates (Angstroms)
 Number     Number       Type             X           Y           Z
 ---------------------------------------------------------------------
      1          6           0        2.515033    1.229937   -0.679923
      2          1           0        3.144342    2.027296   -1.000921
      3          6           0        1.813455    0.327545   -0.318262
      4          6           0        1.029580   -0.817713    0.144456
      5          8           0        1.535095   -1.847448    0.469030
      6          8           0       -0.304139   -0.654166    0.188050
      7          6           0       -0.912750    0.577256   -0.195138
      8          6           0       -1.055311    1.529795    0.962768
      9          1           0       -0.421038    1.000054   -1.073032
     10          1           0       -1.956326    0.265899   -0.543438
     11          1           0       -1.577575    1.041767    1.786693
     12          1           0       -0.073752    1.862053    1.310920
     13          1           0       -1.628770    2.404957    0.653273
     14          8           0       -3.119746   -0.537366   -0.685629
     15          1           0       -2.716600   -1.371111   -0.388509
 ---------------------------------------------------------------------

 SCF Done:  E(UM062X) =  -420.192212048     A.U. after   22 cycles

 The electronic state is 2-A.
 Alpha  occ. eigenvalues --  -19.69513 -19.67331 -19.63891 -10.71824 -10.62810
 Alpha  occ. eigenvalues --  -10.58722 -10.58274 -10.55271  -1.26428  -1.17976
 Alpha  occ. eigenvalues --   -1.13819  -0.90419  -0.89730  -0.78542  -0.74763
 Alpha  occ. eigenvalues --   -0.65897  -0.62720  -0.61151  -0.57955  -0.56498
 Alpha  occ. eigenvalues --   -0.54270  -0.50787  -0.50184  -0.48197  -0.45892
 Alpha  occ. eigenvalues --   -0.42744  -0.41119  -0.40702  -0.38497  -0.37935
 Alpha  occ. eigenvalues --   -0.36367
 Alpha virt. eigenvalues --   -0.03017  -0.00915   0.00444   0.01228   0.01446
 Alpha virt. eigenvalues --    0.02858   0.03484   0.04382   0.05393   0.05992
 Alpha virt. eigenvalues --    0.06673   0.07451   0.08530   0.09337   0.09917

  Beta  occ. eigenvalues --  -19.69510 -19.65932 -19.63887 -10.71813 -10.62496
  Beta  occ. eigenvalues --  -10.58719 -10.58274 -10.55274  -1.26353  -1.17880
  Beta  occ. eigenvalues --   -1.07928  -0.90310  -0.89048  -0.78228  -0.74453
  Beta  occ. eigenvalues --   -0.65296  -0.62560  -0.59021  -0.57739  -0.54813
  Beta  occ. eigenvalues --   -0.52122  -0.50533  -0.48242  -0.46858  -0.43128
  Beta  occ. eigenvalues --   -0.40697  -0.39759  -0.39367  -0.38348  -0.37326
  Beta virt. eigenvalues --   -0.11374  -0.02978  -0.00881   0.00618   0.01372
  Beta virt. eigenvalues --    0.01515   0.02921   0.03575   0.04536   0.05441
  Beta virt. eigenvalues --    0.06105   0.06748   0.07572   0.08653   0.09370

 Mulliken charges and spin densities:
               1          2
     1  C   -1.308237   0.017482
     2  H    0.203441   0.000051
     3  C    1.516592  -0.011078
     4  C   -0.192852  -0.000394
     5  O   -0.241954   0.002319
     6  O   -0.062090  -0.004600
     7  C   -0.505349   0.258988
     8  C   -0.380004  -0.000835
     9  H    0.196087  -0.002232
    10  H    0.297736  -0.039228
    11  H    0.202875   0.002057
    12  H    0.146125   0.014025
    13  H    0.170816   0.000142
    14  O   -0.304995   0.779993
    15  H    0.261810  -0.016690
 Sum of Mulliken charges =  -0.00000   1.00000

 Dipole moment (field-independent basis, Debye):
    X=              0.8250    Y=              3.7691    Z=             -0.5668  Tot=              3.8997
 Quadrupole moment (field-independent basis, Debye-Ang):
   XX=            -52.1935   YY=            -46.4001   ZZ=            -48.0334
   XY=              9.3316   XZ=             -5.5341   YZ=              0.3567

  Exact polarizability:  96.279  13.508  79.979   1.518  -3.694  54.060
 Approx polarizability:  93.873  13.579  97.468  -0.792 -11.307  62.963

 ******    2 imaginary frequencies (negative Signs) ******

                      1                      2                      3
                      A                      A                      A
 Frequencies --   -620.3761               -40.5247                38.3699
 Red. masses --      1.9133                 5.2574                 5.8704
 Frc consts  --      0.4338                 0.0051                 0.0051
 IR Inten    --    642.4033                 0.4225                12.9529

                      4                      5                      6
                      A                      A                      A
 Frequencies --     76.5505                83.9401               155.7830
 Red. masses --      2.7489                 5.4403                 3.0703
 Frc consts  --      0.0095                 0.0226                 0.0439
 IR Inten    --      0.7338                 5.5752                 2.1680

                      7                      8                      9
                      A                      A                      A
 Frequencies --    217.1986               224.6378               258.8255
 Red. masses --      1.1339                 1.1609                 4.7090
 Frc consts  --      0.0315                 0.0345                 0.1859
 IR Inten    --      6.3596               100.1399                 0.5238

                     10                     11                     12
                      A                      A                      A
 Frequencies --    313.3665               401.8765               551.0317
 Red. masses --      3.5393                 3.3867                 5.4066
 Frc consts  --      0.2048                 0.3223                 0.9672
 IR Inten    --      8.9066                 9.5948                 3.4532

                     13                     14                     15
                      A                      A                      A
 Frequencies --    617.1575               707.7438               736.4909
 Red. masses --      4.2089                 1.6970                 1.3268
 Frc consts  --      0.9445                 0.5008                 0.4240
 IR Inten    --      1.2498               101.0775                33.9857

                     16                     17                     18
                      A                      A                      A
 Frequencies --    762.7549               776.7584               783.0056
 Red. masses --     12.0346                 1.2880                 2.0578
 Frc consts  --      4.1253                 0.4579                 0.7433
 IR Inten    --     20.5989                40.3472                79.3117

                     19                     20                     21
                      A                      A                      A
 Frequencies --    793.5020               962.9485              1103.2573
 Red. masses --      1.4083                 2.2678                 3.0571
 Frc consts  --      0.5224                 1.2390                 2.1924
 IR Inten    --      3.8852                32.0566               180.8305

                     22                     23                     24
                      A                      A                      A
 Frequencies --   1122.5508              1162.5093              1249.6587
 Red. masses --      2.0400                 2.3043                 4.1409
 Frc consts  --      1.5146                 1.8348                 3.8101
 IR Inten    --     96.6641                47.6148               466.9386

                     25                     26                     27
                      A                      A                      A
 Frequencies --   1269.3899              1368.5045              1399.6696
 Red. masses --      1.4622                 1.1961                 1.1490
 Frc consts  --      1.3882                 1.3198                 1.3262
 IR Inten    --    618.0252                20.8106               136.2565

                     28                     29                     30
                      A                      A                      A
 Frequencies --   1426.3321              1484.8225              1492.5499
 Red. masses --      1.2860                 1.0401                 1.0488
 Frc consts  --      1.5414                 1.3511                 1.3765
 IR Inten    --     94.8982                 6.1569                 8.0472

                     31                     32                     33
                      A                      A                      A
 Frequencies --   1785.5616              1879.5262              2254.1898
 Red. masses --      1.2121                 8.0379                 5.7241
 Frc consts  --      2.2769                16.7297                17.1371
 IR Inten    --    959.7541               485.4619                61.1265

                     34                     35                     36
                      A                      A                      A
 Frequencies --   3065.9222              3117.9066              3142.3769
 Red. masses --      1.0362                 1.0848                 1.1007
 Frc consts  --      5.7390                 6.2136                 6.4036
 IR Inten    --      4.8747                 7.4089                 6.9120

                     37                     38                     39
                      A                      A                      A
 Frequencies --   3160.8750              3486.4924              3782.3221
 Red. masses --      1.1028                 1.1704                 1.0669
 Frc consts  --      6.4915                 8.3823                 8.9928
 IR Inten    --      7.3438                64.7884                44.7101

 - Thermochemistry -
 -------------------
 Temperature   298.150 Kelvin.  Pressure   1.00000 Atm.
 Atom     1 has atomic number  6 and mass  12.00000

 Molecular mass:   115.03952 amu.
 Principal axes and moments of inertia in atomic units:
                           1         2         3
     Eigenvalues --   645.561301467.093151840.99873
           X            0.99981   0.01408  -0.01328
           Y           -0.01368   0.99946   0.02995
           Z            0.01369  -0.02976   0.99946
 This molecule is an asymmetric top.
 Rotational symmetry number  1.
 Warning -- assumption of classical behavior for rotation
           may cause significant error
 Rotational temperatures (Kelvin)      0.13417     0.05904     0.04705
 Rotational constants (GHZ):           2.79562     1.23015     0.98031
    2 imaginary frequencies ignored.
 Zero-point vibrational energy     282416.5 (Joules/Mol)
                                   67.49917 (Kcal/Mol)
 Warning -- explicit consideration of  11 degrees of freedom as
           vibrations may cause significant error
 Vibrational temperatures:     55.21   110.14   120.77   224.14   312.50
          (Kelvin)            323.20   372.39   450.86   578.21   792.81
                              887.95  1018.29  1059.65  1097.43  1117.58
                             1126.57  1141.67  1385.47  1587.34  1615.10
                             1672.59  1797.98  1826.37  1968.97  2013.81
                             2052.17  2136.33  2147.45  2569.02  2704.22
                             3243.28  4411.18  4485.97  4521.18  4547.79
                             5016.28  5441.92

 Zero-point correction=                           0.107567 (Hartree/Particle)
 Thermal correction to Energy=                    0.116740
 Thermal correction to Enthalpy=                  0.117684
 Thermal correction to Gibbs Free Energy=         0.071643
 Sum of electronic and zero-point Energies=           -419.3423684
 Sum of electronic and thermal Energies=              -420.075472
 Sum of electronic and thermal Enthalpies=            -420.074528
 Sum of electronic and thermal Free Energies=         -420.120569

                     E (Thermal)             CV                S
                      KCal/Mol        Cal/Mol-Kelvin    Cal/Mol-Kelvin
 Total                   73.255             30.752             96.901
 Electronic               0.000              0.000              1.377
 Translational            0.889              2.981             40.136
 Rotational               0.889              2.981             28.946
 Vibrational             71.478             24.790             26.442
 Vibration     1          0.594              1.982              5.342
 Vibration     2          0.599              1.965              3.977
 Vibration     3          0.601              1.960              3.797
 Vibration     4          0.620              1.896              2.600
 Vibration     5          0.646              1.815              1.982
 Vibration     6          0.649              1.804              1.921
 Vibration     7          0.668              1.748              1.670
 Vibration     8          0.701              1.648              1.344
 Vibration     9          0.767              1.466              0.956
 Vibration    10          0.906              1.137              0.542
 Vibration    11          0.977              0.996              0.421

 1\1\GINC-AJ\Freq\UM062X\6-311++G(d,p)\C5H7O3(2)\AAYUSH\29-Mar-2025\0\\
 # freq 6-311++g(d,p) m062x\\Title Card Required\\0,2\C,2.468853,1.2946
 47,-0.672402\H,3.09753,2.092714,-0.992876\C,1.76799,0.391463,-0.311331
 \C,0.985022,-0.75471,0.150655\O,1.491367,-1.784179,0.474779\O,-0.34884
 5,-0.592334,0.194107\C,-0.95845,0.638764,-0.188543\C,-1.102028,1.59057
 6,0.969835\H,-0.466952,1.062443,-1.066133\H,-2.001698,0.326691,-0.5371
 84\H,-1.624012,1.101669,1.793416\H,-0.120815,1.923497,1.318328\H,-1.67
 6187,2.465405,0.660698\O,-3.164402,-0.477501,-0.679993\H,-2.76059,-1.3

 Normal termination of Gaussian 16 at Sat Mar 29 04:04:15 2025.
