 Gaussian 16, Revision A.03,
 Gaussian 16:  ES64L-G16RevA.03 25-Dec-2016

 --------------------------
 # freq 6-311++g(d,p) m062x
 --------------------------

 -------------------
 Title Card Required
 -------------------
 Symbolic Z-matrix:
 Charge =  0 Multiplicity = 2

                         Standard orientation:
 ---------------------------------------------------------------------
 Center     Atomic      Atomic             Coordinates (Angstroms)
 Number     Number       Type             X           Y           Z
 ---------------------------------------------------------------------
      1          6           0        2.514243    1.233741   -0.678742
      2          1           0        3.142891    2.031857   -0.999320
      3          6           0        1.813614    0.330332   -0.317773
      4          6           0        1.032111   -0.816227    0.143838
      5          8           0        1.537528   -1.845335    0.468426
      6          8           0       -0.303397   -0.653108    0.187937
      7          6           0       -0.914846    0.572776   -0.193254
      8          6           0       -1.059194    1.527224    0.961921
      9          1           0       -0.445455    0.991046   -1.085273
     10          1           0       -2.008086    0.219858   -0.537888
     11          1           0       -1.577951    1.039659    1.788167
     12          1           0       -0.074917    1.858154    1.306455
     13          1           0       -1.631820    2.402925    0.653363
     14          8           0       -3.109446   -0.533815   -0.685172
     15          1           0       -2.717710   -1.372511   -0.390985
 ---------------------------------------------------------------------

 SCF Done:  E(UM062X) =  -420.192108770     A.U. after   21 cycles

 The electronic state is 2-A.
 Alpha  occ. eigenvalues --  -19.69891 -19.65976 -19.64199 -10.72128 -10.63726
 Alpha  occ. eigenvalues --  -10.58979 -10.58510 -10.55694  -1.26795  -1.18352
 Alpha  occ. eigenvalues --   -1.12849  -0.90692  -0.90007  -0.78921  -0.75025
 Alpha  occ. eigenvalues --   -0.66172  -0.62935  -0.61358  -0.58303  -0.56508
 Alpha  occ. eigenvalues --   -0.53594  -0.51171  -0.50150  -0.48568  -0.46136
 Alpha  occ. eigenvalues --   -0.41633  -0.41201  -0.40960  -0.38715  -0.37986
 Alpha  occ. eigenvalues --   -0.35311
 Alpha virt. eigenvalues --   -0.03277  -0.01016   0.00487   0.01211   0.01366
 Alpha virt. eigenvalues --    0.02754   0.03387   0.04358   0.05315   0.05967
 Alpha virt. eigenvalues --    0.06593   0.07394   0.08427   0.09215   0.09858

  Beta  occ. eigenvalues --  -19.69877 -19.64716 -19.64194 -10.72110 -10.63312
  Beta  occ. eigenvalues --  -10.58975 -10.58511 -10.55698  -1.26676  -1.18227
  Beta  occ. eigenvalues --   -1.07930  -0.90556  -0.89142  -0.78509  -0.74635
  Beta  occ. eigenvalues --   -0.65468  -0.62779  -0.59024  -0.58013  -0.54837
  Beta  occ. eigenvalues --   -0.51714  -0.50844  -0.48516  -0.47118  -0.43354
  Beta  occ. eigenvalues --   -0.40949  -0.39901  -0.38716  -0.38586  -0.37608
  Beta virt. eigenvalues --   -0.11448  -0.03215  -0.00985   0.00616   0.01325
  Beta virt. eigenvalues --    0.01486   0.02824   0.03473   0.04521   0.05368
  Beta virt. eigenvalues --    0.06091   0.06687   0.07499   0.08550   0.09250

 Mulliken charges and spin densities:
               1          2
     1  C   -1.300193   0.019728
     2  H    0.204562   0.000068
     3  C    1.515338  -0.013498
     4  C   -0.198232   0.002503
     5  O   -0.237348   0.003634
     6  O   -0.056950  -0.006909
     7  C   -0.508097   0.364436
     8  C   -0.377813  -0.006570
     9  H    0.203646  -0.004583
    10  H    0.317383  -0.044544
    11  H    0.207813   0.003699
    12  H    0.148032   0.020911
    13  H    0.173809   0.000461
    14  O   -0.351240   0.674498
    15  H    0.259291  -0.013835
 Sum of Mulliken charges =  -0.00000   1.00000

 Dipole moment (field-independent basis, Debye):
    X=              1.2988    Y=              3.9681    Z=             -0.4314  Tot=              4.1975
 Quadrupole moment (field-independent basis, Debye-Ang):
   XX=            -53.7610   YY=            -46.1974   ZZ=            -47.9874
   XY=              8.7815   XZ=             -5.9789   YZ=              0.2985

  Exact polarizability:  99.132  14.543  80.610   2.328  -3.292  54.358
 Approx polarizability:  97.221  14.993  98.627   0.200 -10.787  63.404

 ******    1 imaginary frequencies (negative Signs) ******

                      1                      2                      3
                      A                      A                      A
 Frequencies --  -1294.7793                54.5601                68.4688
 Red. masses --      1.1587                 5.0710                 6.8555
 Frc consts  --      1.1445                 0.0089                 0.0189
 IR Inten    --   2150.7041                 0.3675                 3.2951

                      4                      5                      6
                      A                      A                      A
 Frequencies --    107.1390               116.9077               167.5730
 Red. masses --      4.9721                 3.3151                 2.5390
 Frc consts  --      0.0336                 0.0267                 0.0420
 IR Inten    --      9.7528                 0.4124                 2.0947

                      7                      8                      9
                      A                      A                      A
 Frequencies --    211.8598               222.1185               257.7534
 Red. masses --      1.1359                 1.1681                 4.7366
 Frc consts  --      0.0300                 0.0340                 0.1854
 IR Inten    --      5.9433                98.3959                 0.3974

                     10                     11                     12
                      A                      A                      A
 Frequencies --    308.1060               405.3380               545.1146
 Red. masses --      4.2110                 3.3479                 5.9542
 Frc consts  --      0.2355                 0.3241                 1.0424
 IR Inten    --      5.4400                10.6479                 2.0524

                     13                     14                     15
                      A                      A                      A
 Frequencies --    612.9442               713.8608               737.6643
 Red. masses --      4.8019                 2.4655                 1.3317
 Frc consts  --      1.0629                 0.7403                 0.4270
 IR Inten    --      7.8813                 2.9679                36.1939

                     16                     17                     18
                      A                      A                      A
 Frequencies --    760.3132               777.2514               780.8497
 Red. masses --     11.7447                 1.2868                 4.1542
 Frc consts  --      4.0002                 0.4580                 1.4924
 IR Inten    --     20.7888                40.5183                28.2303

                     19                     20                     21
                      A                      A                      A
 Frequencies --    822.7644               885.7517               965.2097
 Red. masses --      1.1301                 1.4594                 2.3904
 Frc consts  --      0.4507                 0.6746                 1.3121
 IR Inten    --     54.1723               660.0644                23.9664

                     22                     23                     24
                      A                      A                      A
 Frequencies --   1113.7182              1153.1813              1163.4037
 Red. masses --      2.1164                 3.7822                 1.6825
 Frc consts  --      1.5467                 2.9634                 1.3417
 IR Inten    --     53.1981                86.6296                21.3477

                     25                     26                     27
                      A                      A                      A
 Frequencies --   1249.5448              1298.8997              1369.3496
 Red. masses --      5.4374                 1.1580                 1.2022
 Frc consts  --      5.0020                 1.1511                 1.3281
 IR Inten    --    503.6589                48.0713                12.8785

                     28                     29                     30
                      A                      A                      A
 Frequencies --   1415.0431              1482.1208              1485.2185
 Red. masses --      1.3321                 1.0457                 1.0402
 Frc consts  --      1.5715                 1.3534                 1.3520
 IR Inten    --     33.9223                 1.2414                 3.5490

                     31                     32                     33
                      A                      A                      A
 Frequencies --   1540.4761              1875.9144              2254.4986
 Red. masses --      1.0999                12.9159                 5.7238
 Frc consts  --      1.5379                26.7794                17.1409
 IR Inten    --      6.6867               481.5434                64.9719

                     34                     35                     36
                      A                      A                      A
 Frequencies --   3061.8768              3121.2721              3139.2750
 Red. masses --      1.0378                 1.0855                 1.0982
 Frc consts  --      5.7323                 6.2308                 6.3769
 IR Inten    --      3.3025                 7.0455                 4.8139

                     37                     38                     39
                      A                      A                      A
 Frequencies --   3163.5905              3486.1299              3798.8162
 Red. masses --      1.1029                 1.1705                 1.0668
 Frc consts  --      6.5036                 8.3814                 9.0707
 IR Inten    --      5.9949                65.7651                53.1746

 - Thermochemistry -
 -------------------
 Temperature   298.150 Kelvin.  Pressure   1.00000 Atm.
 Atom     1 has atomic number  6 and mass  12.00000

 Molecular mass:   115.03952 amu.
 Principal axes and moments of inertia in atomic units:
                           1         2         3
     Eigenvalues --   644.281371465.026241838.08201
           X            0.99981   0.01439  -0.01307
           Y           -0.01399   0.99944   0.03030
           Z            0.01350  -0.03011   0.99946
 This molecule is an asymmetric top.
 Rotational symmetry number  1.
 Warning -- assumption of classical behavior for rotation
           may cause significant error
 Rotational temperatures (Kelvin)      0.13443     0.05912     0.04712
 Rotational constants (GHZ):           2.80117     1.23188     0.98186
    1 imaginary frequencies ignored.
 Zero-point vibrational energy     279291.4 (Joules/Mol)
                                   66.75225 (Kcal/Mol)
 Warning -- explicit consideration of  12 degrees of freedom as
           vibrations may cause significant error
 Vibrational temperatures:     78.50    98.51   154.15   168.20   241.10
          (Kelvin)            304.82   319.58   370.85   443.30   583.19
                              784.30   881.89  1027.09  1061.33  1093.92
                             1118.29  1123.47  1183.77  1274.40  1388.72
                             1602.39  1659.17  1673.88  1797.82  1868.83
                             1970.19  2035.93  2132.44  2136.90  2216.40
                             2699.02  3243.72  4405.36  4490.81  4516.72
                             4551.70  5015.76  5465.65

 Zero-point correction=                           0.106376 (Hartree/Particle)
 Thermal correction to Energy=                    0.116230
 Thermal correction to Enthalpy=                  0.117174
 Thermal correction to Gibbs Free Energy=         0.070060
 Sum of electronic and zero-point Energies=           -419.3412901
 Sum of electronic and thermal Energies=              -420.075879
 Sum of electronic and thermal Enthalpies=            -420.074935
 Sum of electronic and thermal Free Energies=         -420.122049

                     E (Thermal)             CV                S
                      KCal/Mol        Cal/Mol-Kelvin    Cal/Mol-Kelvin
 Total                   72.935             33.047             99.159
 Electronic               0.000              0.000              1.377
 Translational            0.889              2.981             40.136
 Rotational               0.889              2.981             28.941
 Vibrational             71.158             27.085             28.705
 Vibration     1          0.596              1.976              4.645
 Vibration     2          0.598              1.969              4.197
 Vibration     3          0.606              1.944              3.320
 Vibration     4          0.608              1.935              3.151
 Vibration     5          0.624              1.882              2.463
 Vibration     6          0.643              1.823              2.028
 Vibration     7          0.648              1.807              1.942
 Vibration     8          0.667              1.750              1.677
 Vibration     9          0.698              1.658              1.372
 Vibration    10          0.770              1.459              0.943
 Vibration    11          0.900              1.150              0.554
 Vibration    12          0.972              1.004              0.428

 1\1\GINC-AJ\Freq\UM062X\6-311++G(d,p)\C5H7O3(2)\AAYUSH\29-Mar-2025\0\\
 # freq 6-311++g(d,p) m062x\\Title Card Required\\0,2\C,2.468744,1.2946
 79,-0.672408\H,3.097642,2.092598,-0.992986\C,1.767831,0.39149,-0.31143
 9\C,0.985968,-0.754823,0.150172\O,1.491062,-1.78409,0.47476\O,-0.34948
 9,-0.591285,0.194271\C,-0.960553,0.634791,-0.18692\C,-1.104601,1.58928
 4,0.968255\H,-0.49103,1.052913,-1.078939\H,-2.053903,0.282216,-0.53155
 4\H,-1.623511,1.101882,1.794501\H,-0.12022,1.919905,1.312789\H,-1.6769
 52,2.465165,0.659697\O,-3.1555,-0.471111,-0.678838\H,-2.764027,-1.3099

 Normal termination of Gaussian 16 at Sat Mar 29 04:11:08 2025.
