 Gaussian 16, Revision A.03,
 Gaussian 16:  ES64L-G16RevA.03 25-Dec-2016

 --------------------------
 # freq 6-311++g(d,p) m062x
 --------------------------

 -------------------
 Title Card Required
 -------------------
 Symbolic Z-matrix:
 Charge =  0 Multiplicity = 2

                         Standard orientation:
 ---------------------------------------------------------------------
 Center     Atomic      Atomic             Coordinates (Angstroms)
 Number     Number       Type             X           Y           Z
 ---------------------------------------------------------------------
      1          6           0        2.514253    1.234622   -0.678144
      2          1           0        3.142631    2.033116   -0.998448
      3          6           0        1.813770    0.330952   -0.317515
      4          6           0        1.032789   -0.815977    0.143586
      5          8           0        1.538025   -1.844981    0.468028
      6          8           0       -0.303334   -0.652703    0.187758
      7          6           0       -0.914442    0.572133   -0.192531
      8          6           0       -1.060021    1.526542    0.962021
      9          1           0       -0.451349    0.989076   -1.088369
     10          1           0       -2.029156    0.204005   -0.538970
     11          1           0       -1.577882    1.038855    1.788733
     12          1           0       -0.074947    1.856952    1.305871
     13          1           0       -1.632348    2.402472    0.653927
     14          8           0       -3.106788   -0.532517   -0.685180
     15          1           0       -2.718263   -1.372500   -0.392099
 ---------------------------------------------------------------------

 SCF Done:  E(UM062X) =  -420.192389186     A.U. after   21 cycles

 The electronic state is 2-A.
 Alpha  occ. eigenvalues --  -19.70044 -19.65442 -19.64318 -10.72246 -10.64035
 Alpha  occ. eigenvalues --  -10.59076 -10.58601 -10.55852  -1.26935  -1.18494
 Alpha  occ. eigenvalues --   -1.12489  -0.90790  -0.90107  -0.79053  -0.75123
 Alpha  occ. eigenvalues --   -0.66272  -0.63012  -0.61389  -0.58441  -0.56552
 Alpha  occ. eigenvalues --   -0.53345  -0.51318  -0.50108  -0.48709  -0.46233
 Alpha  occ. eigenvalues --   -0.41373  -0.41105  -0.41054  -0.38809  -0.38049
 Alpha  occ. eigenvalues --   -0.34799
 Alpha virt. eigenvalues --   -0.03376  -0.01057   0.00492   0.01198   0.01346
 Alpha virt. eigenvalues --    0.02715   0.03353   0.04350   0.05282   0.05959
 Alpha virt. eigenvalues --    0.06564   0.07372   0.08388   0.09168   0.09835

  Beta  occ. eigenvalues --  -19.70026 -19.64312 -19.64248 -10.72226 -10.63577
  Beta  occ. eigenvalues --  -10.59071 -10.58601 -10.55857  -1.26798  -1.18357
  Beta  occ. eigenvalues --   -1.07920  -0.90648  -0.89173  -0.78604  -0.74701
  Beta  occ. eigenvalues --   -0.65530  -0.62861  -0.59022  -0.58113  -0.54858
  Beta  occ. eigenvalues --   -0.51614  -0.50945  -0.48616  -0.47213  -0.43446
  Beta  occ. eigenvalues --   -0.41049  -0.40013  -0.38717  -0.38435  -0.37713
  Beta virt. eigenvalues --   -0.11375  -0.03303  -0.01026   0.00607   0.01294
  Beta virt. eigenvalues --    0.01487   0.02787   0.03437   0.04516   0.05338
  Beta virt. eigenvalues --    0.06083   0.06666   0.07471   0.08510   0.09203

 Mulliken charges and spin densities:
               1          2
     1  C   -1.296976   0.020486
     2  H    0.204992   0.000077
     3  C    1.514582  -0.014676
     4  C   -0.200260   0.003970
     5  O   -0.235637   0.004183
     6  O   -0.054441  -0.008190
     7  C   -0.508579   0.411538
     8  C   -0.376515  -0.009378
     9  H    0.206213  -0.005819
    10  H    0.324071  -0.047514
    11  H    0.209713   0.004390
    12  H    0.148739   0.023882
    13  H    0.174905   0.000620
    14  O   -0.369546   0.628718
    15  H    0.258739  -0.012284
 Sum of Mulliken charges =  -0.00000   1.00000

 Dipole moment (field-independent basis, Debye):
    X=              1.4802    Y=              4.0431    Z=             -0.3802  Tot=              4.3223
 Quadrupole moment (field-independent basis, Debye-Ang):
   XX=            -54.3693   YY=            -46.1245   ZZ=            -47.9719
   XY=              8.5699   XZ=             -6.1460   YZ=              0.2752

  Exact polarizability:  99.018  14.378  80.610   2.292  -3.285  54.384
 Approx polarizability:  97.989  15.277  98.951   0.429 -10.655  63.532

 ******    1 imaginary frequencies (negative Signs) ******

                      1                      2                      3
                      A                      A                      A
 Frequencies --  -1545.5900                60.0911                70.5208
 Red. masses --      1.1035                 4.8376                 6.5991
 Frc consts  --      1.5531                 0.0103                 0.0193
 IR Inten    --   2028.1827                 0.3519                 2.4096

                      4                      5                      6
                      A                      A                      A
 Frequencies --    118.3713               125.4087               174.4905
 Red. masses --      5.1671                 3.5873                 2.4142
 Frc consts  --      0.0427                 0.0332                 0.0433
 IR Inten    --      7.1744                 2.0618                 1.8484

                      7                      8                      9
                      A                      A                      A
 Frequencies --    209.5618               225.3384               257.4735
 Red. masses --      1.1590                 1.1600                 4.6881
 Frc consts  --      0.0300                 0.0347                 0.1831
 IR Inten    --      3.0839               100.3806                 0.5600

                     10                     11                     12
                      A                      A                      A
 Frequencies --    306.4083               407.3032               540.7722
 Red. masses --      4.4844                 3.3488                 6.2134
 Frc consts  --      0.2481                 0.3273                 1.0706
 IR Inten    --      4.1007                10.9892                 1.6868

                     13                     14                     15
                      A                      A                      A
 Frequencies --    608.1802               695.4866               738.1103
 Red. masses --      4.7687                 3.1801                 1.3240
 Frc consts  --      1.0392                 0.9063                 0.4250
 IR Inten    --     12.3219                 7.8793                37.6980

                     16                     17                     18
                      A                      A                      A
 Frequencies --    758.8960               764.3066               777.5689
 Red. masses --      8.6389                 5.1149                 1.2849
 Frc consts  --      2.9314                 1.7604                 0.4577
 IR Inten    --     25.2980                53.4200                38.8472

                     19                     20                     21
                      A                      A                      A
 Frequencies --    830.4735               853.6173               965.7935
 Red. masses --      1.0620                 1.3654                 2.4162
 Frc consts  --      0.4316                 0.5862                 1.3278
 IR Inten    --      6.1686               389.2546                26.6756

                     22                     23                     24
                      A                      A                      A
 Frequencies --   1111.0041              1146.8204              1158.8422
 Red. masses --      2.0727                 3.1713                 1.8780
 Frc consts  --      1.5073                 2.4574                 1.4859
 IR Inten    --     53.8472                69.6259                29.9887

                     25                     26                     27
                      A                      A                      A
 Frequencies --   1247.6463              1276.5031              1369.2279
 Red. masses --      5.3629                 1.2123                 1.1999
 Frc consts  --      4.9185                 1.1639                 1.3255
 IR Inten    --    505.9109                95.6016                11.7609

                     28                     29                     30
                      A                      A                      A
 Frequencies --   1413.7391              1481.3766              1483.4892
 Red. masses --      1.3256                 1.0466                 1.0393
 Frc consts  --      1.5610                 1.3532                 1.3475
 IR Inten    --     34.8033                 0.6159                 4.4199

                     31                     32                     33
                      A                      A                      A
 Frequencies --   1534.1054              1876.2427              2254.5100
 Red. masses --      1.0837                12.9677                 5.7231
 Frc consts  --      1.5027                26.8962                17.1390
 IR Inten    --     10.4634               482.2620                65.9700

                     34                     35                     36
                      A                      A                      A
 Frequencies --   3059.9249              3122.9175              3138.1588
 Red. masses --      1.0385                 1.0858                 1.0971
 Frc consts  --      5.7289                 6.2391                 6.3658
 IR Inten    --      2.7874                 7.0323                 4.3668

                     37                     38                     39
                      A                      A                      A
 Frequencies --   3164.4514              3485.7811              3804.9649
 Red. masses --      1.1029                 1.1706                 1.0668
 Frc consts  --      6.5073                 8.3801                 9.0996
 IR Inten    --      5.5779                66.0576                56.4391

 - Thermochemistry -
 -------------------
 Temperature   298.150 Kelvin.  Pressure   1.00000 Atm.
 Atom     1 has atomic number  6 and mass  12.00000

 Molecular mass:   115.03952 amu.
 Principal axes and moments of inertia in atomic units:
                           1         2         3
     Eigenvalues --   643.983231464.586231837.42317
           X            0.99981   0.01451  -0.01305
           Y           -0.01411   0.99945   0.03018
           Z            0.01348  -0.02999   0.99946
 This molecule is an asymmetric top.
 Rotational symmetry number  1.
 Warning -- assumption of classical behavior for rotation
           may cause significant error
 Rotational temperatures (Kelvin)      0.13450     0.05914     0.04714
 Rotational constants (GHZ):           2.80247     1.23225     0.98221
    1 imaginary frequencies ignored.
 Zero-point vibrational energy     278836.8 (Joules/Mol)
                                   66.64360 (Kcal/Mol)
 Warning -- explicit consideration of  12 degrees of freedom as
           vibrations may cause significant error
 Vibrational temperatures:     86.46   101.46   170.31   180.44   251.05
          (Kelvin)            301.51   324.21   370.45   440.85   586.02
                              778.05   875.04  1000.65  1061.98  1091.88
                             1099.67  1118.75  1194.87  1228.16  1389.56
                             1598.49  1650.02  1667.32  1795.08  1836.60
                             1970.01  2034.06  2131.37  2134.41  2207.24
                             2699.49  3243.74  4402.55  4493.18  4515.11
                             4552.94  5015.26  5474.50

 Zero-point correction=                           0.106203 (Hartree/Particle)
 Thermal correction to Energy=                    0.116018
 Thermal correction to Enthalpy=                  0.116962
 Thermal correction to Gibbs Free Energy=         0.070125
 Sum of electronic and zero-point Energies=           -419.3411484
 Sum of electronic and thermal Energies=              -420.076371
 Sum of electronic and thermal Enthalpies=            -420.075427
 Sum of electronic and thermal Free Energies=         -420.122264

                     E (Thermal)             CV                S
                      KCal/Mol        Cal/Mol-Kelvin    Cal/Mol-Kelvin
 Total                   72.802             33.159             98.577
 Electronic               0.000              0.000              1.377
 Translational            0.889              2.981             40.136
 Rotational               0.889              2.981             28.940
 Vibrational             71.025             27.197             28.124
 Vibration     1          0.597              1.973              4.454
 Vibration     2          0.598              1.968              4.139
 Vibration     3          0.609              1.934              3.127
 Vibration     4          0.610              1.928              3.015
 Vibration     5          0.627              1.874              2.387
 Vibration     6          0.642              1.826              2.047
 Vibration     7          0.650              1.802              1.916
 Vibration     8          0.667              1.750              1.679
 Vibration     9          0.697              1.662              1.382
 Vibration    10          0.772              1.454              0.936
 Vibration    11          0.896              1.160              0.564
 Vibration    12          0.967              1.014              0.436

 1\1\GINC-AJ\Freq\UM062X\6-311++G(d,p)\C5H7O3(2)\AAYUSH\29-Mar-2025\0\\
 # freq 6-311++g(d,p) m062x\\Title Card Required\\0,2\C,2.468717,1.2947
 02,-0.672413\H,3.097481,2.092778,-0.993002\C,1.767797,0.3915,-0.311462
 \C,0.986261,-0.754891,0.150039\O,1.490993,-1.784057,0.474751\O,-0.3497
 74,-0.590917,0.19426\C,-0.960282,0.634118,-0.18635\C,-1.105286,1.58894
 7,0.967928\H,-0.497041,1.050556,-1.082346\H,-2.07521,0.266459,-0.53259
 7\H,-1.623336,1.101773,1.794824\H,-0.120017,1.918954,1.311607\H,-1.677
 186,2.465078,0.659615\O,-3.153231,-0.469553,-0.678507\H,-2.765115,-1.3

 Normal termination of Gaussian 16 at Sat Mar 29 04:13:27 2025.
