 Gaussian 16, Revision A.03,
 Gaussian 16:  ES64L-G16RevA.03 25-Dec-2016

 --------------------------
 # ccsd(t)/6-311++g(d,p) sp
 --------------------------

 -------------------
 Title Card Required
 -------------------
 Symbolic Z-matrix:
 Charge =  0 Multiplicity = 2

                         Standard orientation:
 ---------------------------------------------------------------------
 Center     Atomic      Atomic             Coordinates (Angstroms)
 Number     Number       Type             X           Y           Z
 ---------------------------------------------------------------------
      1          6           0        2.516083    1.225982   -0.681592
      2          1           0        3.146254    2.022304   -1.003361
      3          6           0        1.813559    0.324725   -0.318904
      4          6           0        1.027668   -0.819182    0.145124
      5          8           0        1.532800   -1.849287    0.470029
      6          8           0       -0.305185   -0.654340    0.188238
      7          6           0       -0.908460    0.582110   -0.196305
      8          6           0       -1.051495    1.532657    0.963341
      9          1           0       -0.400687    1.007184   -1.063786
     10          1           0       -1.934134    0.291394   -0.554330
     11          1           0       -1.576662    1.044508    1.785419
     12          1           0       -0.071619    1.865468    1.314567
     13          1           0       -1.624870    2.407752    0.652968
     14          8           0       -3.128327   -0.539796   -0.685259
     15          1           0       -2.716722   -1.368969   -0.385521
 ---------------------------------------------------------------------

 SCF Done:  E(UHF) =  -417.968338840     A.U. after   36 cycles
 E2 =    -0.1273230531D+01 EUMP2 =    -0.41924156937104D+03
 CCSD(T)= -0.41934306192D+03

 The electronic state is 2-A.
 Alpha  occ. eigenvalues --  -20.64278 -20.61989 -20.56420 -11.42336 -11.30546
 Alpha  occ. eigenvalues --  -11.28010 -11.27245 -11.23393  -1.48473  -1.40654
 Alpha  occ. eigenvalues --   -1.39023  -1.08131  -1.05769  -0.92352  -0.88196
 Alpha  occ. eigenvalues --   -0.76984  -0.74453  -0.73203  -0.69352  -0.67789
 Alpha  occ. eigenvalues --   -0.66948  -0.61329  -0.59049  -0.57018  -0.56248
 Alpha  occ. eigenvalues --   -0.54446  -0.49968  -0.48536  -0.45986  -0.43700
 Alpha  occ. eigenvalues --   -0.43397
 Alpha virt. eigenvalues --    0.03164   0.04736   0.05685   0.06141   0.07378
 Alpha virt. eigenvalues --    0.08185   0.08990   0.09493   0.10357   0.12043
 Alpha virt. eigenvalues --    0.12846   0.13445   0.14937   0.15698   0.15754

  Beta  occ. eigenvalues --  -20.62025 -20.60297 -20.56425 -11.42318 -11.29883
  Beta  occ. eigenvalues --  -11.27989 -11.27264 -11.23431  -1.48439  -1.39124
  Beta  occ. eigenvalues --   -1.25754  -1.08114  -1.04815  -0.92019  -0.87614
  Beta  occ. eigenvalues --   -0.76245  -0.73771  -0.69792  -0.67251  -0.65987
  Beta  occ. eigenvalues --   -0.62474  -0.58937  -0.56230  -0.54944  -0.52140
  Beta  occ. eigenvalues --   -0.50842  -0.48713  -0.46866  -0.43729  -0.43474
  Beta virt. eigenvalues --    0.03167   0.04447   0.05321   0.05912   0.07211
  Beta virt. eigenvalues --    0.07524   0.08260   0.09295   0.09540   0.10920
  Beta virt. eigenvalues --    0.12055   0.12857   0.13651   0.15080   0.15718

 Mulliken charges and spin densities:
               1          2
     1  C   -1.708553   0.008956
     2  H    0.227798  -0.000845
     3  C    1.901311  -0.012905
     4  C   -0.044243   0.006292
     5  O   -0.333021  -0.000900
     6  O   -0.155620  -0.009713
     7  C   -0.387407   0.207300
     8  C   -0.404267  -0.010684
     9  H    0.163945  -0.008984
    10  H    0.270876  -0.084363
    11  H    0.176556   0.002702
    12  H    0.126938   0.007990
    13  H    0.136053   0.000797
    14  O   -0.241070   0.926756
    15  H    0.270706  -0.032398
 Sum of Mulliken charges =  -0.00000   1.00000

 Dipole moment (field-independent basis, Debye):
    X=             -0.0776    Y=              3.6612    Z=             -0.9721  Tot=              3.7888
 Quadrupole moment (field-independent basis, Debye-Ang):
   XX=            -49.3522   YY=            -47.3140   ZZ=            -48.1717
   XY=             11.3965   XZ=             -4.9994   YZ=              0.5071

 PMP3-0=-419.2678994\MP4SDQ=-419.2906072\CCSD=-419.2894799\CCSD(T)=-419
 Normal termination of Gaussian 16 at Wed May  7 17:59:47 2025.
