 Gaussian 16, Revision A.03,
 Gaussian 16:  ES64L-G16RevA.03 25-Dec-2016

 --------------------------
 # freq 6-311++g(d,p) m062x
 --------------------------

 -------------------
 Title Card Required
 -------------------
 Symbolic Z-matrix:
 Charge =  0 Multiplicity = 2

                         Standard orientation:
 ---------------------------------------------------------------------
 Center     Atomic      Atomic             Coordinates (Angstroms)
 Number     Number       Type             X           Y           Z
 ---------------------------------------------------------------------
      1          6           0        2.514441    1.232780   -0.678783
      2          1           0        3.143333    2.030682   -0.999334
      3          6           0        1.813539    0.329599   -0.317788
      4          6           0        1.031312   -0.816657    0.143949
      5          8           0        1.536821   -1.846008    0.468393
      6          8           0       -0.303569   -0.653535    0.187874
      7          6           0       -0.914576    0.573986   -0.193864
      8          6           0       -1.058154    1.527792    0.962327
      9          1           0       -0.438065    0.993893   -1.081343
     10          1           0       -1.989196    0.235815   -0.538765
     11          1           0       -1.578015    1.040015    1.787800
     12          1           0       -0.074769    1.859128    1.307985
     13          1           0       -1.631061    2.403344    0.653533
     14          8           0       -3.112552   -0.534920   -0.685559
     15          1           0       -2.717196   -1.372179   -0.390579
 ---------------------------------------------------------------------

 SCF Done:  E(UM062X) =  -420.192033406     A.U. after   21 cycles

 The electronic state is 2-A.
 Alpha  occ. eigenvalues --  -19.69749 -19.66477 -19.64086 -10.72016 -10.63410
 Alpha  occ. eigenvalues --  -10.58886 -10.58424 -10.55541  -1.26661  -1.18215
 Alpha  occ. eigenvalues --   -1.13199  -0.90595  -0.89907  -0.78788  -0.74930
 Alpha  occ. eigenvalues --   -0.66073  -0.62859  -0.61301  -0.58174  -0.56484
 Alpha  occ. eigenvalues --   -0.53845  -0.51030  -0.50171  -0.48433  -0.46044
 Alpha  occ. eigenvalues --   -0.42030  -0.41165  -0.40864  -0.38628  -0.37942
 Alpha  occ. eigenvalues --   -0.35748
 Alpha virt. eigenvalues --   -0.03183  -0.00979   0.00477   0.01218   0.01392
 Alpha virt. eigenvalues --    0.02792   0.03422   0.04366   0.05344   0.05975
 Alpha virt. eigenvalues --    0.06622   0.07415   0.08465   0.09259   0.09880

  Beta  occ. eigenvalues --  -19.69740 -19.65161 -19.64081 -10.72001 -10.63033
  Beta  occ. eigenvalues --  -10.58882 -10.58424 -10.55545  -1.26559  -1.18101
  Beta  occ. eigenvalues --   -1.07941  -0.90467  -0.89108  -0.78411  -0.74569
  Beta  occ. eigenvalues --   -0.65406  -0.62699  -0.59024  -0.57915  -0.54826
  Beta  occ. eigenvalues --   -0.51842  -0.50736  -0.48418  -0.47025  -0.43270
  Beta  occ. eigenvalues --   -0.40856  -0.39811  -0.38956  -0.38510  -0.37506
  Beta virt. eigenvalues --   -0.11470  -0.03129  -0.00947   0.00620   0.01349
  Beta virt. eigenvalues --    0.01490   0.02859   0.03509   0.04526   0.05396
  Beta virt. eigenvalues --    0.06097   0.06708   0.07526   0.08587   0.09294

 Mulliken charges and spin densities:
               1          2
     1  C   -1.303144   0.018981
     2  H    0.204154   0.000061
     3  C    1.515885  -0.012564
     4  C   -0.196306   0.001333
     5  O   -0.239006   0.003138
     6  O   -0.059012  -0.005981
     7  C   -0.507580   0.323841
     8  C   -0.378769  -0.004288
     9  H    0.201067  -0.003606
    10  H    0.310752  -0.042241
    11  H    0.206017   0.003078
    12  H    0.147346   0.018306
    13  H    0.172734   0.000335
    14  O   -0.334166   0.714688
    15  H    0.260028  -0.015080
 Sum of Mulliken charges =  -0.00000   1.00000

 Dipole moment (field-independent basis, Debye):
    X=              1.1258    Y=              3.8962    Z=             -0.4799  Tot=              4.0839
 Quadrupole moment (field-independent basis, Debye-Ang):
   XX=            -53.1858   YY=            -46.2695   ZZ=            -48.0035
   XY=              8.9832   XZ=             -5.8155   YZ=              0.3213

  Exact polarizability:  98.660  14.436  80.504   2.200  -3.360  54.289
 Approx polarizability:  96.223  14.591  98.264  -0.092 -10.938  63.256

 ******    1 imaginary frequencies (negative Signs) ******

                      1                      2                      3
                      A                      A                      A
 Frequencies --  -1013.8267                45.3695                63.7793
 Red. masses --      1.3073                 5.4554                 6.7457
 Frc consts  --      0.7917                 0.0066                 0.0162
 IR Inten    --   1770.9097                 0.2352                 5.5618

                      4                      5                      6
                      A                      A                      A
 Frequencies --     96.3228               106.2401               162.0681
 Red. masses --      4.8333                 3.0300                 2.7050
 Frc consts  --      0.0264                 0.0201                 0.0419
 IR Inten    --      9.7089                 0.3090                 2.2138

                      7                      8                      9
                      A                      A                      A
 Frequencies --    213.8193               221.3057               258.0918
 Red. masses --      1.1238                 1.1746                 4.7492
 Frc consts  --      0.0303                 0.0339                 0.1864
 IR Inten    --      9.5378                95.5841                 0.3615

                     10                     11                     12
                      A                      A                      A
 Frequencies --    310.0810               403.8322               548.2261
 Red. masses --      3.9426                 3.3576                 5.6990
 Frc consts  --      0.2234                 0.3226                 1.0092
 IR Inten    --      6.9904                10.2946                 2.5044

                     13                     14                     15
                      A                      A                      A
 Frequencies --    615.9304               719.1409               737.2485
 Red. masses --      4.6818                 2.1116                 1.3348
 Frc consts  --      1.0465                 0.6434                 0.4275
 IR Inten    --      4.0526                26.0506                34.4214

                     16                     17                     18
                      A                      A                      A
 Frequencies --    761.2637               776.9987               791.9986
 Red. masses --     12.0806                 1.2860                 2.7360
 Frc consts  --      4.1249                 0.4574                 1.0111
 IR Inten    --     20.3349                40.0236                 4.5755

                     19                     20                     21
                      A                      A                      A
 Frequencies --    811.2776               964.0445               983.3720
 Red. masses --      1.1632                 2.2165                 2.0375
 Frc consts  --      0.4511                 1.2137                 1.1609
 IR Inten    --     79.0902                90.9268               906.1215

                     22                     23                     24
                      A                      A                      A
 Frequencies --   1116.3374              1159.9108              1177.5815
 Red. masses --      2.1166                 3.1451                 1.7253
 Frc consts  --      1.5541                 2.4931                 1.4096
 IR Inten    --     59.8957                84.1562               182.9646

                     25                     26                     27
                      A                      A                      A
 Frequencies --   1250.5569              1323.2187              1370.5294
 Red. masses --      4.8075                 1.1250                 1.2078
 Frc consts  --      4.4298                 1.1606                 1.3367
 IR Inten    --    470.6660                27.8586                14.3642

                     28                     29                     30
                      A                      A                      A
 Frequencies --   1416.9458              1483.0606              1487.4438
 Red. masses --      1.3408                 1.0435                 1.0426
 Frc consts  --      1.5861                 1.3522                 1.3591
 IR Inten    --     34.9012                 3.0618                 3.4026

                     31                     32                     33
                      A                      A                      A
 Frequencies --   1567.0924              1875.6950              2254.4301
 Red. masses --      1.1181                12.7748                 5.7241
 Frc consts  --      1.6178                26.4806                17.1408
 IR Inten    --     64.1812               479.9720                63.8432

                     34                     35                     36
                      A                      A                      A
 Frequencies --   3063.5054              3120.2085              3140.3715
 Red. masses --      1.0372                 1.0852                 1.0992
 Frc consts  --      5.7350                 6.2251                 6.3869
 IR Inten    --      3.8442                 7.1235                 5.3915

                     37                     38                     39
                      A                      A                      A
 Frequencies --   3162.6975              3486.3221              3793.0229
 Red. masses --      1.1029                 1.1705                 1.0669
 Frc consts  --      6.4996                 8.3820                 9.0433
 IR Inten    --      6.4556                65.4400                49.8458

 - Thermochemistry -
 -------------------
 Temperature   298.150 Kelvin.  Pressure   1.00000 Atm.
 Atom     1 has atomic number  6 and mass  12.00000

 Molecular mass:   115.03952 amu.
 Principal axes and moments of inertia in atomic units:
                           1         2         3
     Eigenvalues --   644.660451465.621861838.93955
           X            0.99981   0.01428  -0.01318
           Y           -0.01388   0.99945   0.03006
           Z            0.01360  -0.02987   0.99946
 This molecule is an asymmetric top.
 Rotational symmetry number  1.
 Warning -- assumption of classical behavior for rotation
           may cause significant error
 Rotational temperatures (Kelvin)      0.13436     0.05910     0.04710
 Rotational constants (GHZ):           2.79952     1.23138     0.98140
    1 imaginary frequencies ignored.
 Zero-point vibrational energy     280161.5 (Joules/Mol)
                                   66.96020 (Kcal/Mol)
 Warning -- explicit consideration of  12 degrees of freedom as
           vibrations may cause significant error
 Vibrational temperatures:     65.28    91.76   138.59   152.86   233.18
          (Kelvin)            307.64   318.41   371.34   446.14   581.02
                              788.78   886.19  1034.68  1060.74  1095.29
                             1117.93  1139.51  1167.25  1387.05  1414.85
                             1606.16  1668.85  1694.28  1799.27  1903.82
                             1971.89  2038.67  2133.79  2140.10  2254.70
                             2698.71  3243.62  4407.70  4489.28  4518.29
                             4550.42  5016.04  5457.31

 Zero-point correction=                           0.106708 (Hartree/Particle)
 Thermal correction to Energy=                    0.116610
 Thermal correction to Enthalpy=                  0.117554
 Thermal correction to Gibbs Free Energy=         0.070027
 Sum of electronic and zero-point Energies=           -419.3415993
 Sum of electronic and thermal Energies=              -420.075424
 Sum of electronic and thermal Enthalpies=            -420.074480
 Sum of electronic and thermal Free Energies=         -420.122007

                     E (Thermal)             CV                S
                      KCal/Mol        Cal/Mol-Kelvin    Cal/Mol-Kelvin
 Total                   73.174             32.890            100.029
 Electronic               0.000              0.000              1.377
 Translational            0.889              2.981             40.136
 Rotational               0.889              2.981             28.942
 Vibrational             71.396             26.929             29.573
 Vibration     1          0.595              1.979              5.010
 Vibration     2          0.597              1.972              4.337
 Vibration     3          0.603              1.952              3.527
 Vibration     4          0.605              1.944              3.336
 Vibration     5          0.622              1.889              2.526
 Vibration     6          0.644              1.820              2.011
 Vibration     7          0.648              1.809              1.948
 Vibration     8          0.667              1.749              1.675
 Vibration     9          0.699              1.655              1.362
 Vibration    10          0.769              1.462              0.949
 Vibration    11          0.903              1.144              0.548
 Vibration    12          0.976              0.998              0.423

 1\1\GINC-AJ\Freq\UM062X\6-311++G(d,p)\C5H7O3(2)\AAYUSH\29-Mar-2025\0\\
 # freq 6-311++g(d,p) m062x\\Title Card Required\\0,2\C,2.46877689,1.29
 466318,-0.67240824\H,3.09766889,2.09256518,-0.99295924\C,1.76787489,0.
 39148218,-0.31141324\C,0.98564789,-0.75477382,0.15032376\O,1.49115689,
 -1.78412482,0.47476776\O,-0.34923311,-0.59165182,0.19424876\C,-0.96024
 011,0.63586918,-0.18748924\C,-1.10381811,1.58967518,0.96870176\H,-0.48
 372911,1.05577618,-1.07496824\H,-2.03486011,0.29769818,-0.53239024\H,-
 1.62367911,1.10189818,1.79417476\H,-0.12043311,1.92101118,1.31435976\H

 Normal termination of Gaussian 16 at Sat Mar 29 04:08:51 2025.
