 Gaussian 16, Revision A.03,
 Gaussian 16:  ES64L-G16RevA.03 25-Dec-2016

 --------------------------
 # freq 6-311++g(d,p) m062x
 --------------------------

 -------------------
 Title Card Required
 -------------------
 Symbolic Z-matrix:
 Charge =  0 Multiplicity = 2

                         Standard orientation:
 ---------------------------------------------------------------------
 Center     Atomic      Atomic             Coordinates (Angstroms)
 Number     Number       Type             X           Y           Z
 ---------------------------------------------------------------------
      1          6           0        2.515832    1.235470   -0.678912
      2          1           0        3.144113    2.033974   -0.999720
      3          6           0        1.815360    0.331867   -0.317920
      4          6           0        1.036161   -0.815530    0.143107
      5          8           0        1.539712   -1.843820    0.468008
      6          8           0       -0.303488   -0.649548    0.188083
      7          6           0       -0.902336    0.573936   -0.186827
      8          6           0       -1.060750    1.526209    0.961270
      9          1           0       -0.477433    0.978590   -1.105031
     10          1           0       -2.221090    0.090776   -0.568573
     11          1           0       -1.574643    1.040206    1.791682
     12          1           0       -0.071365    1.854647    1.302638
     13          1           0       -1.630436    2.403812    0.654403
     14          8           0       -3.094489   -0.524484   -0.681772
     15          1           0       -2.728628   -1.370901   -0.394259
 ---------------------------------------------------------------------

 SCF Done:  E(UM062X) =  -420.206155194     A.U. after   18 cycles

 The electronic state is 2-A.
 Alpha  occ. eigenvalues --  -19.70811 -19.64888 -19.62090 -10.72804 -10.64788
 Alpha  occ. eigenvalues --  -10.59485 -10.58997 -10.56541  -1.27603  -1.19186
 Alpha  occ. eigenvalues --   -1.11820  -0.91176  -0.90460  -0.79573  -0.75512
 Alpha  occ. eigenvalues --   -0.66703  -0.63356  -0.61432  -0.59136  -0.57327
 Alpha  occ. eigenvalues --   -0.53009  -0.52000  -0.49732  -0.48842  -0.46575
 Alpha  occ. eigenvalues --   -0.41746  -0.41554  -0.39248  -0.39049  -0.38427
 Alpha  occ. eigenvalues --   -0.31606
 Alpha virt. eigenvalues --   -0.03834  -0.01241   0.00448   0.01050   0.01368
 Alpha virt. eigenvalues --    0.02554   0.03223   0.04322   0.05122   0.05928
 Alpha virt. eigenvalues --    0.06462   0.07293   0.08231   0.08950   0.09747

  Beta  occ. eigenvalues --  -19.70759 -19.64875 -19.61538 -10.72759 -10.64008
  Beta  occ. eigenvalues --  -10.59477 -10.58996 -10.56555  -1.27323  -1.18943
  Beta  occ. eigenvalues --   -1.09703  -0.91026  -0.88959  -0.78861  -0.74826
  Beta  occ. eigenvalues --   -0.65592  -0.63192  -0.59072  -0.58533  -0.56165
  Beta  occ. eigenvalues --   -0.51832  -0.51288  -0.49029  -0.47615  -0.44619
  Beta  occ. eigenvalues --   -0.41510  -0.41015  -0.39143  -0.38281  -0.37951
  Beta virt. eigenvalues --   -0.09185  -0.03654  -0.01203   0.00540   0.01111
  Beta virt. eigenvalues --    0.01497   0.02611   0.03299   0.04499   0.05206
  Beta virt. eigenvalues --    0.06003   0.06597   0.07342   0.08344   0.08964

 Mulliken charges and spin densities:
               1          2
     1  C   -1.285295   0.018585
     2  H    0.206653   0.000102
     3  C    1.511349  -0.023410
     4  C   -0.208265   0.021796
     5  O   -0.227282   0.007411
     6  O   -0.041507  -0.025668
     7  C   -0.496635   0.791962
     8  C   -0.369149  -0.037670
     9  H    0.215137  -0.018451
    10  H    0.360258  -0.036097
    11  H    0.218416   0.009343
    12  H    0.152436   0.047556
    13  H    0.179776   0.002372
    14  O   -0.476674   0.243363
    15  H    0.260781  -0.001196
 Sum of Mulliken charges =  -0.00000   1.00000

 Dipole moment (field-independent basis, Debye):
    X=              2.3099    Y=              4.3694    Z=             -0.1654  Tot=              4.9452
 Quadrupole moment (field-independent basis, Debye-Ang):
   XX=            -57.3324   YY=            -45.8110   ZZ=            -47.8528
   XY=              7.4771   XZ=             -6.9255   YZ=              0.1197

  Exact polarizability:  88.466   9.132  78.678  -0.720  -4.476  53.830
 Approx polarizability:  91.374  11.968  98.055  -1.317 -11.332  63.355

 ******    2 imaginary frequencies (negative Signs) ******

                      1                      2                      3
                      A                      A                      A
 Frequencies --   -104.5201               -24.9559                76.0518
 Red. masses --      3.7222                 5.3346                 5.1875
 Frc consts  --      0.0240                 0.0020                 0.0177
 IR Inten    --     29.9999                 0.7932                 1.7059

                      4                      5                      6
                      A                      A                      A
 Frequencies --    125.1396               131.2895               174.4423
 Red. masses --      5.1480                 3.6605                 1.4081
 Frc consts  --      0.0475                 0.0372                 0.0252
 IR Inten    --      0.8170                 3.6443                 1.1256

                      7                      8                      9
                      A                      A                      A
 Frequencies --    194.8699               247.0250               257.2282
 Red. masses --      1.9643                 1.2399                 3.0735
 Frc consts  --      0.0439                 0.0446                 0.1198
 IR Inten    --      2.4419                80.3215                11.2113

                     10                     11                     12
                      A                      A                      A
 Frequencies --    369.5638               414.7134               545.2552
 Red. masses --      4.4416                 3.3444                 6.1435
 Frc consts  --      0.3574                 0.3389                 1.0761
 IR Inten    --      8.1245                10.6745                15.9406

                     13                     14                     15
                      A                      A                      A
 Frequencies --    630.6789               703.7422               737.1937
 Red. masses --      4.3113                 1.2828                 1.2854
 Frc consts  --      1.0104                 0.3743                 0.4116
 IR Inten    --      3.4268                81.4026                34.2542

                     16                     17                     18
                      A                      A                      A
 Frequencies --    743.6783               757.0342               779.0533
 Red. masses --      1.4681                 6.3166                 1.2888
 Frc consts  --      0.4784                 2.1329                 0.4609
 IR Inten    --     20.3459                12.8139                36.5942

                     19                     20                     21
                      A                      A                      A
 Frequencies --    788.3365               906.5077               947.1462
 Red. masses --      2.4507                 1.0758                 2.7182
 Frc consts  --      0.8974                 0.5209                 1.4367
 IR Inten    --     14.9912                65.1459                12.9410

                     22                     23                     24
                      A                      A                      A
 Frequencies --   1031.7562              1117.5349              1146.9559
 Red. masses --      1.4208                 2.9249                 2.7090
 Frc consts  --      0.8911                 2.1522                 2.0997
 IR Inten    --     43.4637                33.9374               110.8731

                     25                     26                     27
                      A                      A                      A
 Frequencies --   1226.2226              1368.3006              1405.9873
 Red. masses --      9.7194                 1.2061                 1.3103
 Frc consts  --      8.6105                 1.3305                 1.5262
 IR Inten    --    620.1988                 5.2779                56.3837

                     28                     29                     30
                      A                      A                      A
 Frequencies --   1445.6910              1474.1188              1479.4068
 Red. masses --      1.2541                 1.0414                 1.0736
 Frc consts  --      1.5443                 1.3333                 1.3844
 IR Inten    --     74.2231                 4.3895                 1.4017

                     31                     32                     33
                      A                      A                      A
 Frequencies --   1832.5126              1879.8859              2254.3884
 Red. masses --      1.0895                11.3927                 5.7229
 Frc consts  --      2.1557                23.7215                17.1366
 IR Inten    --     41.9631               457.6154                67.8208

                     34                     35                     36
                      A                      A                      A
 Frequencies --   3039.4069              3126.9589              3141.5600
 Red. masses --      1.0448                 1.0888                 1.0869
 Frc consts  --      5.6869                 6.2724                 6.3203
 IR Inten    --      1.6257                 3.9066                 6.4059

                     37                     38                     39
                      A                      A                      A
 Frequencies --   3166.9635              3484.9281              3862.4889
 Red. masses --      1.1023                 1.1707                 1.0653
 Frc consts  --      6.5139                 8.3768                 9.3642
 IR Inten    --      4.9173                66.2778                51.2291

 - Thermochemistry -
 -------------------
 Temperature   298.150 Kelvin.  Pressure   1.00000 Atm.
 Atom     1 has atomic number  6 and mass  12.00000

 Molecular mass:   115.03952 amu.
 Principal axes and moments of inertia in atomic units:
                           1         2         3
     Eigenvalues --   642.915751463.590121835.51773
           X            0.99980   0.01539  -0.01239
           Y           -0.01501   0.99942   0.03069
           Z            0.01285  -0.03050   0.99945
 This molecule is an asymmetric top.
 Rotational symmetry number  1.
 Warning -- assumption of classical behavior for rotation
           may cause significant error
 Rotational temperatures (Kelvin)      0.13472     0.05918     0.04719
 Rotational constants (GHZ):           2.80712     1.23309     0.98323
    2 imaginary frequencies ignored.
 Zero-point vibrational energy     281206.3 (Joules/Mol)
                                   67.20991 (Kcal/Mol)
 Warning -- explicit consideration of  10 degrees of freedom as
           vibrations may cause significant error
 Vibrational temperatures:    109.42   180.05   188.90   250.98   280.37
          (Kelvin)            355.41   370.09   531.72   596.68   784.50
                              907.41  1012.53  1060.66  1069.99  1089.20
                             1120.88  1134.24  1304.26  1362.73  1484.47
                             1607.88  1650.21  1764.26  1968.68  2022.90
                             2080.03  2120.93  2128.54  2636.58  2704.74
                             3243.56  4373.03  4499.00  4520.00  4556.55
                             5014.03  5557.26

 Zero-point correction=                           0.107106 (Hartree/Particle)
 Thermal correction to Energy=                    0.115983
 Thermal correction to Enthalpy=                  0.116927
 Thermal correction to Gibbs Free Energy=         0.072545
 Sum of electronic and zero-point Energies=           -419.3544369
 Sum of electronic and thermal Energies=              -420.090173
 Sum of electronic and thermal Enthalpies=            -420.089228
 Sum of electronic and thermal Free Energies=         -420.133610

                     E (Thermal)             CV                S
                      KCal/Mol        Cal/Mol-Kelvin    Cal/Mol-Kelvin
 Total                   72.780             31.007             93.410
 Electronic               0.000              0.000              1.377
 Translational            0.889              2.981             40.136
 Rotational               0.889              2.981             28.937
 Vibrational             71.003             25.045             22.960
 Vibration     1          0.599              1.965              3.990
 Vibration     2          0.610              1.928              3.019
 Vibration     3          0.612              1.922              2.927
 Vibration     4          0.627              1.874              2.387
 Vibration     5          0.636              1.847              2.181
 Vibration     6          0.661              1.768              1.752
 Vibration     7          0.667              1.751              1.681
 Vibration     8          0.742              1.535              1.082
 Vibration     9          0.778              1.438              0.910
 Vibration    10          0.900              1.150              0.554

 1\1\GINC-AJ\Freq\UM062X\6-311++G(d,p)\C5H7O3(2)\AAYUSH\29-Mar-2025\0\\
 # freq 6-311++g(d,p) m062x\\Title Card Required\\0,2\C,2.468632,1.2947
 14,-0.672398\H,3.097396,2.092871,-0.993125\C,1.767615,0.391498,-0.3114
 94\C,0.987723,-0.755457,0.149459\O,1.490684,-1.783923,0.474718\O,-0.35
 1864,-0.588847,0.193935\C,-0.950014,0.634848,-0.1814\C,-1.108391,1.587
 395,0.966475\H,-0.524601,1.039144,-1.099525\H,-2.268857,0.152231,-0.56
 3525\H,-1.622801,1.101776,1.796791\H,-0.118975,1.915435,1.308133\H,-1.
 677563,2.465208,0.659253\O,-3.142501,-0.462644,-0.676924\H,-2.777133,-

 Normal termination of Gaussian 16 at Sat Mar 29 04:31:30 2025.
