 Gaussian 16, Revision A.03,
 Gaussian 16:  ES64L-G16RevA.03 25-Dec-2016

 --------------------------
 # freq 6-311++g(d,p) m062x
 --------------------------

 -------------------
 Title Card Required
 -------------------
 Symbolic Z-matrix:
 Charge =  0 Multiplicity = 2

                         Standard orientation:
 ---------------------------------------------------------------------
 Center     Atomic      Atomic             Coordinates (Angstroms)
 Number     Number       Type             X           Y           Z
 ---------------------------------------------------------------------
      1          6           0        2.515537    1.235617   -0.678699
      2          1           0        3.143775    2.034191   -0.999395
      3          6           0        1.815133    0.331927   -0.317812
      4          6           0        1.035818   -0.815490    0.143146
      5          8           0        1.539629   -1.843838    0.467965
      6          8           0       -0.303403   -0.649976    0.188020
      7          6           0       -0.904436    0.573368   -0.187651
      8          6           0       -1.060858    1.526119    0.961385
      9          1           0       -0.474419    0.979887   -1.102978
     10          1           0       -2.196640    0.103655   -0.564170
     11          1           0       -1.575163    1.039842    1.791312
     12          1           0       -0.071904    1.854748    1.302886
     13          1           0       -1.630912    2.403478    0.654393
     14          8           0       -3.095629   -0.525443   -0.682263
     15          1           0       -2.726674   -1.370996   -0.394039
 ---------------------------------------------------------------------

 SCF Done:  E(UM062X) =  -420.203697759     A.U. after   19 cycles

 The electronic state is 2-A.
 Alpha  occ. eigenvalues --  -19.70778 -19.64861 -19.62398 -10.72781 -10.64836
 Alpha  occ. eigenvalues --  -10.59474 -10.58985 -10.56522  -1.27575  -1.19148
 Alpha  occ. eigenvalues --   -1.11626  -0.91170  -0.90468  -0.79563  -0.75509
 Alpha  occ. eigenvalues --   -0.66697  -0.63345  -0.61400  -0.59098  -0.57192
 Alpha  occ. eigenvalues --   -0.52950  -0.51971  -0.49711  -0.48932  -0.46577
 Alpha  occ. eigenvalues --   -0.41721  -0.41538  -0.39232  -0.39134  -0.38412
 Alpha  occ. eigenvalues --   -0.31823
 Alpha virt. eigenvalues --   -0.03815  -0.01236   0.00451   0.01058   0.01361
 Alpha virt. eigenvalues --    0.02559   0.03225   0.04322   0.05129   0.05926
 Alpha virt. eigenvalues --    0.06463   0.07291   0.08233   0.08960   0.09747

  Beta  occ. eigenvalues --  -19.70728 -19.64849 -19.61774 -10.72739 -10.64085
  Beta  occ. eigenvalues --  -10.59466 -10.58985 -10.56535  -1.27308  -1.18916
  Beta  occ. eigenvalues --   -1.09246  -0.91017  -0.89034  -0.78875  -0.74855
  Beta  occ. eigenvalues --   -0.65625  -0.63186  -0.59050  -0.58507  -0.55846
  Beta  occ. eigenvalues --   -0.51790  -0.51275  -0.49013  -0.47598  -0.44422
  Beta  occ. eigenvalues --   -0.41493  -0.40921  -0.39127  -0.38252  -0.37884
  Beta virt. eigenvalues --   -0.09629  -0.03650  -0.01200   0.00541   0.01119
  Beta virt. eigenvalues --    0.01499   0.02619   0.03303   0.04500   0.05209
  Beta virt. eigenvalues --    0.06008   0.06599   0.07345   0.08348   0.08978

 Mulliken charges and spin densities:
               1          2
     1  C   -1.284704   0.019657
     2  H    0.206640   0.000108
     3  C    1.510794  -0.022948
     4  C   -0.208158   0.019581
     5  O   -0.227743   0.007279
     6  O   -0.042283  -0.023228
     7  C   -0.500782   0.753646
     8  C   -0.369276  -0.034308
     9  H    0.215302  -0.016838
    10  H    0.359334  -0.040972
    11  H    0.218072   0.008875
    12  H    0.152361   0.045335
    13  H    0.179600   0.002147
    14  O   -0.469231   0.283608
    15  H    0.260075  -0.001941
 Sum of Mulliken charges =  -0.00000   1.00000

 Dipole moment (field-independent basis, Debye):
    X=              2.2784    Y=              4.3611    Z=             -0.1705  Tot=              4.9233
 Quadrupole moment (field-independent basis, Debye-Ang):
   XX=            -57.1978   YY=            -45.8247   ZZ=            -47.8691
   XY=              7.5350   XZ=             -6.8951   YZ=              0.1331

  Exact polarizability:  90.483  10.050  79.096  -0.165  -4.230  53.966
 Approx polarizability:  92.983  12.685  98.436  -0.895 -11.144  63.472

 ******    1 imaginary frequencies (negative Signs) ******

                      1                      2                      3
                      A                      A                      A
 Frequencies --   -689.6887                19.0341                68.5995
 Red. masses --      1.5153                 5.2405                 5.6263
 Frc consts  --      0.4247                 0.0011                 0.0156
 IR Inten    --    129.7869                 0.4852                 1.5972

                      4                      5                      6
                      A                      A                      A
 Frequencies --    124.7912               139.4408               178.2175
 Red. masses --      4.4473                 4.4799                 1.4115
 Frc consts  --      0.0408                 0.0513                 0.0264
 IR Inten    --      0.8168                 4.2774                 0.7413

                      7                      8                      9
                      A                      A                      A
 Frequencies --    195.4898               248.5983               257.7237
 Red. masses --      1.9326                 1.3347                 2.6426
 Frc consts  --      0.0435                 0.0486                 0.1034
 IR Inten    --      1.7505                76.7915                17.8370

                     10                     11                     12
                      A                      A                      A
 Frequencies --    326.9829               415.0031               538.5938
 Red. masses --      5.2707                 3.3968                 6.4904
 Frc consts  --      0.3320                 0.3447                 1.1093
 IR Inten    --      2.0799                10.6089                12.8393

                     13                     14                     15
                      A                      A                      A
 Frequencies --    630.7714               697.2364               730.7980
 Red. masses --      5.3837                 1.3795                 1.5585
 Frc consts  --      1.2620                 0.3951                 0.4904
 IR Inten    --      2.3861                 9.2371                62.3848

                     16                     17                     18
                      A                      A                      A
 Frequencies --    739.2015               756.0465               778.9369
 Red. masses --      1.3474                11.7225                 1.2855
 Frc consts  --      0.4338                 3.9479                 0.4595
 IR Inten    --     33.4401                21.9151                36.9666

                     19                     20                     21
                      A                      A                      A
 Frequencies --    796.3528               865.5371               961.2606
 Red. masses --      2.0856                 1.4569                 1.5720
 Frc consts  --      0.7793                 0.6431                 0.8558
 IR Inten    --     33.6467                12.9390                33.9090

                     22                     23                     24
                      A                      A                      A
 Frequencies --    999.0403              1116.4033              1145.7619
 Red. masses --      1.3467                 2.9881                 2.9435
 Frc consts  --      0.7919                 2.1942                 2.2767
 IR Inten    --     47.5759                32.2258               115.6258

                     25                     26                     27
                      A                      A                      A
 Frequencies --   1216.1558              1251.6703              1368.4456
 Red. masses --      3.3013                 2.5361                 1.2062
 Frc consts  --      2.8768                 2.3410                 1.3308
 IR Inten    --    240.5796               461.7612                 5.1897

                     28                     29                     30
                      A                      A                      A
 Frequencies --   1411.0157              1474.4452              1477.6774
 Red. masses --      1.3212                 1.0410                 1.0514
 Frc consts  --      1.5498                 1.3335                 1.3527
 IR Inten    --     32.2551                 4.3937                 1.6758

                     31                     32                     33
                      A                      A                      A
 Frequencies --   1697.2465              1878.8847              2254.4044
 Red. masses --      1.0497                12.8396                 5.7227
 Frc consts  --      1.7816                26.7056                17.1361
 IR Inten    --     62.6540               473.1175                68.0347

                     34                     35                     36
                      A                      A                      A
 Frequencies --   3042.0976              3128.0368              3139.6643
 Red. masses --      1.0441                 1.0896                 1.0869
 Frc consts  --      5.6927                 6.2815                 6.3124
 IR Inten    --      1.5051                 3.9778                 6.5752

                     37                     38                     39
                      A                      A                      A
 Frequencies --   3166.8686              3484.9938              3854.6720
 Red. masses --      1.1025                 1.1707                 1.0656
 Frc consts  --      6.5145                 8.3771                 9.3285
 IR Inten    --      4.7561                66.4485                52.8869

 - Thermochemistry -
 -------------------
 Temperature   298.150 Kelvin.  Pressure   1.00000 Atm.
 Atom     1 has atomic number  6 and mass  12.00000

 Molecular mass:   115.03952 amu.
 Principal axes and moments of inertia in atomic units:
                           1         2         3
     Eigenvalues --   642.995511463.595951835.60098
           X            0.99981   0.01528  -0.01248
           Y           -0.01489   0.99942   0.03063
           Z            0.01294  -0.03044   0.99945
 This molecule is an asymmetric top.
 Rotational symmetry number  1.
 Warning -- assumption of classical behavior for rotation
           may cause significant error
 Rotational temperatures (Kelvin)      0.13470     0.05918     0.04719
 Rotational constants (GHZ):           2.80677     1.23309     0.98319
    1 imaginary frequencies ignored.
 Zero-point vibrational energy     278586.9 (Joules/Mol)
                                   66.58388 (Kcal/Mol)
 Warning -- explicit consideration of  11 degrees of freedom as
           vibrations may cause significant error
 Vibrational temperatures:     27.39    98.70   179.55   200.62   256.42
          (Kelvin)            281.27   357.68   370.81   470.46   597.10
                              774.92   907.54  1003.17  1051.46  1063.55
                             1087.78  1120.72  1145.77  1245.31  1383.04
                             1437.40  1606.26  1648.50  1749.78  1800.87
                             1968.89  2030.14  2121.40  2126.05  2441.96
                             2703.30  3243.59  4376.90  4500.55  4517.28
                             4556.42  5014.13  5546.01

 Zero-point correction=                           0.106108 (Hartree/Particle)
 Thermal correction to Energy=                    0.115953
 Thermal correction to Enthalpy=                  0.116897
 Thermal correction to Gibbs Free Energy=         0.069172
 Sum of electronic and zero-point Energies=           -419.3517603
 Sum of electronic and thermal Energies=              -420.087745
 Sum of electronic and thermal Enthalpies=            -420.086800
 Sum of electronic and thermal Free Energies=         -420.134526

                     E (Thermal)             CV                S
                      KCal/Mol        Cal/Mol-Kelvin    Cal/Mol-Kelvin
 Total                   72.762             33.280            100.446
 Electronic               0.000              0.000              1.377
 Translational            0.889              2.981             40.136
 Rotational               0.889              2.981             28.937
 Vibrational             70.984             27.319             29.996
 Vibration     1          0.593              1.986              6.732
 Vibration     2          0.598              1.969              4.193
 Vibration     3          0.610              1.928              3.025
 Vibration     4          0.615              1.914              2.812
 Vibration     5          0.629              1.869              2.347
 Vibration     6          0.636              1.846              2.175
 Vibration     7          0.662              1.765              1.740
 Vibration     8          0.667              1.750              1.677
 Vibration     9          0.711              1.622              1.275
 Vibration    10          0.778              1.438              0.909
 Vibration    11          0.894              1.165              0.568

 1\1\GINC-AJ\Freq\UM062X\6-311++G(d,p)\C5H7O3(2)\AAYUSH\29-Mar-2025\0\\
 # freq 6-311++g(d,p) m062x\\Title Card Required\\0,2\C,2.468638,1.2947
 16,-0.672401\H,3.097405,2.092867,-0.993114\C,1.767636,0.391498,-0.3114
 92\C,0.987562,-0.755379,0.149523\O,1.490715,-1.78393,0.474721\O,-0.351
 58,-0.589114,0.193995\C,-0.951834,0.634474,-0.182126\C,-1.108041,1.587
 581,0.966643\H,-0.521344,1.04054,-1.097432\H,-2.244195,0.165387,-0.558
 886\H,-1.62284,1.101783,1.796545\H,-0.118998,1.915743,1.308336\H,-1.67
 7526,2.465183,0.659291\O,-3.1435,-0.463241,-0.677076\H,-2.775091,-1.30

 Normal termination of Gaussian 16 at Sat Mar 29 04:29:16 2025.
