 Gaussian 16, Revision A.03,
 Gaussian 16:  ES64L-G16RevA.03 25-Dec-2016

 --------------------------
 # ccsd(t)/6-311++g(d,p) sp
 --------------------------

 -------------------
 Title Card Required
 -------------------
 Symbolic Z-matrix:
 Charge =  0 Multiplicity = 2

                         Standard orientation:
 ---------------------------------------------------------------------
 Center     Atomic      Atomic             Coordinates (Angstroms)
 Number     Number       Type             X           Y           Z
 ---------------------------------------------------------------------
      1          6           0        2.514339    1.235041   -0.678090
      2          1           0        3.142640    2.033615   -0.998396
      3          6           0        1.813941    0.331283   -0.317495
      4          6           0        1.033340   -0.815811    0.143485
      5          8           0        1.538393   -1.844685    0.467961
      6          8           0       -0.303301   -0.652301    0.187766
      7          6           0       -0.913453    0.571942   -0.191842
      8          6           0       -1.060411    1.526298    0.961927
      9          1           0       -0.455685    0.987424   -1.090881
     10          1           0       -2.052378    0.188735   -0.541724
     11          1           0       -1.577597    1.038769    1.789129
     12          1           0       -0.074641    1.856363    1.305204
     13          1           0       -1.632405    2.402428    0.654035
     14          8           0       -3.104765   -0.531457   -0.684823
     15          1           0       -2.719086   -1.372303   -0.392507
 ---------------------------------------------------------------------

 SCF Done:  E(UHF) =  -417.951764209     A.U. after   33 cycles
 E2 =    -0.1287458454D+01 EUMP2 =    -0.41923922266226D+03
 CCSD(T)= -0.41934130899D+03

 The electronic state is 2-A.
 Alpha  occ. eigenvalues --  -20.62590 -20.62265 -20.56938 -11.42851 -11.32755
 Alpha  occ. eigenvalues --  -11.28475 -11.27627 -11.24084  -1.49108  -1.40037
 Alpha  occ. eigenvalues --   -1.38665  -1.08586  -1.06469  -0.93042  -0.88659
 Alpha  occ. eigenvalues --   -0.77414  -0.74762  -0.73770  -0.68826  -0.68165
 Alpha  occ. eigenvalues --   -0.65996  -0.61076  -0.59681  -0.57076  -0.55223
 Alpha  occ. eigenvalues --   -0.54783  -0.50123  -0.48804  -0.44776  -0.44074
 Alpha  occ. eigenvalues --   -0.43106
 Alpha virt. eigenvalues --    0.02997   0.04703   0.05667   0.06248   0.07069
 Alpha virt. eigenvalues --    0.08041   0.08952   0.09383   0.10379   0.11868
 Alpha virt. eigenvalues --    0.12715   0.13291   0.14817   0.15471   0.15638

  Beta  occ. eigenvalues --  -20.62632 -20.58836 -20.56945 -11.42793 -11.31292
  Beta  occ. eigenvalues --  -11.28437 -11.27660 -11.24167  -1.48976  -1.39730
  Beta  occ. eigenvalues --   -1.26816  -1.08540  -1.04561  -0.92394  -0.87571
  Beta  occ. eigenvalues --   -0.76441  -0.74127  -0.69645  -0.67717  -0.65749
  Beta  occ. eigenvalues --   -0.61620  -0.59402  -0.56781  -0.55295  -0.50995
  Beta  occ. eigenvalues --   -0.50846  -0.49011  -0.46862  -0.44155  -0.43934
  Beta virt. eigenvalues --    0.03000   0.04177   0.05106   0.05796   0.06798
  Beta virt. eigenvalues --    0.07126   0.08060   0.09202   0.09442   0.10862
  Beta virt. eigenvalues --    0.11894   0.12754   0.13378   0.14925   0.15517

 Mulliken charges and spin densities:
               1          2
     1  C   -1.679700   0.008346
     2  H    0.230052  -0.001449
     3  C    1.891142  -0.023268
     4  C   -0.060257   0.021254
     5  O   -0.324514  -0.001129
     6  O   -0.139956  -0.032570
     7  C   -0.387723   0.517654
     8  C   -0.397555  -0.044373
     9  H    0.181759  -0.024835
    10  H    0.277854  -0.186391
    11  H    0.186103   0.006730
    12  H    0.129441   0.024025
    13  H    0.141873   0.002302
    14  O   -0.317303   0.759244
    15  H    0.268784  -0.025539
 Sum of Mulliken charges =  -0.00000   1.00000

 Dipole moment (field-independent basis, Debye):
    X=              0.7265    Y=              3.9938    Z=             -0.7488  Tot=              4.1278
 Quadrupole moment (field-independent basis, Debye-Ang):
   XX=            -52.0218   YY=            -46.9424   ZZ=            -48.0870
   XY=             10.4996   XZ=             -5.7624   YZ=              0.3990

 PMP3-0=-419.2637267\MP4SDQ=-419.2864787\CCSD=-419.2859949\CCSD(T)=-419
 Normal termination of Gaussian 16 at Wed May  7 23:38:59 2025.
