 Gaussian 16, Revision A.03,
 Gaussian 16:  ES64L-G16RevA.03 25-Dec-2016

 --------------------------
 # ccsd(t)/6-311++g(d,p) sp
 --------------------------

 -------------------
 Title Card Required
 -------------------
 Symbolic Z-matrix:
 Charge =  0 Multiplicity = 2

                         Standard orientation:
 ---------------------------------------------------------------------
 Center     Atomic      Atomic             Coordinates (Angstroms)
 Number     Number       Type             X           Y           Z
 ---------------------------------------------------------------------
      1          6           0        2.517381    1.221558   -0.683408
      2          1           0        3.148549    2.016704   -1.006086
      3          6           0        1.813801    0.321581   -0.319545
      4          6           0        1.025756   -0.820816    0.145847
      5          8           0        1.530229   -1.851268    0.471222
      6          8           0       -0.306496   -0.654069    0.188326
      7          6           0       -0.903164    0.587545   -0.197528
      8          6           0       -1.047398    1.535858    0.963964
      9          1           0       -0.380045    1.014349   -1.054811
     10          1           0       -1.916679    0.312970   -0.567370
     11          1           0       -1.575622    1.047521    1.784016
     12          1           0       -0.068952    1.868629    1.318451
     13          1           0       -1.620165    2.411212    0.652809
     14          8           0       -3.137280   -0.542104   -0.684659
     15          1           0       -2.716960   -1.366221   -0.382096
 ---------------------------------------------------------------------

 SCF Done:  E(UHF) =  -417.970775490     A.U. after   37 cycles
 E2 =    -0.1271738554D+01 EUMP2 =    -0.41924251404433D+03
 CCSD(T)= -0.41934370729D+03

 The electronic state is 2-A.
 Alpha  occ. eigenvalues --  -20.64361 -20.61992 -20.56401 -11.42322 -11.30411
 Alpha  occ. eigenvalues --  -11.27987 -11.27235 -11.23372  -1.48441  -1.40627
 Alpha  occ. eigenvalues --   -1.38995  -1.08111  -1.05752  -0.92286  -0.88191
 Alpha  occ. eigenvalues --   -0.76922  -0.74352  -0.73110  -0.69386  -0.67782
 Alpha  occ. eigenvalues --   -0.66934  -0.61429  -0.59018  -0.57077  -0.56225
 Alpha  occ. eigenvalues --   -0.54454  -0.50051  -0.48595  -0.46223  -0.43688
 Alpha  occ. eigenvalues --   -0.43385
 Alpha virt. eigenvalues --    0.03167   0.04737   0.05686   0.06137   0.07392
 Alpha virt. eigenvalues --    0.08192   0.08995   0.09484   0.10352   0.12053
 Alpha virt. eigenvalues --    0.12851   0.13462   0.14926   0.15708   0.15766

  Beta  occ. eigenvalues --  -20.62026 -20.60348 -20.56406 -11.42306 -11.29829
  Beta  occ. eigenvalues --  -11.27968 -11.27253 -11.23404  -1.48414  -1.39091
  Beta  occ. eigenvalues --   -1.25534  -1.08097  -1.04900  -0.91987  -0.87666
  Beta  occ. eigenvalues --   -0.76272  -0.73766  -0.69834  -0.67236  -0.65893
  Beta  occ. eigenvalues --   -0.62609  -0.58919  -0.56225  -0.54951  -0.52146
  Beta  occ. eigenvalues --   -0.50899  -0.48736  -0.46923  -0.43712  -0.43445
  Beta virt. eigenvalues --    0.03170   0.04478   0.05334   0.05907   0.07247
  Beta virt. eigenvalues --    0.07571   0.08272   0.09307   0.09545   0.10905
  Beta virt. eigenvalues --    0.12064   0.12863   0.13679   0.15071   0.15728

 Mulliken charges and spin densities:
               1          2
     1  C   -1.709404   0.009058
     2  H    0.227673  -0.000799
     3  C    1.899619  -0.012042
     4  C   -0.041926   0.005091
     5  O   -0.333767  -0.000892
     6  O   -0.155249  -0.007539
     7  C   -0.387554   0.178773
     8  C   -0.403630  -0.007455
     9  H    0.162560  -0.007346
    10  H    0.268210  -0.073974
    11  H    0.175986   0.002301
    12  H    0.127045   0.006641
    13  H    0.135593   0.000633
    14  O   -0.235713   0.940554
    15  H    0.270554  -0.033005
 Sum of Mulliken charges =  -0.00000   1.00000

 Dipole moment (field-independent basis, Debye):
    X=             -0.0962    Y=              3.6595    Z=             -0.9832  Tot=              3.7905
 Quadrupole moment (field-independent basis, Debye-Ang):
   XX=            -49.2937   YY=            -47.3535   ZZ=            -48.1766
   XY=             11.4049   XZ=             -4.9801   YZ=              0.5017

 3-0=-419.2690081\MP4SDQ=-419.2916603\CCSD=-419.2903526\CCSD(T)=-419.34
 Normal termination of Gaussian 16 at Fri May  9 08:47:47 2025.
