 Gaussian 16, Revision A.03,
 Gaussian 16:  ES64L-G16RevA.03 25-Dec-2016

 --------------------------
 # freq 6-311++g(d,p) m062x
 --------------------------

 -------------------
 Title Card Required
 -------------------
 Symbolic Z-matrix:
 Charge =  0 Multiplicity = 2

                         Standard orientation:
 ---------------------------------------------------------------------
 Center     Atomic      Atomic             Coordinates (Angstroms)
 Number     Number       Type             X           Y           Z
 ---------------------------------------------------------------------
      1          6           0        2.515518    1.228041   -0.680724
      2          1           0        3.145245    2.024896   -1.002085
      3          6           0        1.813488    0.326192   -0.318576
      4          6           0        1.028627   -0.818417    0.144780
      5          8           0        1.533993   -1.848341    0.469499
      6          8           0       -0.304616   -0.654312    0.188153
      7          6           0       -0.910798    0.579574   -0.195726
      8          6           0       -1.053463    1.531164    0.963045
      9          1           0       -0.411013    1.003578   -1.068417
     10          1           0       -1.944280    0.279262   -0.548428
     11          1           0       -1.577152    1.043087    1.786074
     12          1           0       -0.072775    1.863767    1.312692
     13          1           0       -1.626941    2.406257    0.653101
     14          8           0       -3.123961   -0.538601   -0.685482
     15          1           0       -2.716635   -1.370136   -0.387085
 ---------------------------------------------------------------------

 SCF Done:  E(UM062X) =  -420.192390460     A.U. after   22 cycles

 The electronic state is 2-A.
 Alpha  occ. eigenvalues --  -19.69436 -19.67631 -19.63823 -10.71758 -10.62594
 Alpha  occ. eigenvalues --  -10.58664 -10.58221 -10.55175  -1.26345  -1.17891
 Alpha  occ. eigenvalues --   -1.14035  -0.90352  -0.89664  -0.78444  -0.74704
 Alpha  occ. eigenvalues --   -0.65828  -0.62667  -0.61069  -0.57880  -0.56526
 Alpha  occ. eigenvalues --   -0.54401  -0.50703  -0.50184  -0.48117  -0.45842
 Alpha  occ. eigenvalues --   -0.42997  -0.41124  -0.40649  -0.38470  -0.37964
 Alpha  occ. eigenvalues --   -0.36527
 Alpha virt. eigenvalues --   -0.02959  -0.00894   0.00429   0.01231   0.01465
 Alpha virt. eigenvalues --    0.02881   0.03507   0.04388   0.05408   0.06000
 Alpha virt. eigenvalues --    0.06690   0.07462   0.08552   0.09364   0.09931

  Beta  occ. eigenvalues --  -19.69435 -19.66205 -19.63821 -10.71748 -10.62303
  Beta  occ. eigenvalues --  -10.58661 -10.58222 -10.55178  -1.26280  -1.17800
  Beta  occ. eigenvalues --   -1.07899  -0.90254  -0.89026  -0.78154  -0.74413
  Beta  occ. eigenvalues --   -0.65258  -0.62510  -0.59013  -0.57674  -0.54803
  Beta  occ. eigenvalues --   -0.52236  -0.50457  -0.48182  -0.46795  -0.43076
  Beta  occ. eigenvalues --   -0.40646  -0.39846  -0.39424  -0.38291  -0.37261
  Beta virt. eigenvalues --   -0.11298  -0.02924  -0.00859   0.00614   0.01375
  Beta virt. eigenvalues --    0.01528   0.02942   0.03600   0.04541   0.05456
  Beta virt. eigenvalues --    0.06108   0.06761   0.07588   0.08675   0.09395

 Mulliken charges and spin densities:
               1          2
     1  C   -1.309581   0.016851
     2  H    0.203183   0.000046
     3  C    1.516362  -0.010545
     4  C   -0.191627  -0.000955
     5  O   -0.243056   0.002038
     6  O   -0.062632  -0.004148
     7  C   -0.504547   0.237002
     8  C   -0.379928   0.000268
     9  H    0.194162  -0.001789
    10  H    0.292213  -0.038572
    11  H    0.201779   0.001701
    12  H    0.145664   0.012524
    13  H    0.170105   0.000079
    14  O   -0.294704   0.802581
    15  H    0.262608  -0.017082
 Sum of Mulliken charges =  -0.00000   1.00000

 Dipole moment (field-independent basis, Debye):
    X=              0.7218    Y=              3.7251    Z=             -0.5983  Tot=              3.8413
 Quadrupole moment (field-independent basis, Debye-Ang):
   XX=            -51.8530   YY=            -46.4518   ZZ=            -48.0455
   XY=              9.4504   XZ=             -5.4371   YZ=              0.3668

  Exact polarizability:  94.948  12.927  79.673   1.128  -3.883  53.944
 Approx polarizability:  92.885  13.130  97.138  -1.097 -11.470  62.851

 ******    2 imaginary frequencies (negative Signs) ******

                      1                      2                      3
                      A                      A                      A
 Frequencies --   -522.4995               -62.7912                20.5846
 Red. masses --      2.1515                 4.5782                 5.9200
 Frc consts  --      0.3461                 0.0106                 0.0015
 IR Inten    --    398.4593                 0.5203                15.2802

                      4                      5                      6
                      A                      A                      A
 Frequencies --     65.5738                82.5376               155.0289
 Red. masses --      2.8793                 5.5786                 3.1694
 Frc consts  --      0.0073                 0.0224                 0.0449
 IR Inten    --      0.9323                 4.5113                 2.1667

                      7                      8                      9
                      A                      A                      A
 Frequencies --    218.3070               225.2367               259.0921
 Red. masses --      1.1361                 1.1561                 4.7013
 Frc consts  --      0.0319                 0.0346                 0.1859
 IR Inten    --      6.1205               101.1137                 0.5611

                     10                     11                     12
                      A                      A                      A
 Frequencies --    315.0259               401.5182               551.5364
 Red. masses --      3.4278                 3.4014                 5.3322
 Frc consts  --      0.2004                 0.3231                 0.9557
 IR Inten    --      9.1345                 9.2162                 3.8512

                     13                     14                     15
                      A                      A                      A
 Frequencies --    616.4278               697.8581               736.0930
 Red. masses --      3.9138                 1.5832                 1.3242
 Frc consts  --      0.8762                 0.4543                 0.4227
 IR Inten    --      2.4647               132.7494                34.2555

                     16                     17                     18
                      A                      A                      A
 Frequencies --    763.2808               775.2457               776.6840
 Red. masses --     11.8527                 1.9772                 1.2857
 Frc consts  --      4.0685                 0.7001                 0.4570
 IR Inten    --     21.3000                62.6357                43.5865

                     19                     20                     21
                      A                      A                      A
 Frequencies --    790.3178               962.5471              1110.2261
 Red. masses --      1.5684                 2.2553                 3.1326
 Frc consts  --      0.5772                 1.2311                 2.2750
 IR Inten    --      2.9950                28.8331                80.3957

                     22                     23                     24
                      A                      A                      A
 Frequencies --   1124.7929              1162.5105              1249.0254
 Red. masses --      2.0652                 2.2603                 3.7093
 Frc consts  --      1.5394                 1.7997                 3.4095
 IR Inten    --     87.5804                45.0285               437.8055

                     25                     26                     27
                      A                      A                      A
 Frequencies --   1288.3474              1371.4778              1411.9099
 Red. masses --      1.4304                 1.2124                 1.2491
 Frc consts  --      1.3988                 1.3436                 1.4671
 IR Inten    --    491.9130                11.5907                61.0260

                     28                     29                     30
                      A                      A                      A
 Frequencies --   1437.7489              1485.4617              1494.4874
 Red. masses --      1.1733                 1.0395                 1.0517
 Frc consts  --      1.4290                 1.3514                 1.3840
 IR Inten    --    138.3129                 6.9118                 9.8541

                     31                     32                     33
                      A                      A                      A
 Frequencies --   1866.6252              1954.8862              2254.0406
 Red. masses --      7.2303                 1.2233                 5.7236
 Frc consts  --     14.8430                 2.7543                17.1334
 IR Inten    --    580.5121              1125.2013                59.4010

                     34                     35                     36
                      A                      A                      A
 Frequencies --   3066.6301              3117.8949              3143.0675
 Red. masses --      1.0360                 1.0848                 1.1011
 Frc consts  --      5.7402                 6.2131                 6.4091
 IR Inten    --      5.2540                 7.4845                 7.6442

                     37                     38                     39
                      A                      A                      A
 Frequencies --   3160.1702              3486.6373              3779.1863
 Red. masses --      1.1027                 1.1704                 1.0669
 Frc consts  --      6.4882                 8.3827                 8.9780
 IR Inten    --      7.7266                64.5472                43.2134

 - Thermochemistry -
 -------------------
 Temperature   298.150 Kelvin.  Pressure   1.00000 Atm.
 Atom     1 has atomic number  6 and mass  12.00000

 Molecular mass:   115.03952 amu.
 Principal axes and moments of inertia in atomic units:
                           1         2         3
     Eigenvalues --   646.101461468.032491842.27086
           X            0.99981   0.01399  -0.01331
           Y           -0.01359   0.99946   0.02991
           Z            0.01373  -0.02972   0.99946
 This molecule is an asymmetric top.
 Rotational symmetry number  1.
 Warning -- assumption of classical behavior for rotation
           may cause significant error
 Rotational temperatures (Kelvin)      0.13406     0.05900     0.04701
 Rotational constants (GHZ):           2.79328     1.22936     0.97963
    2 imaginary frequencies ignored.
 Zero-point vibrational energy     283383.5 (Joules/Mol)
                                   67.73028 (Kcal/Mol)
 Warning -- explicit consideration of  11 degrees of freedom as
           vibrations may cause significant error
 Vibrational temperatures:     29.62    94.35   118.75   223.05   314.10
          (Kelvin)            324.07   372.78   453.25   577.70   793.54
                              886.90  1004.06  1059.07  1098.19  1115.41
                             1117.48  1137.09  1384.89  1597.37  1618.33
                             1672.59  1797.07  1853.64  1973.25  2031.42
                             2068.60  2137.25  2150.23  2685.66  2812.65
                             3243.06  4412.20  4485.96  4522.17  4546.78
                             5016.49  5437.41

 Zero-point correction=                           0.107935 (Hartree/Particle)
 Thermal correction to Energy=                    0.117172
 Thermal correction to Enthalpy=                  0.118117
 Thermal correction to Gibbs Free Energy=         0.071328
 Sum of electronic and zero-point Energies=           -419.3427241
 Sum of electronic and thermal Energies=              -420.075218
 Sum of electronic and thermal Enthalpies=            -420.074274
 Sum of electronic and thermal Free Energies=         -420.121063

                     E (Thermal)             CV                S
                      KCal/Mol        Cal/Mol-Kelvin    Cal/Mol-Kelvin
 Total                   73.527             30.757             98.475
 Electronic               0.000              0.000              1.377
 Translational            0.889              2.981             40.136
 Rotational               0.889              2.981             28.948
 Vibrational             71.749             24.796             28.014
 Vibration     1          0.593              1.986              6.577
 Vibration     2          0.597              1.971              4.282
 Vibration     3          0.600              1.961              3.830
 Vibration     4          0.620              1.897              2.610
 Vibration     5          0.646              1.813              1.973
 Vibration     6          0.650              1.803              1.917
 Vibration     7          0.668              1.747              1.668
 Vibration     8          0.702              1.645              1.336
 Vibration     9          0.767              1.467              0.957
 Vibration    10          0.907              1.136              0.541
 Vibration    11          0.976              0.997              0.422

 1\1\GINC-AJ\Freq\UM062X\6-311++G(d,p)\C5H7O3(2)\AAYUSH\29-Mar-2025\0\\
 # freq 6-311++g(d,p) m062x\\Title Card Required\\0,2\C,2.468904,1.2946
 28,-0.672376\H,3.097576,2.092681,-0.992829\C,1.768069,0.391439,-0.3112
 53\C,0.984724,-0.754719,0.150836\O,1.49148,-1.784203,0.474784\O,-0.348
 768,-0.592582,0.193948\C,-0.956618,0.64077,-0.189008\C,-1.101012,1.591
 112,0.970573\H,-0.457181,1.06628,-1.061165\H,-1.989557,0.339281,-0.542
 295\H,-1.624245,1.101539,1.793003\H,-0.120913,1.924819,1.320818\H,-1.6
 75661,2.465653,0.66124\O,-3.168012,-0.480164,-0.680444\H,-2.759574,-1.

 Normal termination of Gaussian 16 at Sat Mar 29 04:01:56 2025.
