 Gaussian 16, Revision A.03,
 Gaussian 16:  ES64L-G16RevA.03 25-Dec-2016

 --------------------------
 # ccsd(t)/6-311++g(d,p) sp
 --------------------------

 -------------------
 Title Card Required
 -------------------
 Symbolic Z-matrix:
 Charge =  0 Multiplicity = 2

                         Standard orientation:
 ---------------------------------------------------------------------
 Center     Atomic      Atomic             Coordinates (Angstroms)
 Number     Number       Type             X           Y           Z
 ---------------------------------------------------------------------
      1          6           0        2.514243    1.233741   -0.678742
      2          1           0        3.142891    2.031857   -0.999320
      3          6           0        1.813614    0.330332   -0.317773
      4          6           0        1.032111   -0.816227    0.143838
      5          8           0        1.537528   -1.845335    0.468426
      6          8           0       -0.303397   -0.653108    0.187937
      7          6           0       -0.914846    0.572776   -0.193254
      8          6           0       -1.059194    1.527224    0.961921
      9          1           0       -0.445455    0.991046   -1.085273
     10          1           0       -2.008086    0.219858   -0.537888
     11          1           0       -1.577951    1.039659    1.788167
     12          1           0       -0.074917    1.858154    1.306455
     13          1           0       -1.631820    2.402925    0.653363
     14          8           0       -3.109446   -0.533815   -0.685172
     15          1           0       -2.717710   -1.372511   -0.390985
 ---------------------------------------------------------------------

 SCF Done:  E(UHF) =  -417.957330330     A.U. after   36 cycles
 E2 =    -0.1281469383D+01 EUMP2 =    -0.41923879971269D+03
 CCSD(T)= -0.41934129014D+03

 The electronic state is 2-A.
 Alpha  occ. eigenvalues --  -20.63409 -20.62223 -20.56664 -11.42562 -11.31713
 Alpha  occ. eigenvalues --  -11.28228 -11.27413 -11.23699  -1.48763  -1.40238
 Alpha  occ. eigenvalues --   -1.39190  -1.08342  -1.06016  -0.92695  -0.88364
 Alpha  occ. eigenvalues --   -0.77190  -0.74722  -0.73561  -0.68996  -0.67891
 Alpha  occ. eigenvalues --   -0.66771  -0.61081  -0.59335  -0.56692  -0.56154
 Alpha  occ. eigenvalues --   -0.54613  -0.49931  -0.48547  -0.44959  -0.43861
 Alpha  occ. eigenvalues --   -0.43340
 Alpha virt. eigenvalues --    0.03093   0.04732   0.05687   0.06180   0.07234
 Alpha virt. eigenvalues --    0.08120   0.08968   0.09458   0.10370   0.11962
 Alpha virt. eigenvalues --    0.12783   0.13363   0.14900   0.15596   0.15693

  Beta  occ. eigenvalues --  -20.62267 -20.59688 -20.56671 -11.42523 -11.30599
  Beta  occ. eigenvalues --  -11.28198 -11.27439 -11.23763  -1.48680  -1.39423
  Beta  occ. eigenvalues --   -1.26522  -1.08309  -1.04535  -0.92194  -0.87497
  Beta  occ. eigenvalues --   -0.76263  -0.73908  -0.69635  -0.67455  -0.66036
  Beta  occ. eigenvalues --   -0.61870  -0.59147  -0.56470  -0.55054  -0.51716
  Beta  occ. eigenvalues --   -0.50719  -0.48780  -0.46719  -0.43925  -0.43693
  Beta virt. eigenvalues --    0.03095   0.04297   0.05212   0.05871   0.06945
  Beta virt. eigenvalues --    0.07299   0.08154   0.09240   0.09496   0.10902
  Beta virt. eigenvalues --    0.11981   0.12807   0.13497   0.15024   0.15627

 Mulliken charges and spin densities:
               1          2
     1  C   -1.693686   0.008744
     2  H    0.228887  -0.001175
     3  C    1.898128  -0.018635
     4  C   -0.054039   0.014200
     5  O   -0.328500  -0.001038
     6  O   -0.147757  -0.022616
     7  C   -0.390231   0.378425
     8  C   -0.400336  -0.029510
     9  H    0.173932  -0.018019
    10  H    0.272621  -0.146576
    11  H    0.181250   0.004977
    12  H    0.127552   0.016442
    13  H    0.138998   0.001655
    14  O   -0.277303   0.841882
    15  H    0.270482  -0.028755
 Sum of Mulliken charges =  -0.00000   1.00000

 Dipole moment (field-independent basis, Debye):
    X=              0.2771    Y=              3.7921    Z=             -0.8681  Tot=              3.9000
 Quadrupole moment (field-independent basis, Debye-Ang):
   XX=            -50.4977   YY=            -47.1188   ZZ=            -48.1325
   XY=             11.0278   XZ=             -5.3401   YZ=              0.4686

 -0=-419.2642106\MP4SDQ=-419.287029\CCSD=-419.2865809\CCSD(T)=-419.3412
 Normal termination of Gaussian 16 at Wed May  7 07:31:37 2025.
