 Gaussian 16, Revision A.03,
 Gaussian 16:  ES64L-G16RevA.03 25-Dec-2016

 --------------------------
 # freq 6-311++g(d,p) m062x
 --------------------------

 -------------------
 Title Card Required
 -------------------
 Symbolic Z-matrix:
 Charge =  0 Multiplicity = 2

                         Standard orientation:
 ---------------------------------------------------------------------
 Center     Atomic      Atomic             Coordinates (Angstroms)
 Number     Number       Type             X           Y           Z
 ---------------------------------------------------------------------
      1          6           0       -1.660439   -0.233042   -0.055819
      2          1           0       -3.018748   -0.879307    0.052452
      3          6           0       -0.630869    0.401213   -0.043930
      4          6           0        0.643360    1.125584    0.014575
      5          8           0        0.676352    2.274355    0.340046
      6          8           0        1.743411    0.455606   -0.325969
      7          6           0        1.699032   -0.951964   -0.623841
      8          6           0        1.751428   -1.776721    0.646593
      9          1           0        0.810995   -1.175073   -1.217959
     10          1           0        2.580334   -1.117171   -1.241448
     11          1           0        2.637997   -1.519487    1.227679
     12          1           0        0.865418   -1.606669    1.260431
     13          1           0        1.794115   -2.838464    0.395889
     14          8           0       -3.971565   -0.536855   -0.092416
     15          1           0       -4.070762    0.200909    0.524206
 ---------------------------------------------------------------------

 SCF Done:  E(UM062X) =  -420.167447025     A.U. after   22 cycles

 The electronic state is 2-A.
 Alpha  occ. eigenvalues --  -19.69083 -19.68788 -19.63535 -10.71486 -10.61755
 Alpha  occ. eigenvalues --  -10.61349 -10.58838 -10.54868  -1.25881  -1.19310
 Alpha  occ. eigenvalues --   -1.17348  -0.90702  -0.89042  -0.77922  -0.74184
 Alpha  occ. eigenvalues --   -0.68057  -0.64260  -0.58894  -0.57425  -0.56355
 Alpha  occ. eigenvalues --   -0.53668  -0.50130  -0.47831  -0.46958  -0.46396
 Alpha  occ. eigenvalues --   -0.43487  -0.42764  -0.40697  -0.39515  -0.38142
 Alpha  occ. eigenvalues --   -0.37151
 Alpha virt. eigenvalues --   -0.02867  -0.00884  -0.00054   0.01268   0.01344
 Alpha virt. eigenvalues --    0.02932   0.04069   0.04372   0.04935   0.05739
 Alpha virt. eigenvalues --    0.06984   0.07633   0.07978   0.09310   0.10018

  Beta  occ. eigenvalues --  -19.68793 -19.68295 -19.63512 -10.71469 -10.61756
  Beta  occ. eigenvalues --  -10.60289 -10.58727 -10.54868  -1.25864  -1.17303
  Beta  occ. eigenvalues --   -1.16396  -0.89261  -0.88793  -0.77546  -0.73331
  Beta  occ. eigenvalues --   -0.64983  -0.64056  -0.58855  -0.57439  -0.53665
  Beta  occ. eigenvalues --   -0.51590  -0.50138  -0.47787  -0.46535  -0.43683
  Beta  occ. eigenvalues --   -0.42888  -0.39875  -0.38885  -0.37364  -0.36549
  Beta virt. eigenvalues --   -0.17241  -0.01820  -0.00645   0.00128   0.01354
  Beta virt. eigenvalues --    0.01577   0.03040   0.04239   0.04731   0.05732
  Beta virt. eigenvalues --    0.05814   0.07112   0.07722   0.08128   0.09356

 Mulliken charges and spin densities:
               1          2
     1  C   -0.468060   0.742236
     2  H    0.400504  -0.032874
     3  C    0.565550  -0.022009
     4  C   -0.285132  -0.029117
     5  O   -0.243938   0.006091
     6  O   -0.029702  -0.000020
     7  C   -0.360383  -0.007289
     8  C   -0.405460   0.003401
     9  H    0.166070   0.002176
    10  H    0.204728  -0.000037
    11  H    0.188199   0.000265
    12  H    0.138533   0.000032
    13  H    0.157234  -0.000424
    14  O   -0.305537   0.346244
    15  H    0.277394  -0.008676
 Sum of Mulliken charges =  -0.00000   1.00000

 Dipole moment (field-independent basis, Debye):
    X=             -0.3715    Y=             -3.4137    Z=              0.4501  Tot=              3.4633
 Quadrupole moment (field-independent basis, Debye-Ang):
   XX=            -46.4927   YY=            -53.7940   ZZ=            -47.1767
   XY=             -9.0735   XZ=             -6.1250   YZ=             -0.4909

  Exact polarizability: 125.524  16.858  78.657  -2.380   3.236  51.550
 Approx polarizability: 114.599  21.225  94.888  -0.937   7.086  60.376

 ******    2 imaginary frequencies (negative Signs) ******

                      1                      2                      3
                      A                      A                      A
 Frequencies --   -683.2920               -59.9205                17.2879
 Red. masses --      1.0537                 1.1062                 7.0023
 Frc consts  --      0.2899                 0.0023                 0.0012
 IR Inten    --    118.5095                65.5672                 2.3375

                      4                      5                      6
                      A                      A                      A
 Frequencies --     38.2606                77.3503               104.2794
 Red. masses --      5.5821                 4.5414                 4.2856
 Frc consts  --      0.0048                 0.0160                 0.0275
 IR Inten    --     11.9195                 3.6908                 0.8002

                      7                      8                      9
                      A                      A                      A
 Frequencies --    151.0060               218.5945               225.3445
 Red. masses --      3.2030                 7.8179                 1.1588
 Frc consts  --      0.0430                 0.2201                 0.0347
 IR Inten    --      3.5354                31.5092                 0.4486

                     10                     11                     12
                      A                      A                      A
 Frequencies --    269.0640               356.0115               412.4783
 Red. masses --      7.9934                 2.7885                 3.6824
 Frc consts  --      0.3410                 0.2082                 0.3691
 IR Inten    --     57.3613                 2.6597                 9.1609

                     13                     14                     15
                      A                      A                      A
 Frequencies --    496.1811               548.0691               611.6318
 Red. masses --      1.0841                 6.2518                 6.3755
 Frc consts  --      0.1573                 1.1064                 1.4052
 IR Inten    --    171.4578                60.4082                 7.4377

                     16                     17                     18
                      A                      A                      A
 Frequencies --    747.1436               763.8604               814.4641
 Red. masses --      9.1024                 5.0688                 1.1892
 Frc consts  --      2.9937                 1.7425                 0.4648
 IR Inten    --     21.9283                 9.7782                 3.2392

                     19                     20                     21
                      A                      A                      A
 Frequencies --    951.5942              1106.3708              1132.2438
 Red. masses --      2.2599                 3.4539                 2.5713
 Frc consts  --      1.2057                 2.4909                 1.9422
 IR Inten    --      8.4995                60.8520                55.1172

                     22                     23                     24
                      A                      A                      A
 Frequencies --   1178.9114              1259.7948              1348.2808
 Red. masses --      1.9288                 3.0076                 1.2443
 Frc consts  --      1.5794                 2.8123                 1.3327
 IR Inten    --     76.0632               474.3217               126.7002

                     25                     26                     27
                      A                      A                      A
 Frequencies --   1397.9803              1405.8711              1432.8282
 Red. masses --      1.1121                 1.2683                 1.3678
 Frc consts  --      1.2806                 1.4770                 1.6545
 IR Inten    --     39.4524                23.6452                20.2795

                     28                     29                     30
                      A                      A                      A
 Frequencies --   1493.0429              1501.9199              1525.5223
 Red. masses --      1.0400                 1.0472                 1.1001
 Frc consts  --      1.3659                 1.3917                 1.5084
 IR Inten    --      2.6218                 3.8831                20.4657

                     31                     32                     33
                      A                      A                      A
 Frequencies --   1861.2708              2192.5231              2491.1437
 Red. masses --     13.0347                 7.3255                 1.1472
 Frc consts  --     26.6055                20.7479                 4.1945
 IR Inten    --    475.3838               133.8957               619.2973

                     34                     35                     36
                      A                      A                      A
 Frequencies --   3073.5968              3101.8588              3146.1734
 Red. masses --      1.0353                 1.0625                 1.1040
 Frc consts  --      5.7628                 6.0230                 6.4388
 IR Inten    --      6.9550                15.2890                 1.0890

                     37                     38                     39
                      A                      A                      A
 Frequencies --   3152.7285              3168.2254              3861.3267
 Red. masses --      1.1012                 1.1061                 1.0670
 Frc consts  --      6.4491                 6.5418                 9.3733
 IR Inten    --     12.4884                24.1324               160.8818

 - Thermochemistry -
 -------------------
 Temperature   298.150 Kelvin.  Pressure   1.00000 Atm.
 Atom     1 has atomic number  6 and mass  12.00000

 Molecular mass:   115.03952 amu.
 Principal axes and moments of inertia in atomic units:
                           1         2         3
     Eigenvalues --   687.585081740.133002284.88620
           X            0.99909  -0.04248  -0.00278
           Y            0.04244   0.99900  -0.01410
           Z            0.00338   0.01397   0.99990
 This molecule is an asymmetric top.
 Rotational symmetry number  1.
 Warning -- assumption of classical behavior for rotation
           may cause significant error
 Rotational temperatures (Kelvin)      0.12597     0.04977     0.03791
 Rotational constants (GHZ):           2.62475     1.03713     0.78986
    2 imaginary frequencies ignored.
 Zero-point vibrational energy     284916.0 (Joules/Mol)
                                   68.09656 (Kcal/Mol)
 Warning -- explicit consideration of  13 degrees of freedom as
           vibrations may cause significant error
 Vibrational temperatures:     24.87    55.05   111.29   150.03   217.26
          (Kelvin)            314.51   324.22   387.12   512.22   593.46
                              713.89   788.55   880.00  1074.97  1099.02
                             1171.83  1369.13  1591.82  1629.05  1696.19
                             1812.56  1939.88  2011.38  2022.73  2061.52
                             2148.16  2160.93  2194.89  2677.95  3154.55
                             3584.20  4422.22  4462.88  4526.64  4536.07
                             4558.37  5555.59

 Zero-point correction=                           0.108519 (Hartree/Particle)
 Thermal correction to Energy=                    0.118429
 Thermal correction to Enthalpy=                  0.119373
 Thermal correction to Gibbs Free Energy=         0.070213
 Sum of electronic and zero-point Energies=           -420.058928
 Sum of electronic and thermal Energies=              -420.049018
 Sum of electronic and thermal Enthalpies=            -420.048074
 Sum of electronic and thermal Free Energies=         -420.097234

                     E (Thermal)             CV                S
                      KCal/Mol        Cal/Mol-Kelvin    Cal/Mol-Kelvin
 Total                   74.315             31.611            103.465
 Electronic               0.000              0.000              1.377
 Translational            0.889              2.981             40.136
 Rotational               0.889              2.981             29.393
 Vibrational             72.538             25.649             32.559
 Vibration     1          0.593              1.986              6.924
 Vibration     2          0.594              1.982              5.347
 Vibration     3          0.599              1.964              3.957
 Vibration     4          0.605              1.946              3.373
 Vibration     5          0.618              1.902              2.660
 Vibration     6          0.646              1.813              1.971
 Vibration     7          0.650              1.802              1.916
 Vibration     8          0.673              1.730              1.602
 Vibration     9          0.732              1.563              1.139
 Vibration    10          0.776              1.443              0.918
 Vibration    11          0.852              1.258              0.668
 Vibration    12          0.903              1.144              0.548
 Vibration    13          0.971              1.007              0.430

 1\1\GINC-AJ\Freq\UM062X\6-311++G(d,p)\C5H7O3(2)\AAYUSH\29-Mar-2025\0\\
 # freq 6-311++g(d,p) m062x\\Title Card Required\\0,2\C,-1.646359,-0.31
 1978,-0.046771\H,-3.003878,-0.959825,0.061943\C,-0.61754,0.323501,-0.0
 35255\C,0.655841,1.049398,0.022803\O,0.687536,2.198292,0.347968\O,1.75
 6617,0.380637,-0.317789\C,1.713848,-1.027063,-0.615285\C,1.767479,-1.8
 51426,0.655353\H,0.825956,-1.25138,-1.209165\H,2.59522,-1.191385,-1.23
 3027\H,2.653859,-1.592989,1.236193\H,0.881391,-1.682265,1.269326\H,1.8
 11374,-2.913183,0.404917\O,-3.95713,-0.618541,-0.082821\H,-4.057078,0.

 Normal termination of Gaussian 16 at Sat Mar 29 01:32:30 2025.
