 Gaussian 16, Revision A.03,
 Gaussian 16:  ES64L-G16RevA.03 25-Dec-2016

 --------------------------
 # ccsd(t)/6-311++g(d,p) sp
 --------------------------

 -------------------
 Title Card Required
 -------------------
 Symbolic Z-matrix:
 Charge =  0 Multiplicity = 2

                         Standard orientation:
 ---------------------------------------------------------------------
 Center     Atomic      Atomic             Coordinates (Angstroms)
 Number     Number       Type             X           Y           Z
 ---------------------------------------------------------------------
      1          6           0       -1.655925   -0.227481   -0.059529
      2          1           0       -3.104687   -0.954484    0.105146
      3          6           0       -0.626643    0.406241   -0.044876
      4          6           0        0.648000    1.125461    0.015422
      5          8           0        0.682221    2.274075    0.341084
      6          8           0        1.745971    0.452843   -0.325525
      7          6           0        1.697973   -0.954473   -0.624155
      8          6           0        1.747946   -1.780021    0.645889
      9          1           0        0.809646   -1.175010   -1.218728
     10          1           0        2.579142   -1.121538   -1.241438
     11          1           0        2.634817   -1.525058    1.227508
     12          1           0        0.862090   -1.608291    1.259493
     13          1           0        1.788432   -2.841733    0.394652
     14          8           0       -3.975379   -0.525928   -0.097565
     15          1           0       -4.060042    0.199836    0.532903
 ---------------------------------------------------------------------

 SCF Done:  E(UHF) =  -417.931612414     A.U. after   33 cycles
 E2 =    -0.1263245211D+01 EUMP2 =    -0.41919485762504D+03
 CCSD(T)= -0.41931697587D+03

 The electronic state is 2-A.
 Alpha  occ. eigenvalues --  -20.61909 -20.60821 -20.56223 -11.42476 -11.32956
 Alpha  occ. eigenvalues --  -11.31347 -11.27146 -11.24195  -1.48428  -1.40147
 Alpha  occ. eigenvalues --   -1.38517  -1.10059  -1.05936  -0.92854  -0.88477
 Alpha  occ. eigenvalues --   -0.79322  -0.75494  -0.70028  -0.67760  -0.67235
 Alpha  occ. eigenvalues --   -0.63987  -0.59289  -0.58334  -0.56119  -0.55575
 Alpha  occ. eigenvalues --   -0.54824  -0.51905  -0.49354  -0.48194  -0.46041
 Alpha  occ. eigenvalues --   -0.44964
 Alpha virt. eigenvalues --    0.03324   0.04537   0.05301   0.06028   0.07212
 Alpha virt. eigenvalues --    0.07899   0.08609   0.08756   0.10738   0.12001
 Alpha virt. eigenvalues --    0.12899   0.13250   0.14332   0.15386   0.15726

  Beta  occ. eigenvalues --  -20.61826 -20.59567 -20.57093 -11.41882 -11.31370
  Beta  occ. eigenvalues --  -11.28996 -11.27375 -11.24195  -1.48719  -1.39824
  Beta  occ. eigenvalues --   -1.36040  -1.08152  -1.05918  -0.91625  -0.86602
  Beta  occ. eigenvalues --   -0.75737  -0.73808  -0.70840  -0.67812  -0.64444
  Beta  occ. eigenvalues --   -0.59781  -0.59656  -0.57220  -0.55794  -0.52657
  Beta  occ. eigenvalues --   -0.52075  -0.49794  -0.48021  -0.45192  -0.44500
  Beta virt. eigenvalues --   -0.01159   0.03739   0.05050   0.05822   0.06039
  Beta virt. eigenvalues --    0.07442   0.08401   0.08682   0.10470   0.10845
  Beta virt. eigenvalues --    0.12175   0.13086   0.13617   0.14967   0.15394

 Mulliken charges and spin densities:
               1          2
     1  C   -0.364445   2.009169
     2  H    0.342762  -0.082923
     3  C    0.684971  -1.138654
     4  C   -0.225186   0.210431
     5  O   -0.315227  -0.185897
     6  O   -0.147408  -0.000652
     7  C   -0.224896  -0.005144
     8  C   -0.406864  -0.001918
     9  H    0.136446   0.006873
    10  H    0.179496  -0.000130
    11  H    0.173359   0.000968
    12  H    0.118953   0.003852
    13  H    0.130077  -0.001282
    14  O   -0.358836   0.197393
    15  H    0.276799  -0.012087
 Sum of Mulliken charges =  -0.00000   1.00000

 Dipole moment (field-independent basis, Debye):
    X=              0.1622    Y=             -4.0461    Z=              0.5129  Tot=              4.0817
 Quadrupole moment (field-independent basis, Debye-Ang):
   XX=            -51.9231   YY=            -54.1381   ZZ=            -46.8406
   XY=             -9.2479   XZ=             -6.6158   YZ=             -0.6716

 PMP3-0=-419.2411356\MP4SDQ=-419.2489587\CCSD=-419.2614096\CCSD(T)=-419
 Normal termination of Gaussian 16 at Fri May  2 06:49:56 2025.
