 Gaussian 16, Revision A.03,
 Gaussian 16:  ES64L-G16RevA.03 25-Dec-2016

 --------------------------
 # ccsd(t)/6-311++g(d,p) sp
 --------------------------

 -------------------
 Title Card Required
 -------------------
 Symbolic Z-matrix:
 Charge =  0 Multiplicity = 2

                         Standard orientation:
 ---------------------------------------------------------------------
 Center     Atomic      Atomic             Coordinates (Angstroms)
 Number     Number       Type             X           Y           Z
 ---------------------------------------------------------------------
      1          6           0       -1.665601   -0.238018   -0.053206
      2          1           0       -2.916789   -0.813889    0.012430
      3          6           0       -0.635220    0.395874   -0.043314
      4          6           0        0.638559    1.125881    0.014167
      5          8           0        0.671150    2.274772    0.339764
      6          8           0        1.741173    0.458171   -0.326004
      7          6           0        1.699956   -0.949441   -0.623535
      8          6           0        1.754237   -1.773873    0.647056
      9          1           0        0.812308   -1.174775   -1.217396
     10          1           0        2.581544   -1.113096   -1.241211
     11          1           0        2.640410   -1.514717    1.227923
     12          1           0        0.867971   -1.605295    1.260922
     13          1           0        1.798961   -2.835617    0.396660
     14          8           0       -3.969110   -0.546220   -0.089263
     15          1           0       -4.081689    0.201058    0.517712
 ---------------------------------------------------------------------

 SCF Done:  E(UHF) =  -417.923363656     A.U. after   36 cycles
 E2 =    -0.1272681198D+01 EUMP2 =    -0.41919604485362D+03
 CCSD(T)= -0.41931548075D+03

 The electronic state is 2-A.
 Alpha  occ. eigenvalues --  -20.65805 -20.61424 -20.55660 -11.41958 -11.30886
 Alpha  occ. eigenvalues --  -11.30863 -11.26258 -11.23730  -1.47884  -1.43857
 Alpha  occ. eigenvalues --   -1.38035  -1.08542  -1.05446  -0.92231  -0.88029
 Alpha  occ. eigenvalues --   -0.82126  -0.74987  -0.70273  -0.69503  -0.67060
 Alpha  occ. eigenvalues --   -0.63551  -0.59434  -0.58798  -0.57717  -0.55476
 Alpha  occ. eigenvalues --   -0.55071  -0.51412  -0.48177  -0.46927  -0.44856
 Alpha  occ. eigenvalues --   -0.44161
 Alpha virt. eigenvalues --    0.03515   0.04352   0.05508   0.06053   0.07371
 Alpha virt. eigenvalues --    0.08370   0.08936   0.09059   0.10925   0.12305
 Alpha virt. eigenvalues --    0.13077   0.13634   0.14626   0.15570   0.15934

  Beta  occ. eigenvalues --  -20.63077 -20.61359 -20.56396 -11.41461 -11.30882
  Beta  occ. eigenvalues --  -11.27919 -11.26482 -11.23731  -1.48131  -1.39143
  Beta  occ. eigenvalues --   -1.34364  -1.07239  -1.05424  -0.91187  -0.86263
  Beta  occ. eigenvalues --   -0.75311  -0.73895  -0.70210  -0.67243  -0.63908
  Beta  occ. eigenvalues --   -0.60094  -0.59168  -0.56605  -0.55378  -0.54208
  Beta  occ. eigenvalues --   -0.51555  -0.48973  -0.47404  -0.43969  -0.43390
  Beta virt. eigenvalues --   -0.01578   0.03887   0.05033   0.05557   0.06108
  Beta virt. eigenvalues --    0.07475   0.08589   0.08974   0.10466   0.11025
  Beta virt. eigenvalues --    0.12454   0.13100   0.13780   0.15143   0.15544

 Mulliken charges and spin densities:
               1          2
     1  C   -0.449388   1.599852
     2  H    0.413556  -0.173351
     3  C    0.611905  -0.985185
     4  C   -0.238374   0.178971
     5  O   -0.323855  -0.156301
     6  O   -0.148531  -0.000654
     7  C   -0.215473  -0.006033
     8  C   -0.409605  -0.001318
     9  H    0.136049   0.005564
    10  H    0.178832  -0.000257
    11  H    0.171537   0.000844
    12  H    0.122917   0.002908
    13  H    0.127259  -0.000962
    14  O   -0.256780   0.561027
    15  H    0.279949  -0.025103
 Sum of Mulliken charges =  -0.00000   1.00000

 Dipole moment (field-independent basis, Debye):
    X=             -1.1361    Y=             -3.8544    Z=              0.3117  Tot=              4.0304
 Quadrupole moment (field-independent basis, Debye-Ang):
   XX=            -44.2388   YY=            -55.1556   ZZ=            -47.0711
   XY=             -9.4827   XZ=             -5.9270   YZ=             -0.4817

 3-0=-419.2412186\MP4SDQ=-419.2502079\CCSD=-419.2592552\CCSD(T)=-419.31
 Normal termination of Gaussian 16 at Fri May  2 03:01:01 2025.
