 Gaussian 16, Revision A.03,
 Gaussian 16:  ES64L-G16RevA.03 25-Dec-2016

 --------------------------
 # freq 6-311++g(d,p) m062x
 --------------------------

 -------------------
 Title Card Required
 -------------------
 Symbolic Z-matrix:
 Charge =  0 Multiplicity = 2

                         Standard orientation:
 ---------------------------------------------------------------------
 Center     Atomic      Atomic             Coordinates (Angstroms)
 Number     Number       Type             X           Y           Z
 ---------------------------------------------------------------------
      1          6           0       -1.667332   -0.239600   -0.052235
      2          1           0       -2.867608   -0.797107    0.003813
      3          6           0       -0.636724    0.394167   -0.043164
      4          6           0        0.636859    1.126032    0.013821
      5          8           0        0.669476    2.275032    0.339301
      6          8           0        1.740350    0.458957   -0.326328
      7          6           0        1.700032   -0.948682   -0.623574
      8          6           0        1.755051   -1.772864    0.647168
      9          1           0        0.812436   -1.174774   -1.217204
     10          1           0        2.581641   -1.111961   -1.241351
     11          1           0        2.641176   -1.513033    1.227812
     12          1           0        0.868785   -1.604633    1.261113
     13          1           0        1.800384   -2.834649    0.396994
     14          8           0       -3.969707   -0.548895   -0.088014
     15          1           0       -4.085068    0.201093    0.517054
 ---------------------------------------------------------------------

 SCF Done:  E(UM062X) =  -420.168093592     A.U. after   22 cycles

 The electronic state is 2-A.
 Alpha  occ. eigenvalues --  -19.70936 -19.68554 -19.63237 -10.71227 -10.61569
 Alpha  occ. eigenvalues --  -10.60101 -10.58433 -10.54706  -1.25597  -1.19471
 Alpha  occ. eigenvalues --   -1.17056  -0.90089  -0.88833  -0.77698  -0.74074
 Alpha  occ. eigenvalues --   -0.68360  -0.63999  -0.58662  -0.58008  -0.57128
 Alpha  occ. eigenvalues --   -0.53450  -0.49917  -0.47682  -0.47310  -0.46412
 Alpha  occ. eigenvalues --   -0.43964  -0.42652  -0.40282  -0.39105  -0.37794
 Alpha  occ. eigenvalues --   -0.36790
 Alpha virt. eigenvalues --   -0.02544  -0.00962  -0.00123   0.01363   0.01421
 Alpha virt. eigenvalues --    0.03013   0.04221   0.04619   0.05039   0.05824
 Alpha virt. eigenvalues --    0.07115   0.07558   0.08069   0.09386   0.10043

  Beta  occ. eigenvalues --  -19.69822 -19.68557 -19.63218 -10.71215 -10.61570
  Beta  occ. eigenvalues --  -10.59319 -10.58339 -10.54706  -1.25583  -1.17021
  Beta  occ. eigenvalues --   -1.15148  -0.89060  -0.88622  -0.77391  -0.73288
  Beta  occ. eigenvalues --   -0.64492  -0.63393  -0.58623  -0.57174  -0.53562
  Beta  occ. eigenvalues --   -0.52594  -0.49914  -0.47581  -0.46342  -0.44120
  Beta  occ. eigenvalues --   -0.42698  -0.39684  -0.38687  -0.37196  -0.36398
  Beta virt. eigenvalues --   -0.17379  -0.01889  -0.00660   0.00063   0.01435
  Beta virt. eigenvalues --    0.01601   0.03081   0.04413   0.04871   0.05576
  Beta virt. eigenvalues --    0.05874   0.07209   0.07669   0.08198   0.09466

 Mulliken charges and spin densities:
               1          2
     1  C   -0.495510   0.511917
     2  H    0.436979  -0.034765
     3  C    0.528469  -0.007565
     4  C   -0.296488  -0.022320
     5  O   -0.246597   0.005039
     6  O   -0.030556   0.000082
     7  C   -0.354620  -0.005695
     8  C   -0.406521   0.002760
     9  H    0.163505   0.001159
    10  H    0.204913   0.000026
    11  H    0.187806   0.000159
    12  H    0.139026  -0.000088
    13  H    0.156089  -0.000272
    14  O   -0.260431   0.562908
    15  H    0.273936  -0.013345
 Sum of Mulliken charges =  -0.00000   1.00000

 Dipole moment (field-independent basis, Debye):
    X=             -0.8568    Y=             -3.3803    Z=              0.3518  Tot=              3.5049
 Quadrupole moment (field-independent basis, Debye-Ang):
   XX=            -43.6715   YY=            -54.2161   ZZ=            -47.2347
   XY=             -9.1274   XZ=             -5.7667   YZ=             -0.3986

  Exact polarizability: 120.332  14.021  76.523  -1.836   3.320  51.021
 Approx polarizability: 114.643  20.437  93.259  -0.854   7.183  60.160

 ******    2 imaginary frequencies (negative Signs) ******

                      1                      2                      3
                      A                      A                      A
 Frequencies --  -1497.6504               -43.8412                47.3701
 Red. masses --      1.0321                 2.7223                 6.0319
 Frc consts  --      1.3640                 0.0031                 0.0080
 IR Inten    --    629.7838                18.1666                 2.8752

                      4                      5                      6
                      A                      A                      A
 Frequencies --     77.8113               109.6616               148.3277
 Red. masses --      4.0818                 3.7438                 1.9935
 Frc consts  --      0.0146                 0.0265                 0.0258
 IR Inten    --      1.5794                 0.1724                56.2920

                      7                      8                      9
                      A                      A                      A
 Frequencies --    181.4643               228.2377               261.8939
 Red. masses --      2.0658                 1.1907                 6.0022
 Frc consts  --      0.0401                 0.0365                 0.2426
 IR Inten    --     37.4233                 0.2239                12.7874

                     10                     11                     12
                      A                      A                      A
 Frequencies --    358.8001               377.5696               419.8515
 Red. masses --      3.1223                 6.1912                 3.5681
 Frc consts  --      0.2368                 0.5200                 0.3706
 IR Inten    --      0.4294                 6.3223                 2.5818

                     13                     14                     15
                      A                      A                      A
 Frequencies --    564.7925               623.1618               653.8983
 Red. masses --      5.1893                 6.2891                 1.1655
 Frc consts  --      0.9753                 1.4389                 0.2936
 IR Inten    --     26.8507                11.6350               166.9464

                     16                     17                     18
                      A                      A                      A
 Frequencies --    752.2489               763.3060               814.0471
 Red. masses --      5.9733                 5.9531                 1.1683
 Frc consts  --      1.9915                 2.0436                 0.4561
 IR Inten    --      7.7524                22.4586                 5.5367

                     19                     20                     21
                      A                      A                      A
 Frequencies --    949.3005              1062.6803              1109.1740
 Red. masses --      2.1939                 1.3569                 2.9463
 Frc consts  --      1.1649                 0.9028                 2.1356
 IR Inten    --     12.1935                47.2619                57.1098

                     22                     23                     24
                      A                      A                      A
 Frequencies --   1133.8369              1179.3753              1260.1110
 Red. masses --      2.6596                 1.9222                 3.0254
 Frc consts  --      2.0145                 1.5752                 2.8304
 IR Inten    --     61.6116                71.3299               456.3577

                     25                     26                     27
                      A                      A                      A
 Frequencies --   1348.1468              1405.5011              1432.6241
 Red. masses --      1.2433                 1.2686                 1.3663
 Frc consts  --      1.3314                 1.4765                 1.6521
 IR Inten    --    123.4536                26.8205                16.6471

                     28                     29                     30
                      A                      A                      A
 Frequencies --   1492.9007              1501.9795              1503.1548
 Red. masses --      1.0405                 1.0471                 1.0721
 Frc consts  --      1.3664                 1.3917                 1.4272
 IR Inten    --      0.9403                16.5237               261.8991

                     31                     32                     33
                      A                      A                      A
 Frequencies --   1525.4225              1860.6823              2258.3156
 Red. masses --      1.0998                13.0296                10.6174
 Frc consts  --      1.5078                26.5782                31.9033
 IR Inten    --     20.4587               496.6153                20.0422

                     34                     35                     36
                      A                      A                      A
 Frequencies --   3073.4372              3101.6555              3145.9502
 Red. masses --      1.0353                 1.0624                 1.1041
 Frc consts  --      5.7621                 6.0216                 6.4383
 IR Inten    --      7.1723                15.1489                 0.8887

                     37                     38                     39
                      A                      A                      A
 Frequencies --   3152.3284              3167.8675              3814.2222
 Red. masses --      1.1012                 1.1062                 1.0667
 Frc consts  --      6.4473                 6.5404                 9.1431
 IR Inten    --     13.0783                24.2620               143.3099

 - Thermochemistry -
 -------------------
 Temperature   298.150 Kelvin.  Pressure   1.00000 Atm.
 Atom     1 has atomic number  6 and mass  12.00000

 Molecular mass:   115.03952 amu.
 Principal axes and moments of inertia in atomic units:
                           1         2         3
     Eigenvalues --   686.898341737.213202281.45212
           X            0.99904  -0.04383  -0.00238
           Y            0.04379   0.99894  -0.01384
           Z            0.00298   0.01372   0.99990
 This molecule is an asymmetric top.
 Rotational symmetry number  1.
 Warning -- assumption of classical behavior for rotation
           may cause significant error
 Rotational temperatures (Kelvin)      0.12609     0.04986     0.03796
 Rotational constants (GHZ):           2.62738     1.03887     0.79105
    2 imaginary frequencies ignored.
 Zero-point vibrational energy     280291.7 (Joules/Mol)
                                   66.99132 (Kcal/Mol)
 Warning -- explicit consideration of  11 degrees of freedom as
           vibrations may cause significant error
 Vibrational temperatures:     68.15   111.95   157.78   213.41   261.09
          (Kelvin)            328.38   376.81   516.23   543.24   604.07
                              812.61   896.59   940.81  1082.32  1098.23
                             1171.23  1365.83  1528.96  1595.85  1631.34
                             1696.86  1813.02  1939.68  2022.20  2061.23
                             2147.95  2161.01  2162.70  2194.74  2677.11
                             3249.21  4421.99  4462.59  4526.32  4535.50
                             4557.85  5487.82

 Zero-point correction=                           0.106757 (Hartree/Particle)
 Thermal correction to Energy=                    0.116036
 Thermal correction to Enthalpy=                  0.116980
 Thermal correction to Gibbs Free Energy=         0.070833
 Sum of electronic and zero-point Energies=           -420.061336
 Sum of electronic and thermal Energies=              -420.052058
 Sum of electronic and thermal Enthalpies=            -420.051114
 Sum of electronic and thermal Free Energies=         -420.097261

                     E (Thermal)             CV                S
                      KCal/Mol        Cal/Mol-Kelvin    Cal/Mol-Kelvin
 Total                   72.813             31.047             97.124
 Electronic               0.000              0.000              1.377
 Translational            0.889              2.981             40.136
 Rotational               0.889              2.981             29.389
 Vibrational             71.036             25.085             26.222
 Vibration     1          0.595              1.979              4.924
 Vibration     2          0.599              1.964              3.945
 Vibration     3          0.606              1.941              3.275
 Vibration     4          0.618              1.904              2.694
 Vibration     5          0.630              1.865              2.313
 Vibration     6          0.651              1.798              1.893
 Vibration     7          0.669              1.743              1.649
 Vibration     8          0.734              1.557              1.127
 Vibration     9          0.748              1.518              1.049
 Vibration    10          0.783              1.427              0.892
 Vibration    11          0.921              1.107              0.514

 1\1\GINC-AJ\Freq\UM062X\6-311++G(d,p)\C5H7O3(2)\AAYUSH\29-Mar-2025\0\\
 # freq 6-311++g(d,p) m062x\\Title Card Required\\0,2\C,-1.652701,-0.31
 3469,-0.044433\H,-2.853736,-0.869372,0.011285\C,-0.621244,0.318911,-0.
 035048\C,0.653311,1.049053,0.022314\O,0.687411,2.197946,0.348018\O,1.7
 55968,0.380559,-0.317754\C,1.713814,-1.026968,-0.615274\C,1.767487,-1.
 851464,0.655322\H,0.826027,-1.251755,-1.209113\H,2.595319,-1.191315,-1
 .232916\H,2.653851,-1.592934,1.236182\H,0.881332,-1.682157,1.269133\H,
 1.811439,-2.913261,0.404956\O,-3.955483,-0.619662,-0.080702\H,-4.06994

 Normal termination of Gaussian 16 at Sat Mar 29 01:16:19 2025.
