 Gaussian 16, Revision A.03,
 Gaussian 16:  ES64L-G16RevA.03 25-Dec-2016

 --------------------------
 # ccsd(t)/6-311++g(d,p) sp
 --------------------------

 -------------------
 Title Card Required
 -------------------
 Symbolic Z-matrix:
 Charge =  0 Multiplicity = 2

                         Standard orientation:
 ---------------------------------------------------------------------
 Center     Atomic      Atomic             Coordinates (Angstroms)
 Number     Number       Type             X           Y           Z
 ---------------------------------------------------------------------
      1          6           0       -1.656767   -0.228639   -0.058749
      2          1           0       -3.086561   -0.940140    0.094785
      3          6           0       -0.627467    0.405321   -0.044682
      4          6           0        0.647094    1.125479    0.015242
      5          8           0        0.680987    2.274125    0.340855
      6          8           0        1.745432    0.453414   -0.325626
      7          6           0        1.698178   -0.953966   -0.624097
      8          6           0        1.748651   -1.779338    0.646033
      9          1           0        0.809908   -1.175025   -1.218579
     10          1           0        2.579369   -1.120636   -1.241453
     11          1           0        2.635463   -1.523911    1.227539
     12          1           0        0.862765   -1.607960    1.259693
     13          1           0        1.789581   -2.841056    0.394906
     14          8           0       -3.974755   -0.528112   -0.096535
     15          1           0       -4.061967    0.200170    0.531088
 ---------------------------------------------------------------------

 SCF Done:  E(UHF) =  -417.930430129     A.U. after   33 cycles
 E2 =    -0.1264063014D+01 EUMP2 =    -0.41919449314347D+03
 CCSD(T)= -0.41931661493D+03

 The electronic state is 2-A.
 Alpha  occ. eigenvalues --  -20.61915 -20.61022 -20.56233 -11.42490 -11.32948
 Alpha  occ. eigenvalues --  -11.31348 -11.27174 -11.24190  -1.48435  -1.40238
 Alpha  occ. eigenvalues --   -1.38526  -1.10057  -1.05935  -0.92861  -0.88492
 Alpha  occ. eigenvalues --   -0.79542  -0.75496  -0.70034  -0.67771  -0.67274
 Alpha  occ. eigenvalues --   -0.63994  -0.59266  -0.58245  -0.56140  -0.55571
 Alpha  occ. eigenvalues --   -0.54979  -0.51906  -0.49352  -0.48193  -0.46052
 Alpha  occ. eigenvalues --   -0.44970
 Alpha virt. eigenvalues --    0.03337   0.04544   0.05303   0.06027   0.07212
 Alpha virt. eigenvalues --    0.07888   0.08642   0.08761   0.10735   0.12002
 Alpha virt. eigenvalues --    0.12903   0.13258   0.14330   0.15376   0.15729

  Beta  occ. eigenvalues --  -20.61833 -20.59686 -20.57101 -11.41899 -11.31370
  Beta  occ. eigenvalues --  -11.29024 -11.27405 -11.24191  -1.48726  -1.39827
  Beta  occ. eigenvalues --   -1.35844  -1.08166  -1.05918  -0.91631  -0.86622
  Beta  occ. eigenvalues --   -0.75741  -0.73681  -0.70842  -0.67815  -0.64446
  Beta  occ. eigenvalues --   -0.59780  -0.59565  -0.57217  -0.55792  -0.52688
  Beta  occ. eigenvalues --   -0.52074  -0.49795  -0.48022  -0.45198  -0.44510
  Beta virt. eigenvalues --   -0.01261   0.03735   0.05054   0.05803   0.06033
  Beta virt. eigenvalues --    0.07434   0.08406   0.08708   0.10447   0.10838
  Beta virt. eigenvalues --    0.12173   0.13073   0.13613   0.14960   0.15386

 Mulliken charges and spin densities:
               1          2
     1  C   -0.368002   1.996044
     2  H    0.348711  -0.090839
     3  C    0.680415  -1.136258
     4  C   -0.225175   0.210085
     5  O   -0.315190  -0.185160
     6  O   -0.147303  -0.000633
     7  C   -0.224600  -0.005238
     8  C   -0.406837  -0.001930
     9  H    0.136263   0.006845
    10  H    0.179648  -0.000140
    11  H    0.173351   0.000963
    12  H    0.119110   0.003823
    13  H    0.130054  -0.001264
    14  O   -0.356981   0.216426
    15  H    0.276535  -0.012724
 Sum of Mulliken charges =  -0.00000   1.00000

 Dipole moment (field-independent basis, Debye):
    X=              0.1508    Y=             -4.0089    Z=              0.4894  Tot=              4.0415
 Quadrupole moment (field-independent basis, Debye-Ang):
   XX=            -51.7544   YY=            -54.2139   ZZ=            -46.8531
   XY=             -9.3639   XZ=             -6.5333   YZ=             -0.6439

 1\PMP3-0=-419.2408476\MP4SDQ=-419.2485744\CCSD=-419.2609458\CCSD(T)=-4
 Normal termination of Gaussian 16 at Wed May  7 01:35:26 2025.
