 Gaussian 16, Revision A.03,
 Gaussian 16:  ES64L-G16RevA.03 25-Dec-2016

 --------------------------
 # ccsd(t)/6-311++g(d,p) sp
 --------------------------

 -------------------
 Title Card Required
 -------------------
 Symbolic Z-matrix:
 Charge =  0 Multiplicity = 2

                         Standard orientation:
 ---------------------------------------------------------------------
 Center     Atomic      Atomic             Coordinates (Angstroms)
 Number     Number       Type             X           Y           Z
 ---------------------------------------------------------------------
      1          6           0       -1.669814   -0.242248   -0.051023
      2          1           0       -2.737564   -0.777383   -0.007396
      3          6           0       -0.639728    0.391038   -0.043065
      4          6           0        0.633260    1.126446    0.013582
      5          8           0        0.666118    2.275597    0.339134
      6          8           0        1.738675    0.460544   -0.326447
      7          6           0        1.700009   -0.947017   -0.623526
      8          6           0        1.756060   -1.771097    0.647295
      9          1           0        0.812682   -1.174391   -1.216976
     10          1           0        2.581834   -1.109581   -1.241269
     11          1           0        2.641944   -1.510165    1.227841
     12          1           0        0.869654   -1.603587    1.261224
     13          1           0        1.802577   -2.832910    0.397316
     14          8           0       -3.974485   -0.553116   -0.087205
     15          1           0       -4.092314    0.201087    0.515824
 ---------------------------------------------------------------------

 SCF Done:  E(UHF) =  -417.943161246     A.U. after   42 cycles
 E2 =    -0.1272791600D+01 EUMP2 =    -0.41921595284617D+03
 CCSD(T)= -0.41932438233D+03

 The electronic state is 2-A.
 Alpha  occ. eigenvalues --  -20.68701 -20.60946 -20.55049 -11.41341 -11.30374
 Alpha  occ. eigenvalues --  -11.27549 -11.25530 -11.23288  -1.47330  -1.46043
 Alpha  occ. eigenvalues --   -1.37633  -1.06794  -1.04960  -0.91573  -0.87663
 Alpha  occ. eigenvalues --   -0.82590  -0.74467  -0.73391  -0.69060  -0.66516
 Alpha  occ. eigenvalues --   -0.63144  -0.62588  -0.58739  -0.57801  -0.55163
 Alpha  occ. eigenvalues --   -0.54641  -0.50933  -0.47326  -0.45927  -0.42719
 Alpha  occ. eigenvalues --   -0.42456
 Alpha virt. eigenvalues --    0.03352   0.04224   0.05711   0.06078   0.07509
 Alpha virt. eigenvalues --    0.08648   0.09116   0.09571   0.11158   0.12621
 Alpha virt. eigenvalues --    0.13207   0.14007   0.14878   0.15707   0.16166

  Beta  occ. eigenvalues --  -20.64861 -20.60911 -20.55464 -11.41072 -11.30383
  Beta  occ. eigenvalues --  -11.26508 -11.25437 -11.23288  -1.47463  -1.38261
  Beta  occ. eigenvalues --   -1.31896  -1.06241  -1.04936  -0.90899  -0.86312
  Beta  occ. eigenvalues --   -0.75405  -0.73960  -0.69428  -0.66639  -0.64462
  Beta  occ. eigenvalues --   -0.63072  -0.58486  -0.56072  -0.55799  -0.54689
  Beta  occ. eigenvalues --   -0.51006  -0.47965  -0.46577  -0.42323  -0.42036
  Beta virt. eigenvalues --    0.00844   0.04065   0.05129   0.05708   0.06182
  Beta virt. eigenvalues --    0.07550   0.08691   0.09209   0.10359   0.11197
  Beta virt. eigenvalues --    0.12716   0.13259   0.14019   0.15342   0.15801

 Mulliken charges and spin densities:
               1          2
     1  C   -0.511667   0.792266
     2  H    0.445779  -0.106966
     3  C    0.546182  -0.541583
     4  C   -0.241144   0.099389
     5  O   -0.335904  -0.087877
     6  O   -0.149081   0.000036
     7  C   -0.206467  -0.003567
     8  C   -0.413292  -0.000504
     9  H    0.137171   0.002719
    10  H    0.177544  -0.000107
    11  H    0.169670   0.000417
    12  H    0.125797   0.001284
    13  H    0.124324  -0.000452
    14  O   -0.150807   0.880622
    15  H    0.281893  -0.035676
 Sum of Mulliken charges =  -0.00000   1.00000

 Dipole moment (field-independent basis, Debye):
    X=             -2.3849    Y=             -3.9914    Z=              0.2824  Tot=              4.6582
 Quadrupole moment (field-independent basis, Debye-Ang):
   XX=            -37.5599   YY=            -55.6771   ZZ=            -47.2710
   XY=             -8.6683   XZ=             -5.8874   YZ=             -0.4933

 PMP3-0=-419.2479873\MP4SDQ=-419.2671639\CCSD=-419.2694967\CCSD(T)=-419
 Normal termination of Gaussian 16 at Sun May  4 19:05:52 2025.
