 Gaussian 16, Revision A.03,
 Gaussian 16:  ES64L-G16RevA.03 25-Dec-2016

 --------------------------
 # freq 6-311++g(d,p) m062x
 --------------------------

 -------------------
 Title Card Required
 -------------------
 Symbolic Z-matrix:
 Charge =  0 Multiplicity = 2

                         Standard orientation:
 ---------------------------------------------------------------------
 Center     Atomic      Atomic             Coordinates (Angstroms)
 Number     Number       Type             X           Y           Z
 ---------------------------------------------------------------------
      1          6           0       -1.666526   -0.238865   -0.052580
      2          1           0       -2.892724   -0.804496    0.007788
      3          6           0       -0.636003    0.394972   -0.043216
      4          6           0        0.637686    1.125955    0.013889
      5          8           0        0.670297    2.274919    0.339360
      6          8           0        1.740733    0.458563   -0.326293
      7          6           0        1.699976   -0.949081   -0.623593
      8          6           0        1.754716   -1.773311    0.647120
      9          1           0        0.812323   -1.174843   -1.217274
     10          1           0        2.581540   -1.112562   -1.241366
     11          1           0        2.640897   -1.513769    1.227803
     12          1           0        0.868485   -1.604885    1.261065
     13          1           0        1.799748   -2.835088    0.396891
     14          8           0       -3.969273   -0.547666   -0.088336
     15          1           0       -4.083428    0.201084    0.517523
 ---------------------------------------------------------------------

 SCF Done:  E(UM062X) =  -420.167622934     A.U. after   22 cycles

 The electronic state is 2-A.
 Alpha  occ. eigenvalues --  -19.70636 -19.68605 -19.63307 -10.71289 -10.61607
 Alpha  occ. eigenvalues --  -10.60357 -10.58528 -10.54737  -1.25658  -1.19451
 Alpha  occ. eigenvalues --   -1.17120  -0.90212  -0.88875  -0.77745  -0.74103
 Alpha  occ. eigenvalues --   -0.68379  -0.64053  -0.58710  -0.57757  -0.57168
 Alpha  occ. eigenvalues --   -0.53500  -0.49961  -0.47699  -0.47178  -0.46435
 Alpha  occ. eigenvalues --   -0.43848  -0.42683  -0.40367  -0.39186  -0.37871
 Alpha  occ. eigenvalues --   -0.36871
 Alpha virt. eigenvalues --   -0.02609  -0.00938  -0.00115   0.01348   0.01406
 Alpha virt. eigenvalues --    0.02996   0.04197   0.04577   0.05015   0.05807
 Alpha virt. eigenvalues --    0.07091   0.07563   0.08049   0.09373   0.10041

  Beta  occ. eigenvalues --  -19.69580 -19.68609 -19.63286 -10.71276 -10.61608
  Beta  occ. eigenvalues --  -10.59521 -10.58430 -10.54737  -1.25642  -1.17081
  Beta  occ. eigenvalues --   -1.15397  -0.89102  -0.88659  -0.77424  -0.73302
  Beta  occ. eigenvalues --   -0.64554  -0.63523  -0.58672  -0.57229  -0.53567
  Beta  occ. eigenvalues --   -0.52407  -0.49959  -0.47623  -0.46381  -0.44065
  Beta  occ. eigenvalues --   -0.42737  -0.39725  -0.38729  -0.37236  -0.36435
  Beta virt. eigenvalues --   -0.17506  -0.01899  -0.00652   0.00074   0.01420
  Beta virt. eigenvalues --    0.01595   0.03071   0.04391   0.04849   0.05582
  Beta virt. eigenvalues --    0.05858   0.07189   0.07670   0.08180   0.09445

 Mulliken charges and spin densities:
               1          2
     1  C   -0.491411   0.555239
     2  H    0.434792  -0.035513
     3  C    0.534197  -0.010040
     4  C   -0.295292  -0.023598
     5  O   -0.245910   0.005464
     6  O   -0.030340   0.000106
     7  C   -0.355440  -0.006023
     8  C   -0.406344   0.002882
     9  H    0.163893   0.001311
    10  H    0.204969   0.000021
    11  H    0.187880   0.000180
    12  H    0.139029  -0.000067
    13  H    0.156297  -0.000300
    14  O   -0.270590   0.522668
    15  H    0.274269  -0.012329
 Sum of Mulliken charges =  -0.00000   1.00000

 Dipole moment (field-independent basis, Debye):
    X=             -0.7621    Y=             -3.3703    Z=              0.3618  Tot=              3.4743
 Quadrupole moment (field-independent basis, Debye-Ang):
   XX=            -44.1723   YY=            -54.1625   ZZ=            -47.2271
   XY=             -9.1633   XZ=             -5.8043   YZ=             -0.4051

  Exact polarizability: 121.184  14.473  76.843  -1.868   3.318  51.078
 Approx polarizability: 115.344  20.805  93.639  -0.848   7.187  60.192

 ******    1 imaginary frequencies (negative Signs) ******

                      1                      2                      3
                      A                      A                      A
 Frequencies --  -1355.5778                20.3680                51.3976
 Red. masses --      1.0300                 2.8610                 5.7204
 Frc consts  --      1.1152                 0.0007                 0.0089
 IR Inten    --    552.4868                16.9423                 2.4293

                      4                      5                      6
                      A                      A                      A
 Frequencies --     78.4135               110.0865               144.2618
 Red. masses --      4.0859                 3.7912                 1.9127
 Frc consts  --      0.0148                 0.0271                 0.0235
 IR Inten    --      2.2931                 0.2122                59.6655

                      7                      8                      9
                      A                      A                      A
 Frequencies --    178.1916               227.8195               256.5677
 Red. masses --      2.1526                 1.1829                 6.5018
 Frc consts  --      0.0403                 0.0362                 0.2522
 IR Inten    --     32.1050                 0.1400                12.1138

                     10                     11                     12
                      A                      A                      A
 Frequencies --    356.7329               367.3585               417.5745
 Red. masses --      3.7285                 4.6292                 3.5532
 Frc consts  --      0.2796                 0.3681                 0.3650
 IR Inten    --      0.1702                 7.4738                 3.6170

                     13                     14                     15
                      A                      A                      A
 Frequencies --    561.0932               620.3688               632.0207
 Red. masses --      5.3497                 4.6511                 1.2188
 Frc consts  --      0.9923                 1.0546                 0.2869
 IR Inten    --     37.0173                28.3384               151.8472

                     16                     17                     18
                      A                      A                      A
 Frequencies --    751.5340               763.0007               814.1472
 Red. masses --      6.5414                 5.7749                 1.1724
 Frc consts  --      2.1768                 1.9808                 0.4579
 IR Inten    --     10.5662                18.9995                 4.8965

                     19                     20                     21
                      A                      A                      A
 Frequencies --    950.1200              1099.2347              1119.2343
 Red. masses --      2.2225                 2.3273                 1.6151
 Frc consts  --      1.1821                 1.6568                 1.1920
 IR Inten    --     10.2001                39.7004                42.1121

                     22                     23                     24
                      A                      A                      A
 Frequencies --   1136.9004              1179.3297              1259.8536
 Red. masses --      2.3768                 1.9196                 3.0278
 Frc consts  --      1.8101                 1.5730                 2.8315
 IR Inten    --     82.8716                72.0515               462.5281

                     25                     26                     27
                      A                      A                      A
 Frequencies --   1348.1293              1405.5508              1432.6818
 Red. masses --      1.2427                 1.2687                 1.3669
 Frc consts  --      1.3307                 1.4767                 1.6531
 IR Inten    --    124.0635                27.6738                18.2353

                     28                     29                     30
                      A                      A                      A
 Frequencies --   1493.0267              1501.9796              1525.4366
 Red. masses --      1.0400                 1.0470                 1.0998
 Frc consts  --      1.3659                 1.3916                 1.5078
 IR Inten    --      1.9750                 4.0992                20.1468

                     31                     32                     33
                      A                      A                      A
 Frequencies --   1563.2027              1860.6620              2251.8192
 Red. masses --      1.0751                13.0327                10.4235
 Frc consts  --      1.5478                26.5839                31.1408
 IR Inten    --    341.1514               493.1887                17.7660

                     34                     35                     36
                      A                      A                      A
 Frequencies --   3073.4768              3101.6468              3145.9972
 Red. masses --      1.0353                 1.0624                 1.1041
 Frc consts  --      5.7623                 6.0217                 6.4384
 IR Inten    --      7.1190                15.1382                 0.9052

                     37                     38                     39
                      A                      A                      A
 Frequencies --   3152.4117              3167.9251              3821.6157
 Red. masses --      1.1012                 1.1062                 1.0666
 Frc consts  --      6.4476                 6.5406                 9.1784
 IR Inten    --     12.9634                24.2005               149.8897

 - Thermochemistry -
 -------------------
 Temperature   298.150 Kelvin.  Pressure   1.00000 Atm.
 Atom     1 has atomic number  6 and mass  12.00000

 Molecular mass:   115.03952 amu.
 Principal axes and moments of inertia in atomic units:
                           1         2         3
     Eigenvalues --   686.958241737.436942281.72490
           X            0.99904  -0.04368  -0.00241
           Y            0.04364   0.99895  -0.01386
           Z            0.00301   0.01374   0.99990
 This molecule is an asymmetric top.
 Rotational symmetry number  1.
 Warning -- assumption of classical behavior for rotation
           may cause significant error
 Rotational temperatures (Kelvin)      0.12608     0.04985     0.03796
 Rotational constants (GHZ):           2.62715     1.03874     0.79095
    1 imaginary frequencies ignored.
 Zero-point vibrational energy     280770.6 (Joules/Mol)
                                   67.10577 (Kcal/Mol)
 Warning -- explicit consideration of  13 degrees of freedom as
           vibrations may cause significant error
 Vibrational temperatures:     29.30    73.95   112.82   158.39   207.56
          (Kelvin)            256.38   327.78   369.14   513.26   528.55
                              600.80   807.29   892.57   909.34  1081.29
                             1097.79  1171.38  1367.01  1581.55  1610.33
                             1635.75  1696.79  1812.65  1939.66  2022.27
                             2061.31  2148.13  2161.01  2194.76  2249.10
                             2677.08  3239.87  4422.05  4462.58  4526.39
                             4535.62  4557.94  5498.45

 Zero-point correction=                           0.106940 (Hartree/Particle)
 Thermal correction to Energy=                    0.117150
 Thermal correction to Enthalpy=                  0.118094
 Thermal correction to Gibbs Free Energy=         0.068798
 Sum of electronic and zero-point Energies=           -420.060683
 Sum of electronic and thermal Energies=              -420.050473
 Sum of electronic and thermal Enthalpies=            -420.049529
 Sum of electronic and thermal Free Energies=         -420.098825

                     E (Thermal)             CV                S
                      KCal/Mol        Cal/Mol-Kelvin    Cal/Mol-Kelvin
 Total                   73.513             33.081            103.752
 Electronic               0.000              0.000              1.377
 Translational            0.889              2.981             40.136
 Rotational               0.889              2.981             29.389
 Vibrational             71.735             27.120             32.850
 Vibration     1          0.593              1.986              6.598
 Vibration     2          0.596              1.977              4.763
 Vibration     3          0.600              1.964              3.930
 Vibration     4          0.606              1.941              3.267
 Vibration     5          0.616              1.909              2.747
 Vibration     6          0.629              1.869              2.347
 Vibration     7          0.651              1.799              1.896
 Vibration     8          0.666              1.752              1.685
 Vibration     9          0.732              1.561              1.136
 Vibration    10          0.740              1.539              1.091
 Vibration    11          0.781              1.432              0.900
 Vibration    12          0.917              1.115              0.522
 Vibration    13          0.980              0.989              0.416

 1\1\GINC-AJ\Freq\UM062X\6-311++G(d,p)\C5H7O3(2)\AAYUSH\29-Mar-2025\0\\
 # freq 6-311++g(d,p) m062x\\Title Card Required\\0,2\C,-1.652023,-0.31
 3294,-0.044674\H,-2.878827,-0.877639,0.015418\C,-0.620832,0.319452,-0.
 035053\C,0.65362,1.04908,0.022361\O,0.687395,2.197959,0.348013\O,1.756
 013,0.380575,-0.317754\C,1.713815,-1.02698,-0.615277\C,1.767488,-1.851
 462,0.655318\H,0.826015,-1.251712,-1.20913\H,2.595301,-1.191297,-1.232
 939\H,2.653853,-1.592946,1.236177\H,0.88134,-1.682194,1.269152\H,1.811
 436,-2.913248,0.404932\O,-3.955089,-0.619656,-0.080832\H,-4.068547,0.1

 Normal termination of Gaussian 16 at Sat Mar 29 01:18:39 2025.
