 Gaussian 16, Revision A.03,
 Gaussian 16:  ES64L-G16RevA.03 25-Dec-2016

 --------------------------
 # freq 6-311++g(d,p) m062x
 --------------------------

 -------------------
 Title Card Required
 -------------------
 Symbolic Z-matrix:
 Charge =  0 Multiplicity = 2

                         Standard orientation:
 ---------------------------------------------------------------------
 Center     Atomic      Atomic             Coordinates (Angstroms)
 Number     Number       Type             X           Y           Z
 ---------------------------------------------------------------------
      1          6           0       -1.665601   -0.238018   -0.053206
      2          1           0       -2.916789   -0.813889    0.012430
      3          6           0       -0.635220    0.395874   -0.043314
      4          6           0        0.638559    1.125881    0.014167
      5          8           0        0.671150    2.274772    0.339764
      6          8           0        1.741173    0.458171   -0.326004
      7          6           0        1.699956   -0.949441   -0.623535
      8          6           0        1.754237   -1.773873    0.647056
      9          1           0        0.812308   -1.174775   -1.217396
     10          1           0        2.581544   -1.113096   -1.241211
     11          1           0        2.640410   -1.514717    1.227923
     12          1           0        0.867971   -1.605295    1.260922
     13          1           0        1.798961   -2.835617    0.396660
     14          8           0       -3.969110   -0.546220   -0.089263
     15          1           0       -4.081689    0.201058    0.517712
 ---------------------------------------------------------------------

 SCF Done:  E(UM062X) =  -420.167333919     A.U. after   22 cycles

 The electronic state is 2-A.
 Alpha  occ. eigenvalues --  -19.70336 -19.68650 -19.63367 -10.71342 -10.61642
 Alpha  occ. eigenvalues --  -10.60587 -10.58609 -10.54765  -1.25712  -1.19434
 Alpha  occ. eigenvalues --   -1.17176  -0.90324  -0.88913  -0.77787  -0.74127
 Alpha  occ. eigenvalues --   -0.68373  -0.64101  -0.58754  -0.57534  -0.57181
 Alpha  occ. eigenvalues --   -0.53543  -0.50000  -0.47726  -0.47064  -0.46449
 Alpha  occ. eigenvalues --   -0.43763  -0.42709  -0.40444  -0.39260  -0.37938
 Alpha  occ. eigenvalues --   -0.36942
 Alpha virt. eigenvalues --   -0.02668  -0.00919  -0.00106   0.01332   0.01392
 Alpha virt. eigenvalues --    0.02982   0.04174   0.04538   0.04995   0.05792
 Alpha virt. eigenvalues --    0.07069   0.07570   0.08031   0.09360   0.10038

  Beta  occ. eigenvalues --  -19.69337 -19.68654 -19.63345 -10.71329 -10.61642
  Beta  occ. eigenvalues --  -10.59702 -10.58508 -10.54766  -1.25695  -1.17135
  Beta  occ. eigenvalues --   -1.15623  -0.89140  -0.88693  -0.77454  -0.73314
  Beta  occ. eigenvalues --   -0.64627  -0.63650  -0.58716  -0.57278  -0.53583
  Beta  occ. eigenvalues --   -0.52228  -0.50000  -0.47661  -0.46416  -0.44005
  Beta  occ. eigenvalues --   -0.42773  -0.39761  -0.38766  -0.37270  -0.36467
  Beta virt. eigenvalues --   -0.17568  -0.01900  -0.00647   0.00085   0.01405
  Beta virt. eigenvalues --    0.01590   0.03062   0.04368   0.04827   0.05598
  Beta virt. eigenvalues --    0.05844   0.07171   0.07673   0.08165   0.09425

 Mulliken charges and spin densities:
               1          2
     1  C   -0.487127   0.595468
     2  H    0.431062  -0.035960
     3  C    0.539844  -0.012412
     4  C   -0.293723  -0.024779
     5  O   -0.245330   0.005787
     6  O   -0.030152   0.000115
     7  C   -0.356283  -0.006306
     8  C   -0.406173   0.002987
     9  H    0.164275   0.001468
    10  H    0.204992   0.000017
    11  H    0.187950   0.000199
    12  H    0.139002  -0.000041
    13  H    0.156493  -0.000327
    14  O   -0.279519   0.485224
    15  H    0.274690  -0.011439
 Sum of Mulliken charges =  -0.00000   1.00000

 Dipole moment (field-independent basis, Debye):
    X=             -0.6753    Y=             -3.3659    Z=              0.3729  Tot=              3.4531
 Quadrupole moment (field-independent basis, Debye-Ang):
   XX=            -44.6453   YY=            -54.1049   ZZ=            -47.2204
   XY=             -9.1833   XZ=             -5.8479   YZ=             -0.4156

  Exact polarizability: 122.056  14.950  77.178  -1.915   3.315  51.143
 Approx polarizability: 115.724  21.069  93.964  -0.844   7.189  60.224

 ******    1 imaginary frequencies (negative Signs) ******

                      1                      2                      3
                      A                      A                      A
 Frequencies --  -1172.5281                38.3946                51.6461
 Red. masses --      1.0323                 2.9819                 5.6088
 Frc consts  --      0.8362                 0.0026                 0.0088
 IR Inten    --    453.5637                15.8769                 2.2231

                      4                      5                      6
                      A                      A                      A
 Frequencies --     78.2604               109.8661               137.8577
 Red. masses --      3.9587                 3.8676                 1.8168
 Frc consts  --      0.0143                 0.0275                 0.0203
 IR Inten    --      3.1375                 0.1813                63.6493

                      7                      8                      9
                      A                      A                      A
 Frequencies --    173.9441               227.4089               250.3645
 Red. masses --      2.2923                 1.1750                 7.0211
 Frc consts  --      0.0409                 0.0358                 0.2593
 IR Inten    --     25.2022                 0.0795                11.9166

                     10                     11                     12
                      A                      A                      A
 Frequencies --    349.2241               360.8970               416.0391
 Red. masses --      6.5783                 2.9491                 3.5704
 Frc consts  --      0.4727                 0.2263                 0.3641
 IR Inten    --      5.6498                 5.5853                 4.8120

                     13                     14                     15
                      A                      A                      A
 Frequencies --    557.7304               606.2703               619.8970
 Red. masses --      5.5387                 1.1506                 5.5547
 Frc consts  --      1.0151                 0.2492                 1.2576
 IR Inten    --     49.8925               171.7295                 7.5878

                     16                     17                     18
                      A                      A                      A
 Frequencies --    750.8512               763.1475               814.2746
 Red. masses --      7.2107                 5.5490                 1.1774
 Frc consts  --      2.3952                 1.9041                 0.4600
 IR Inten    --     13.7458                15.9345                 4.2925

                     19                     20                     21
                      A                      A                      A
 Frequencies --    950.7048              1105.2771              1131.2565
 Red. masses --      2.2394                 3.4349                 2.4167
 Frc consts  --      1.1925                 2.4724                 1.8222
 IR Inten    --      9.2203                54.3855                44.3218

                     22                     23                     24
                      A                      A                      A
 Frequencies --   1177.8949              1185.2805              1259.7209
 Red. masses --      1.8320                 1.3106                 3.0250
 Frc consts  --      1.4976                 1.0848                 2.8282
 IR Inten    --     86.9259                46.5705               466.3302

                     25                     26                     27
                      A                      A                      A
 Frequencies --   1348.1266              1405.5958              1432.7145
 Red. masses --      1.2424                 1.2688                 1.3671
 Frc consts  --      1.3304                 1.4769                 1.6533
 IR Inten    --    124.5567                28.1753                19.0149

                     28                     29                     30
                      A                      A                      A
 Frequencies --   1493.0453              1501.9674              1525.4503
 Red. masses --      1.0400                 1.0470                 1.0998
 Frc consts  --      1.3659                 1.3917                 1.5078
 IR Inten    --      2.3320                 3.9981                20.2707

                     31                     32                     33
                      A                      A                      A
 Frequencies --   1653.0623              1860.6954              2247.2482
 Red. masses --      1.0871                13.0342                 9.9919
 Frc consts  --      1.7502                26.5880                29.7303
 IR Inten    --    440.6018               489.9698                15.8626

                     34                     35                     36
                      A                      A                      A
 Frequencies --   3073.4956              3101.6550              3146.0193
 Red. masses --      1.0353                 1.0624                 1.1041
 Frc consts  --      5.7624                 6.0219                 6.4384
 IR Inten    --      7.0714                15.1417                 0.9303

                     37                     38                     39
                      A                      A                      A
 Frequencies --   3152.4846              3167.9697              3829.2097
 Red. masses --      1.1012                 1.1062                 1.0666
 Frc consts  --      6.4480                 6.5408                 9.2148
 IR Inten    --     12.8559                24.1677               154.9371

 - Thermochemistry -
 -------------------
 Temperature   298.150 Kelvin.  Pressure   1.00000 Atm.
 Atom     1 has atomic number  6 and mass  12.00000

 Molecular mass:   115.03952 amu.
 Principal axes and moments of inertia in atomic units:
                           1         2         3
     Eigenvalues --   687.032071737.739622282.08697
           X            0.99905  -0.04352  -0.00256
           Y            0.04348   0.99896  -0.01400
           Z            0.00317   0.01387   0.99990
 This molecule is an asymmetric top.
 Rotational symmetry number  1.
 Warning -- assumption of classical behavior for rotation
           may cause significant error
 Rotational temperatures (Kelvin)      0.12607     0.04984     0.03795
 Rotational constants (GHZ):           2.62687     1.03856     0.79083
    1 imaginary frequencies ignored.
 Zero-point vibrational energy     281451.1 (Joules/Mol)
                                   67.26843 (Kcal/Mol)
 Warning -- explicit consideration of  14 degrees of freedom as
           vibrations may cause significant error
 Vibrational temperatures:     55.24    74.31   112.60   158.07   198.35
          (Kelvin)            250.27   327.19   360.22   502.46   519.25
                              598.59   802.45   872.29   891.89  1080.31
                             1098.00  1171.56  1367.85  1590.25  1627.63
                             1694.73  1705.35  1812.46  1939.65  2022.34
                             2061.36  2148.16  2161.00  2194.78  2378.39
                             2677.13  3233.29  4422.07  4462.59  4526.42
                             4535.72  4558.00  5509.38

 Zero-point correction=                           0.107199 (Hartree/Particle)
 Thermal correction to Energy=                    0.117423
 Thermal correction to Enthalpy=                  0.118368
 Thermal correction to Gibbs Free Energy=         0.069539
 Sum of electronic and zero-point Energies=           -420.060135
 Sum of electronic and thermal Energies=              -420.049910
 Sum of electronic and thermal Enthalpies=            -420.048966
 Sum of electronic and thermal Free Energies=         -420.097795

                     E (Thermal)             CV                S
                      KCal/Mol        Cal/Mol-Kelvin    Cal/Mol-Kelvin
 Total                   73.684             33.129            102.769
 Electronic               0.000              0.000              1.377
 Translational            0.889              2.981             40.136
 Rotational               0.889              2.981             29.389
 Vibrational             71.907             27.168             31.867
 Vibration     1          0.594              1.982              5.340
 Vibration     2          0.596              1.977              4.753
 Vibration     3          0.600              1.964              3.934
 Vibration     4          0.606              1.941              3.271
 Vibration     5          0.614              1.916              2.833
 Vibration     6          0.627              1.875              2.392
 Vibration     7          0.651              1.799              1.899
 Vibration     8          0.663              1.762              1.728
 Vibration     9          0.726              1.577              1.170
 Vibration    10          0.735              1.553              1.118
 Vibration    11          0.779              1.435              0.906
 Vibration    12          0.913              1.123              0.528
 Vibration    13          0.965              1.019              0.439
 Vibration    14          0.980              0.990              0.417

 1\1\GINC-AJ\Freq\UM062X\6-311++G(d,p)\C5H7O3(2)\AAYUSH\29-Mar-2025\0\\
 # freq 6-311++g(d,p) m062x\\Title Card Required\\0,2\C,-1.651214,-0.31
 3087,-0.044956\H,-2.902826,-0.888037,0.02068\C,-0.620367,0.320046,-0.0
 35064\C,0.653949,1.049115,0.022417\O,0.687386,2.197981,0.348014\O,1.75
 6071,0.380593,-0.317754\C,1.713818,-1.026988,-0.615285\C,1.767492,-1.8
 5146,0.655306\H,0.826004,-1.251669,-1.209146\H,2.595285,-1.191292,-1.2
 32961\H,2.653855,-1.592957,1.236173\H,0.88135,-1.68223,1.269172\H,1.81
 1434,-2.913237,0.40491\O,-3.95495,-0.619593,-0.081013\H,-4.066978,0.12

 Normal termination of Gaussian 16 at Sat Mar 29 01:21:02 2025.
