 Gaussian 16, Revision A.03,
 Gaussian 16:  ES64L-G16RevA.03 25-Dec-2016

 --------------------------
 # ccsd(t)/6-311++g(d,p) sp
 --------------------------

 -------------------
 Title Card Required
 -------------------
 Symbolic Z-matrix:
 Charge =  0 Multiplicity = 2

                         Standard orientation:
 ---------------------------------------------------------------------
 Center     Atomic      Atomic             Coordinates (Angstroms)
 Number     Number       Type             X           Y           Z
 ---------------------------------------------------------------------
      1          6           0       -1.660439   -0.233042   -0.055819
      2          1           0       -3.018748   -0.879307    0.052452
      3          6           0       -0.630869    0.401213   -0.043930
      4          6           0        0.643360    1.125584    0.014575
      5          8           0        0.676352    2.274355    0.340046
      6          8           0        1.743411    0.455606   -0.325969
      7          6           0        1.699032   -0.951964   -0.623841
      8          6           0        1.751428   -1.776721    0.646593
      9          1           0        0.810995   -1.175073   -1.217959
     10          1           0        2.580334   -1.117171   -1.241448
     11          1           0        2.637997   -1.519487    1.227679
     12          1           0        0.865418   -1.606669    1.260431
     13          1           0        1.794115   -2.838464    0.395889
     14          8           0       -3.971565   -0.536855   -0.092416
     15          1           0       -4.070762    0.200909    0.524206
 ---------------------------------------------------------------------

 SCF Done:  E(UHF) =  -417.926150609     A.U. after   34 cycles
 E2 =    -0.1267543832D+01 EUMP2 =    -0.41919369444149D+03
 CCSD(T)= -0.41931543703D+03

 The electronic state is 2-A.
 Alpha  occ. eigenvalues --  -20.62144 -20.61877 -20.56203 -11.42477 -11.32710
 Alpha  occ. eigenvalues --  -11.31292 -11.27152 -11.24123  -1.48390  -1.40994
 Alpha  occ. eigenvalues --   -1.38493  -1.09894  -1.05874  -0.92811  -0.88479
 Alpha  occ. eigenvalues --   -0.80552  -0.75446  -0.69992  -0.67943  -0.67452
 Alpha  occ. eigenvalues --   -0.63966  -0.59187  -0.58024  -0.56393  -0.55623
 Alpha  occ. eigenvalues --   -0.55501  -0.51849  -0.49204  -0.48050  -0.45972
 Alpha  occ. eigenvalues --   -0.44915
 Alpha virt. eigenvalues --    0.03403   0.04546   0.05330   0.06027   0.07230
 Alpha virt. eigenvalues --    0.07917   0.08783   0.08801   0.10745   0.12041
 Alpha virt. eigenvalues --    0.12925   0.13329   0.14358   0.15373   0.15769

  Beta  occ. eigenvalues --  -20.61797 -20.60402 -20.57046 -11.41902 -11.31314
  Beta  occ. eigenvalues --  -11.28982 -11.27393 -11.24124  -1.48673  -1.39757
  Beta  occ. eigenvalues --   -1.35174  -1.08108  -1.05858  -0.91595  -0.86634
  Beta  occ. eigenvalues --   -0.75697  -0.73396  -0.70778  -0.67755  -0.64389
  Beta  occ. eigenvalues --   -0.59712  -0.59319  -0.57139  -0.55727  -0.53002
  Beta  occ. eigenvalues --   -0.52014  -0.49710  -0.47952  -0.45084  -0.44420
  Beta virt. eigenvalues --   -0.01619   0.03744   0.05083   0.05699   0.06032
  Beta virt. eigenvalues --    0.07414   0.08440   0.08828   0.10380   0.10843
  Beta virt. eigenvalues --    0.12202   0.13030   0.13624   0.14962   0.15381

 Mulliken charges and spin densities:
               1          2
     1  C   -0.384204   1.915614
     2  H    0.373320  -0.125719
     3  C    0.659079  -1.112783
     4  C   -0.229021   0.205462
     5  O   -0.316023  -0.179947
     6  O   -0.147203  -0.000598
     7  C   -0.222418  -0.005570
     8  C   -0.407030  -0.001913
     9  H    0.135573   0.006604
    10  H    0.180051  -0.000173
    11  H    0.173120   0.000937
    12  H    0.120001   0.003665
    13  H    0.129654  -0.001178
    14  O   -0.340717   0.311603
    15  H    0.275819  -0.016004
 Sum of Mulliken charges =  -0.00000   1.00000

 Dipole moment (field-independent basis, Debye):
    X=             -0.0352    Y=             -3.8755    Z=              0.3975  Tot=              3.8960
 Quadrupole moment (field-independent basis, Debye-Ang):
   XX=            -50.3595   YY=            -54.5446   ZZ=            -46.9052
   XY=             -9.7265   XZ=             -6.2176   YZ=             -0.5446

 MP3-0=-419.240392\MP4SDQ=-419.247727\CCSD=-419.2594318\CCSD(T)=-419.31
 Normal termination of Gaussian 16 at Tue May  6 18:53:30 2025.
