 Gaussian 16, Revision A.03,
 Gaussian 16:  ES64L-G16RevA.03 25-Dec-2016

 --------------------------
 # freq 6-311++g(d,p) m062x
 --------------------------

 -------------------
 Title Card Required
 -------------------
 Symbolic Z-matrix:
 Charge =  0 Multiplicity = 2

                         Standard orientation:
 ---------------------------------------------------------------------
 Center     Atomic      Atomic             Coordinates (Angstroms)
 Number     Number       Type             X           Y           Z
 ---------------------------------------------------------------------
      1          6           0       -1.658505   -0.230875   -0.057236
      2          1           0       -3.053262   -0.909528    0.073040
      3          6           0       -0.629134    0.403338   -0.044290
      4          6           0        0.645256    1.125513    0.014893
      5          8           0        0.678613    2.274226    0.340418
      6          8           0        1.744397    0.454523   -0.325812
      7          6           0        1.698609   -0.952969   -0.623965
      8          6           0        1.750067   -1.778006    0.646330
      9          1           0        0.810452   -1.175069   -1.218262
     10          1           0        2.579848   -1.118881   -1.241459
     11          1           0        2.636761   -1.521658    1.227612
     12          1           0        0.864122   -1.607306    1.260090
     13          1           0        1.791882   -2.839737    0.395426
     14          8           0       -3.973174   -0.532559   -0.094394
     15          1           0       -4.066253    0.200647    0.527468
 ---------------------------------------------------------------------

 SCF Done:  E(UM062X) =  -420.167899227     A.U. after   24 cycles

 The electronic state is 2-A.
 Alpha  occ. eigenvalues --  -19.68799 -19.68761 -19.63542 -10.71488 -10.61768
 Alpha  occ. eigenvalues --  -10.61502 -10.58848 -10.54886  -1.25897  -1.19255
 Alpha  occ. eigenvalues --   -1.17363  -0.90761  -0.89060  -0.77935  -0.74173
 Alpha  occ. eigenvalues --   -0.67849  -0.64282  -0.58907  -0.57437  -0.56030
 Alpha  occ. eigenvalues --   -0.53674  -0.50148  -0.47843  -0.47074  -0.46398
 Alpha  occ. eigenvalues --   -0.43376  -0.42731  -0.40731  -0.39557  -0.38165
 Alpha  occ. eigenvalues --   -0.37164
 Alpha virt. eigenvalues --   -0.02900  -0.00890  -0.00041   0.01252   0.01336
 Alpha virt. eigenvalues --    0.02925   0.04030   0.04326   0.04931   0.05730
 Alpha virt. eigenvalues --    0.06966   0.07666   0.07969   0.09302   0.10011

  Beta  occ. eigenvalues --  -19.68805 -19.68028 -19.63519 -10.71470 -10.61770
  Beta  occ. eigenvalues --  -10.60393 -10.58735 -10.54886  -1.25880  -1.17320
  Beta  occ. eigenvalues --   -1.16583  -0.89270  -0.88793  -0.77552  -0.73307
  Beta  occ. eigenvalues --   -0.65073  -0.64121  -0.58870  -0.57458  -0.53671
  Beta  occ. eigenvalues --   -0.51454  -0.50157  -0.47805  -0.46553  -0.43599
  Beta  occ. eigenvalues --   -0.42901  -0.39881  -0.38897  -0.37361  -0.36543
  Beta virt. eigenvalues --   -0.16947  -0.01760  -0.00649   0.00131   0.01344
  Beta virt. eigenvalues --    0.01575   0.03042   0.04178   0.04705   0.05757
  Beta virt. eigenvalues --    0.05858   0.07103   0.07752   0.08125   0.09345

 Mulliken charges and spin densities:
               1          2
     1  C   -0.462099   0.781452
     2  H    0.386503  -0.030973
     3  C    0.574853  -0.025446
     4  C   -0.283343  -0.030331
     5  O   -0.243985   0.005545
     6  O   -0.029771  -0.000118
     7  C   -0.361743  -0.007587
     8  C   -0.405327   0.003531
     9  H    0.166705   0.002417
    10  H    0.204462  -0.000074
    11  H    0.188242   0.000283
    12  H    0.138286   0.000049
    13  H    0.157378  -0.000449
    14  O   -0.308798   0.309763
    15  H    0.278637  -0.008063
 Sum of Mulliken charges =  -0.00000   1.00000

 Dipole moment (field-independent basis, Debye):
    X=             -0.3202    Y=             -3.4618    Z=              0.4872  Tot=              3.5106
 Quadrupole moment (field-independent basis, Debye-Ang):
   XX=            -46.9302   YY=            -53.6702   ZZ=            -47.1617
   XY=             -8.9355   XZ=             -6.2570   YZ=             -0.5363

  Exact polarizability: 124.537  16.651  78.880  -2.501   3.228  51.707
 Approx polarizability: 113.412  20.888  94.979  -0.965   7.025  60.449

 ******    4 imaginary frequencies (negative Signs) ******

                      1                      2                      3
                      A                      A                      A
 Frequencies --   -568.3779              -107.5762               -25.7250
 Red. masses --      1.0427                 1.0644                 7.4801
 Frc consts  --      0.1985                 0.0073                 0.0029
 IR Inten    --     83.6730                70.6631                 2.1716

                      4                      5                      6
                      A                      A                      A
 Frequencies --    -12.7987                73.8419               102.2581
 Red. masses --      6.6541                 4.2446                 4.5417
 Frc consts  --      0.0006                 0.0136                 0.0280
 IR Inten    --      5.7915                 0.9852                 1.6511

                      7                      8                      9
                      A                      A                      A
 Frequencies --    145.1579               208.6342               224.4875
 Red. masses --      3.2760                 7.9087                 1.1797
 Frc consts  --      0.0407                 0.2028                 0.0350
 IR Inten    --      5.3720                49.3819                 1.5819

                     10                     11                     12
                      A                      A                      A
 Frequencies --    248.8107               355.3526               412.1077
 Red. masses --      8.0971                 2.7846                 3.6886
 Frc consts  --      0.2953                 0.2072                 0.3691
 IR Inten    --     51.3024                 2.6378                 9.7910

                     13                     14                     15
                      A                      A                      A
 Frequencies --    471.1101               547.7473               609.8123
 Red. masses --      1.0719                 6.6395                 6.3141
 Frc consts  --      0.1402                 1.1737                 1.3834
 IR Inten    --    152.0815                68.5782                 7.6078

                     16                     17                     18
                      A                      A                      A
 Frequencies --    746.4410               764.5783               814.5145
 Red. masses --      9.6168                 4.9175                 1.1929
 Frc consts  --      3.1570                 1.6937                 0.4663
 IR Inten    --     22.9908                 8.6681                 3.0726

                     19                     20                     21
                      A                      A                      A
 Frequencies --    951.7651              1106.4613              1132.3129
 Red. masses --      2.2625                 3.4455                 2.5809
 Frc consts  --      1.2075                 2.4853                 1.9496
 IR Inten    --      8.4838                60.6675                55.8955

                     22                     23                     24
                      A                      A                      A
 Frequencies --   1178.9111              1260.1365              1348.3632
 Red. masses --      1.9248                 2.9994                 1.2457
 Frc consts  --      1.5762                 2.8062                 1.3344
 IR Inten    --     74.1121               467.4121               126.1952

                     25                     26                     27
                      A                      A                      A
 Frequencies --   1405.7609              1432.7789              1435.5549
 Red. masses --      1.2694                 1.3585                 1.1059
 Frc consts  --      1.4779                 1.6431                 1.3428
 IR Inten    --     31.7575                21.9996                43.7315

                     28                     29                     30
                      A                      A                      A
 Frequencies --   1493.0214              1501.9233              1525.5324
 Red. masses --      1.0400                 1.0472                 1.1002
 Frc consts  --      1.3659                 1.3918                 1.5086
 IR Inten    --      2.7935                 3.7764                20.1819

                     31                     32                     33
                      A                      A                      A
 Frequencies --   1861.5831              2197.2264              2779.9888
 Red. masses --     13.0344                10.5755                 1.0879
 Frc consts  --     26.6138                30.0815                 4.9536
 IR Inten    --    472.8741                74.8313               544.5094

                     34                     35                     36
                      A                      A                      A
 Frequencies --   3073.5933              3102.0003              3146.1876
 Red. masses --      1.0353                 1.0625                 1.1040
 Frc consts  --      5.7627                 6.0235                 6.4388
 IR Inten    --      6.9708                15.3599                 1.1554

                     37                     38                     39
                      A                      A                      A
 Frequencies --   3152.7478              3168.2806              3870.0363
 Red. masses --      1.1012                 1.1062                 1.0674
 Frc consts  --      6.4492                 6.5421                 9.4187
 IR Inten    --     12.4429                23.8860               155.9332

 - Thermochemistry -
 -------------------
 Temperature   298.150 Kelvin.  Pressure   1.00000 Atm.
 Atom     1 has atomic number  6 and mass  12.00000

 Molecular mass:   115.03952 amu.
 Principal axes and moments of inertia in atomic units:
                           1         2         3
     Eigenvalues --   687.864591741.265452286.20886
           X            0.99911  -0.04203  -0.00296
           Y            0.04198   0.99902  -0.01422
           Z            0.00355   0.01409   0.99989
 This molecule is an asymmetric top.
 Rotational symmetry number  1.
 Warning -- assumption of classical behavior for rotation
           may cause significant error
 Rotational temperatures (Kelvin)      0.12592     0.04974     0.03789
 Rotational constants (GHZ):           2.62369     1.03645     0.78940
    4 imaginary frequencies ignored.
 Zero-point vibrational energy     286200.7 (Joules/Mol)
                                   68.40361 (Kcal/Mol)
 Warning -- explicit consideration of  11 degrees of freedom as
           vibrations may cause significant error
 Vibrational temperatures:    106.24   147.13   208.85   300.18   322.99
          (Kelvin)            357.98   511.27   592.93   677.82   788.09
                              877.38  1073.96  1100.06  1171.90  1369.38
                             1591.95  1629.15  1696.19  1813.06  1939.99
                             2022.58  2061.45  2065.44  2148.12  2160.93
                             2194.90  2678.40  3161.32  3999.78  4422.22
                             4463.09  4526.66  4536.10  4558.45  5568.12

 Zero-point correction=                           0.109008 (Hartree/Particle)
 Thermal correction to Energy=                    0.117239
 Thermal correction to Enthalpy=                  0.118183
 Thermal correction to Gibbs Free Energy=         0.074613
 Sum of electronic and zero-point Energies=           -420.058891
 Sum of electronic and thermal Energies=              -420.050660
 Sum of electronic and thermal Enthalpies=            -420.049716
 Sum of electronic and thermal Free Energies=         -420.093286

                     E (Thermal)             CV                S
                      KCal/Mol        Cal/Mol-Kelvin    Cal/Mol-Kelvin
 Total                   73.568             27.752             91.701
 Electronic               0.000              0.000              1.377
 Translational            0.889              2.981             40.136
 Rotational               0.889              2.981             29.394
 Vibrational             71.791             21.790             20.793
 Vibration     1          0.599              1.966              4.048
 Vibration     2          0.604              1.947              3.411
 Vibration     3          0.617              1.908              2.735
 Vibration     4          0.642              1.828              2.056
 Vibration     5          0.649              1.804              1.923
 Vibration     6          0.662              1.765              1.739
 Vibration     7          0.731              1.564              1.142
 Vibration     8          0.776              1.444              0.919
 Vibration     9          0.828              1.314              0.734
 Vibration    10          0.903              1.145              0.549
 Vibration    11          0.969              1.011              0.433

 1\1\GINC-AJ\Freq\UM062X\6-311++G(d,p)\C5H7O3(2)\AAYUSH\29-Mar-2025\0\\
 # freq 6-311++g(d,p) m062x\\Title Card Required\\0,2\C,-1.644486,-0.31
 1511,-0.047651\H,-3.037818,-0.992923,0.083462\C,-0.616396,0.32479,-0.0
 35385\C,0.656552,1.04957,0.022986\O,0.687705,2.198501,0.347957\O,1.756
 923,0.380644,-0.317809\C,1.713873,-1.027078,-0.615282\C,1.76747,-1.851
 409,0.655383\H,0.825948,-1.251255,-1.209145\H,2.595218,-1.191498,-1.23
 3024\H,2.653858,-1.592993,1.236216\H,0.881408,-1.682213,1.26939\H,1.81
 134,-2.913172,0.404964\O,-3.958553,-0.617895,-0.08381\H,-4.052886,0.11

 Normal termination of Gaussian 16 at Sat Mar 29 01:36:55 2025.
