 Gaussian 16, Revision A.03,
 Gaussian 16:  ES64L-G16RevA.03 25-Dec-2016

 --------------------------
 # freq 6-311++g(d,p) m062x
 --------------------------

 -------------------
 Title Card Required
 -------------------
 Symbolic Z-matrix:
 Charge =  0 Multiplicity = 2

                         Standard orientation:
 ---------------------------------------------------------------------
 Center     Atomic      Atomic             Coordinates (Angstroms)
 Number     Number       Type             X           Y           Z
 ---------------------------------------------------------------------
      1          6           0       -1.669865   -0.242540   -0.050823
      2          1           0       -2.711366   -0.776205   -0.008903
      3          6           0       -0.640245    0.390504   -0.043059
      4          6           0        0.632585    1.126535    0.013543
      5          8           0        0.665559    2.275708    0.339115
      6          8           0        1.738366    0.460808   -0.326465
      7          6           0        1.699963   -0.946732   -0.623522
      8          6           0        1.756174   -1.770805    0.647310
      9          1           0        0.812688   -1.174317   -1.216944
     10          1           0        2.581828   -1.109196   -1.241250
     11          1           0        2.642016   -1.509700    1.227845
     12          1           0        0.869748   -1.603399    1.261236
     13          1           0        1.802882   -2.832625    0.397364
     14          8           0       -3.975876   -0.553694   -0.087106
     15          1           0       -4.093860    0.201105    0.515606
 ---------------------------------------------------------------------

 SCF Done:  E(UM062X) =  -420.175447815     A.U. after   22 cycles

 The electronic state is 2-A.
 Alpha  occ. eigenvalues --  -19.72119 -19.68263 -19.62829 -10.70862 -10.61361
 Alpha  occ. eigenvalues --  -10.58480 -10.57822 -10.54545  -1.25247  -1.19475
 Alpha  occ. eigenvalues --   -1.16691  -0.89476  -0.88602  -0.77469  -0.73985
 Alpha  occ. eigenvalues --   -0.68070  -0.63687  -0.59265  -0.58364  -0.56841
 Alpha  occ. eigenvalues --   -0.53168  -0.49682  -0.48341  -0.47375  -0.46374
 Alpha  occ. eigenvalues --   -0.45396  -0.42470  -0.39820  -0.38681  -0.37341
 Alpha  occ. eigenvalues --   -0.36323
 Alpha virt. eigenvalues --   -0.02141  -0.01115  -0.00132   0.01451   0.01500
 Alpha virt. eigenvalues --    0.03098   0.04364   0.04841   0.05240   0.05915
 Alpha virt. eigenvalues --    0.07232   0.07555   0.08198   0.09455   0.10057

  Beta  occ. eigenvalues --  -19.70685 -19.68265 -19.62819 -10.70857 -10.61361
  Beta  occ. eigenvalues --  -10.58071 -10.57734 -10.54545  -1.25241  -1.16671
  Beta  occ. eigenvalues --   -1.13244  -0.88881  -0.88473  -0.77241  -0.73307
  Beta  occ. eigenvalues --   -0.64438  -0.62955  -0.58347  -0.56866  -0.54568
  Beta  occ. eigenvalues --   -0.53022  -0.49667  -0.47353  -0.46137  -0.44238
  Beta  occ. eigenvalues --   -0.42485  -0.39492  -0.38471  -0.37011  -0.36205
  Beta virt. eigenvalues --   -0.15394  -0.01771  -0.00736   0.00036   0.01511
  Beta virt. eigenvalues --    0.01631   0.03142   0.04553   0.04973   0.05638
  Beta virt. eigenvalues --    0.05956   0.07315   0.07698   0.08333   0.09579

 Mulliken charges and spin densities:
               1          2
     1  C   -0.483155   0.255571
     2  H    0.407535  -0.023233
     3  C    0.495644   0.008214
     4  C   -0.300303  -0.015165
     5  O   -0.250715   0.002832
     6  O   -0.031904   0.000034
     7  C   -0.350812  -0.003089
     8  C   -0.407074   0.001778
     9  H    0.161196   0.000430
    10  H    0.204454   0.000094
    11  H    0.187489   0.000027
    12  H    0.138486  -0.000111
    13  H    0.155006  -0.000122
    14  O   -0.198465   0.791672
    15  H    0.272618  -0.018932
 Sum of Mulliken charges =  -0.00000   1.00000

 Dipole moment (field-independent basis, Debye):
    X=             -1.3526    Y=             -3.4773    Z=              0.3154  Tot=              3.7444
 Quadrupole moment (field-independent basis, Debye-Ang):
   XX=            -41.1574   YY=            -54.4144   ZZ=            -47.2309
   XY=             -8.8444   XZ=             -5.6379   YZ=             -0.3875

  Exact polarizability: 107.394  10.200  74.750  -1.847   3.277  50.784
 Approx polarizability: 104.988  17.014  90.549  -1.037   7.095  59.842

 ******    3 imaginary frequencies (negative Signs) ******

                      1                      2                      3
                      A                      A                      A
 Frequencies --   -537.3170              -197.3329              -111.5962
 Red. masses --      1.7405                 2.5687                 6.3874
 Frc consts  --      0.2961                 0.0589                 0.0469
 IR Inten    --    109.7958                10.7511                 9.6172

                      4                      5                      6
                      A                      A                      A
 Frequencies --     74.8790               105.3347               153.2229
 Red. masses --      3.7534                 3.7661                 2.0059
 Frc consts  --      0.0124                 0.0246                 0.0277
 IR Inten    --      0.4018                 0.1220                53.6853

                      7                      8                      9
                      A                      A                      A
 Frequencies --    186.6421               230.1383               268.7354
 Red. masses --      1.7927                 1.2203                 4.0497
 Frc consts  --      0.0368                 0.0381                 0.1723
 IR Inten    --     47.5898                 0.8743                19.8749

                     10                     11                     12
                      A                      A                      A
 Frequencies --    361.7115               409.2011               508.4196
 Red. masses --      2.9080                 3.9765                 3.6787
 Frc consts  --      0.2242                 0.3923                 0.5603
 IR Inten    --      1.4130                 3.9932                10.9243

                     13                     14                     15
                      A                      A                      A
 Frequencies --    622.6896               634.9423               700.8470
 Red. masses --      2.1865                 6.0040                 1.5896
 Frc consts  --      0.4995                 1.4261                 0.4600
 IR Inten    --      7.5272                11.5772               152.2669

                     16                     17                     18
                      A                      A                      A
 Frequencies --    753.7018               766.9556               812.7377
 Red. masses --      2.9118                 6.4254                 1.1359
 Frc consts  --      0.9746                 2.2269                 0.4421
 IR Inten    --      5.3842                43.6506                14.0843

                     19                     20                     21
                      A                      A                      A
 Frequencies --    912.9051               957.9361              1106.2133
 Red. masses --      1.4752                 2.0134                 3.3410
 Frc consts  --      0.7244                 1.0886                 2.4089
 IR Inten    --    141.3338                 5.3673                47.4265

                     22                     23                     24
                      A                      A                      A
 Frequencies --   1132.1515              1179.3958              1259.0157
 Red. masses --      2.5120                 1.9302                 2.9391
 Frc consts  --      1.8971                 1.5819                 2.7449
 IR Inten    --     44.2326                71.1182               428.3482

                     25                     26                     27
                      A                      A                      A
 Frequencies --   1347.9529              1404.8721              1432.2775
 Red. masses --      1.2382                 1.2633                 1.3625
 Frc consts  --      1.3256                 1.4690                 1.6468
 IR Inten    --    115.5073                24.5907                17.0957

                     28                     29                     30
                      A                      A                      A
 Frequencies --   1492.9593              1502.1307              1524.9046
 Red. masses --      1.0401                 1.0468                 1.0967
 Frc consts  --      1.3659                 1.3917                 1.5026
 IR Inten    --      3.2331                 3.2582                16.7926

                     31                     32                     33
                      A                      A                      A
 Frequencies --   1620.2345              1861.4778              2366.4188
 Red. masses --      1.2741                12.7503                 6.4538
 Frc consts  --      1.9706                26.0308                21.2937
 IR Inten    --     42.3168               512.6627                18.4218

                     34                     35                     36
                      A                      A                      A
 Frequencies --   3073.2009              3101.8526              3145.6612
 Red. masses --      1.0353                 1.0622                 1.1042
 Frc consts  --      5.7612                 6.0212                 6.4377
 IR Inten    --      7.4860                15.4126                 0.8330

                     37                     38                     39
                      A                      A                      A
 Frequencies --   3151.8293              3167.5438              3780.8235
 Red. masses --      1.1012                 1.1062                 1.0667
 Frc consts  --      6.4450                 6.5395                 8.9843
 IR Inten    --     13.7493                24.0918                87.7937

 - Thermochemistry -
 -------------------
 Temperature   298.150 Kelvin.  Pressure   1.00000 Atm.
 Atom     1 has atomic number  6 and mass  12.00000

 Molecular mass:   115.03952 amu.
 Principal axes and moments of inertia in atomic units:
                           1         2         3
     Eigenvalues --   686.694141737.005612281.07297
           X            0.99901  -0.04445  -0.00228
           Y            0.04441   0.99892  -0.01377
           Z            0.00289   0.01366   0.99990
 This molecule is an asymmetric top.
 Rotational symmetry number  1.
 Warning -- assumption of classical behavior for rotation
           may cause significant error
 Rotational temperatures (Kelvin)      0.12613     0.04986     0.03797
 Rotational constants (GHZ):           2.62816     1.03900     0.79118
    3 imaginary frequencies ignored.
 Zero-point vibrational energy     281791.8 (Joules/Mol)
                                   67.34986 (Kcal/Mol)
 Warning -- explicit consideration of   9 degrees of freedom as
           vibrations may cause significant error
 Vibrational temperatures:    107.73   151.55   220.45   268.54   331.12
          (Kelvin)            386.65   520.42   588.75   731.50   895.91
                              913.54  1008.36  1084.41  1103.48  1169.35
                             1313.47  1378.26  1591.59  1628.91  1696.89
                             1811.44  1939.40  2021.30  2060.73  2148.04
                             2161.23  2194.00  2331.16  2678.25  3404.75
                             4421.65  4462.87  4525.90  4534.78  4557.39
                             5439.76

 Zero-point correction=                           0.107329 (Hartree/Particle)
 Thermal correction to Energy=                    0.115604
 Thermal correction to Enthalpy=                  0.116548
 Thermal correction to Gibbs Free Energy=         0.072998
 Sum of electronic and zero-point Energies=           -420.068119
 Sum of electronic and thermal Energies=              -420.059844
 Sum of electronic and thermal Enthalpies=            -420.058899
 Sum of electronic and thermal Free Energies=         -420.102450

                     E (Thermal)             CV                S
                      KCal/Mol        Cal/Mol-Kelvin    Cal/Mol-Kelvin
 Total                   72.543             28.667             91.660
 Electronic               0.000              0.000              1.377
 Translational            0.889              2.981             40.136
 Rotational               0.889              2.981             29.388
 Vibrational             70.765             22.705             20.759
 Vibration     1          0.599              1.966              4.021
 Vibration     2          0.605              1.945              3.353
 Vibration     3          0.619              1.899              2.632
 Vibration     4          0.632              1.858              2.261
 Vibration     5          0.652              1.795              1.878
 Vibration     6          0.673              1.731              1.604
 Vibration     7          0.736              1.551              1.115
 Vibration     8          0.774              1.450              0.929
 Vibration     9          0.864              1.231              0.637

 Normal termination of Gaussian 16 at Fri Mar 28 02:16:30 2025.
