 Gaussian 16, Revision A.03,
 Gaussian 16:  ES64L-G16RevA.03 25-Dec-2016

 --------------------------
 # freq 6-311++g(d,p) m062x
 --------------------------

 -------------------
 Title Card Required
 -------------------
 Symbolic Z-matrix:
 Charge =  0 Multiplicity = 2

                         Standard orientation:
 ---------------------------------------------------------------------
 Center     Atomic      Atomic             Coordinates (Angstroms)
 Number     Number       Type             X           Y           Z
 ---------------------------------------------------------------------
      1          6           0       -1.656767   -0.228639   -0.058749
      2          1           0       -3.086561   -0.940140    0.094785
      3          6           0       -0.627467    0.405321   -0.044682
      4          6           0        0.647094    1.125479    0.015242
      5          8           0        0.680987    2.274125    0.340855
      6          8           0        1.745432    0.453414   -0.325626
      7          6           0        1.698178   -0.953966   -0.624097
      8          6           0        1.748651   -1.779338    0.646033
      9          1           0        0.809908   -1.175025   -1.218579
     10          1           0        2.579369   -1.120636   -1.241453
     11          1           0        2.635463   -1.523911    1.227539
     12          1           0        0.862765   -1.607960    1.259693
     13          1           0        1.789581   -2.841056    0.394906
     14          8           0       -3.974755   -0.528112   -0.096535
     15          1           0       -4.061967    0.200170    0.531088
 ---------------------------------------------------------------------

 SCF Done:  E(UM062X) =  -420.168480334     A.U. after   23 cycles

 The electronic state is 2-A.
 Alpha  occ. eigenvalues --  -19.68786 -19.68539 -19.63516 -10.71463 -10.61764
 Alpha  occ. eigenvalues --  -10.61592 -10.58813 -10.54889  -1.25884  -1.19219
 Alpha  occ. eigenvalues --   -1.17348  -0.90770  -0.89058  -0.77925  -0.74138
 Alpha  occ. eigenvalues --   -0.67634  -0.64281  -0.58896  -0.57425  -0.55754
 Alpha  occ. eigenvalues --   -0.53657  -0.50147  -0.47837  -0.47260  -0.46415
 Alpha  occ. eigenvalues --   -0.43271  -0.42662  -0.40729  -0.39565  -0.38158
 Alpha  occ. eigenvalues --   -0.37141
 Alpha virt. eigenvalues --   -0.02908  -0.00902  -0.00035   0.01242   0.01334
 Alpha virt. eigenvalues --    0.02926   0.03986   0.04300   0.04937   0.05729
 Alpha virt. eigenvalues --    0.06957   0.07701   0.07965   0.09301   0.10008

  Beta  occ. eigenvalues --  -19.68792 -19.67851 -19.63496 -10.71443 -10.61765
  Beta  occ. eigenvalues --  -10.60441 -10.58698 -10.54890  -1.25869  -1.17310
  Beta  occ. eigenvalues --   -1.16744  -0.89256  -0.88768  -0.77537  -0.73264
  Beta  occ. eigenvalues --   -0.65142  -0.64150  -0.58863  -0.57451  -0.53658
  Beta  occ. eigenvalues --   -0.51377  -0.50156  -0.47804  -0.46555  -0.43559
  Beta  occ. eigenvalues --   -0.42896  -0.39861  -0.38887  -0.37332  -0.36512
  Beta virt. eigenvalues --   -0.16612  -0.01687  -0.00651   0.00125   0.01339
  Beta virt. eigenvalues --    0.01574   0.03049   0.04112   0.04688   0.05764
  Beta virt. eigenvalues --    0.05928   0.07102   0.07787   0.08127   0.09342

 Mulliken charges and spin densities:
               1          2
     1  C   -0.456419   0.813806
     2  H    0.372873  -0.029093
     3  C    0.583235  -0.029007
     4  C   -0.282831  -0.031379
     5  O   -0.244299   0.004610
     6  O   -0.029993  -0.000231
     7  C   -0.362840  -0.007848
     8  C   -0.405298   0.003636
     9  H    0.167267   0.002645
    10  H    0.204116  -0.000113
    11  H    0.188250   0.000302
    12  H    0.138043   0.000092
    13  H    0.157425  -0.000475
    14  O   -0.309449   0.280657
    15  H    0.279919  -0.007601
 Sum of Mulliken charges =  -0.00000   1.00000

 Dipole moment (field-independent basis, Debye):
    X=             -0.3086    Y=             -3.5241    Z=              0.5270  Tot=              3.5766
 Quadrupole moment (field-independent basis, Debye-Ang):
   XX=            -47.1939   YY=            -53.5494   ZZ=            -47.1471
   XY=             -8.7487   XZ=             -6.3987   YZ=             -0.5882

  Exact polarizability: 122.425  15.975  78.921  -2.558   3.233  51.843
 Approx polarizability: 112.066  20.412  94.954  -0.978   6.960  60.529

 ******    4 imaginary frequencies (negative Signs) ******

                      1                      2                      3
                      A                      A                      A
 Frequencies --   -505.1369              -137.7979               -37.9756
 Red. masses --      1.0345                 1.0797                 7.9324
 Frc consts  --      0.1555                 0.0121                 0.0067
 IR Inten    --    105.6454                71.4247                 0.5150

                      4                      5                      6
                      A                      A                      A
 Frequencies --    -29.9350                72.1599               100.4837
 Red. masses --      6.1313                 4.0806                 4.7524
 Frc consts  --      0.0032                 0.0125                 0.0283
 IR Inten    --      9.0443                 0.9334                 2.7743

                      7                      8                      9
                      A                      A                      A
 Frequencies --    140.7442               200.1314               223.4400
 Red. masses --      3.2919                 8.0429                 1.2617
 Frc consts  --      0.0384                 0.1898                 0.0371
 IR Inten    --      8.1340                58.9164                 3.3472

                     10                     11                     12
                      A                      A                      A
 Frequencies --    238.3035               354.9108               411.8222
 Red. masses --      5.8632                 2.7805                 3.6781
 Frc consts  --      0.1962                 0.2064                 0.3675
 IR Inten    --     33.0873                 2.5860                10.0853

                     13                     14                     15
                      A                      A                      A
 Frequencies --    454.2816               548.5752               608.4310
 Red. masses --      1.0661                 6.7525                 6.2865
 Frc consts  --      0.1296                 1.1973                 1.3711
 IR Inten    --    138.6342                66.2843                 7.5422

                     16                     17                     18
                      A                      A                      A
 Frequencies --    746.1421               765.0462               814.5106
 Red. masses --      9.9954                 4.8225                 1.1948
 Frc consts  --      3.2787                 1.6630                 0.4670
 IR Inten    --     23.0956                 7.4435                 3.0590

                     19                     20                     21
                      A                      A                      A
 Frequencies --    951.8559              1106.5163              1132.3769
 Red. masses --      2.2639                 3.4369                 2.5881
 Frc consts  --      1.2085                 2.4793                 1.9553
 IR Inten    --      8.5909                60.0243                56.4110

                     22                     23                     24
                      A                      A                      A
 Frequencies --   1178.8906              1260.4108              1348.4178
 Red. masses --      1.9220                 2.9927                 1.2468
 Frc consts  --      1.5738                 2.8012                 1.3356
 IR Inten    --     71.8451               457.1752               124.9349

                     25                     26                     27
                      A                      A                      A
 Frequencies --   1405.7626              1432.8439              1462.4619
 Red. masses --      1.2700                 1.3684                 1.0936
 Frc consts  --      1.4787                 1.6552                 1.3781
 IR Inten    --     30.6972                20.6228                58.9307

                     28                     29                     30
                      A                      A                      A
 Frequencies --   1492.9922              1501.9416              1525.5162
 Red. masses --      1.0401                 1.0472                 1.1004
 Frc consts  --      1.3659                 1.3918                 1.5088
 IR Inten    --      3.1502                 3.6071                19.6961

                     31                     32                     33
                      A                      A                      A
 Frequencies --   1861.9144              2195.2743              3016.9584
 Red. masses --     13.0342                11.3335                 1.0755
 Frc consts  --     26.6229                32.1804                 5.7678
 IR Inten    --    471.6084                68.3575               384.7329

                     34                     35                     36
                      A                      A                      A
 Frequencies --   3073.5708              3102.1761              3146.1823
 Red. masses --      1.0353                 1.0624                 1.1041
 Frc consts  --      5.7627                 6.0240                 6.4388
 IR Inten    --      7.0998                15.4228                 1.2156

                     37                     38                     39
                      A                      A                      A
 Frequencies --   3152.7195              3168.3081              3876.8684
 Red. masses --      1.1012                 1.1062                 1.0678
 Frc consts  --      6.4490                 6.5423                 9.4559
 IR Inten    --     12.4738                23.3386               149.8660

 - Thermochemistry -
 -------------------
 Temperature   298.150 Kelvin.  Pressure   1.00000 Atm.
 Atom     1 has atomic number  6 and mass  12.00000

 Molecular mass:   115.03952 amu.
 Principal axes and moments of inertia in atomic units:
                           1         2         3
     Eigenvalues --   688.166371742.416972287.55891
           X            0.99913  -0.04157  -0.00315
           Y            0.04152   0.99903  -0.01436
           Z            0.00374   0.01422   0.99989
 This molecule is an asymmetric top.
 Rotational symmetry number  1.
 Warning -- assumption of classical behavior for rotation
           may cause significant error
 Rotational temperatures (Kelvin)      0.12586     0.04971     0.03786
 Rotational constants (GHZ):           2.62254     1.03577     0.78894
    4 imaginary frequencies ignored.
 Zero-point vibrational energy     287540.0 (Joules/Mol)
                                   68.72372 (Kcal/Mol)
 Warning -- explicit consideration of  11 degrees of freedom as
           vibrations may cause significant error
 Vibrational temperatures:    103.82   144.57   202.50   287.94   321.48
          (Kelvin)            342.87   510.64   592.52   653.61   789.28
                              875.40  1073.53  1100.73  1171.90  1369.51
                             1592.03  1629.24  1696.16  1813.45  1940.07
                             2022.58  2061.54  2104.16  2148.08  2160.96
                             2194.88  2678.88  3158.51  4340.73  4422.18
                             4463.34  4526.65  4536.06  4558.49  5577.95

 Zero-point correction=                           0.109518 (Hartree/Particle)
 Thermal correction to Energy=                    0.117807
 Thermal correction to Enthalpy=                  0.118751
 Thermal correction to Gibbs Free Energy=         0.075014
 Sum of electronic and zero-point Energies=           -420.058962
 Sum of electronic and thermal Energies=              -420.050673
 Sum of electronic and thermal Enthalpies=            -420.049729
 Sum of electronic and thermal Free Energies=         -420.093466

                     E (Thermal)             CV                S
                      KCal/Mol        Cal/Mol-Kelvin    Cal/Mol-Kelvin
 Total                   73.925             27.820             92.052
 Electronic               0.000              0.000              1.377
 Translational            0.889              2.981             40.136
 Rotational               0.889              2.981             29.396
 Vibrational             72.148             21.859             21.143
 Vibration     1          0.598              1.967              4.094
 Vibration     2          0.604              1.949              3.445
 Vibration     3          0.615              1.913              2.794
 Vibration     4          0.638              1.840              2.132
 Vibration     5          0.649              1.805              1.931
 Vibration     6          0.656              1.782              1.816
 Vibration     7          0.731              1.565              1.144
 Vibration     8          0.776              1.445              0.920
 Vibration     9          0.813              1.351              0.783
 Vibration    10          0.904              1.143              0.547
 Vibration    11          0.967              1.014              0.435

 1\1\GINC-AJ\Freq\UM062X\6-311++G(d,p)\C5H7O3(2)\AAYUSH\29-Mar-2025\0\\
 # freq 6-311++g(d,p) m062x\\Title Card Required\\0,2\C,-1.642797,-0.31
 1014,-0.048583\H,-3.07045,-1.026523,0.106244\C,-0.615321,0.325919,-0.0
 35534\C,0.657192,1.049789,0.023176\O,0.687955,2.198758,0.347961\O,1.75
 7274,0.380651,-0.317827\C,1.713911,-1.027069,-0.61528\C,1.767464,-1.85
 1395,0.655403\H,0.825954,-1.251107,-1.209113\H,2.595238,-1.191635,-1.2
 33007\H,2.653858,-1.593003,1.236237\H,0.881427,-1.682137,1.269433\H,1.
 811315,-2.913168,0.405002\O,-3.959933,-0.617191,-0.084874\H,-4.048897,

 Normal termination of Gaussian 16 at Sat Mar 29 01:41:18 2025.
