 Gaussian 16, Revision A.03,
 Gaussian 16:  ES64L-G16RevA.03 25-Dec-2016

 --------------------------
 # freq 6-311++g(d,p) m062x
 --------------------------

 -------------------
 Title Card Required
 -------------------
 Symbolic Z-matrix:
 Charge =  0 Multiplicity = 2

                         Standard orientation:
 ---------------------------------------------------------------------
 Center     Atomic      Atomic             Coordinates (Angstroms)
 Number     Number       Type             X           Y           Z
 ---------------------------------------------------------------------
      1          6           0       -1.669201   -0.241403   -0.051443
      2          1           0       -2.789971   -0.782505   -0.003920
      3          6           0       -0.638615    0.392175   -0.043085
      4          6           0        0.634637    1.126278    0.013664
      5          8           0        0.667344    2.275372    0.339184
      6          8           0        1.739313    0.459969   -0.326407
      7          6           0        1.700062   -0.947632   -0.623540
      8          6           0        1.755753   -1.771736    0.647257
      9          1           0        0.812631   -1.174547   -1.217051
     10          1           0        2.581804   -1.110438   -1.241304
     11          1           0        2.641726   -1.511194    1.227832
     12          1           0        0.869397   -1.603978    1.261196
     13          1           0        1.801845   -2.833537    0.397211
     14          8           0       -3.972139   -0.551713   -0.087441
     15          1           0       -4.089398    0.201088    0.516233
 ---------------------------------------------------------------------

 SCF Done:  E(UM062X) =  -420.170878570     A.U. after   22 cycles

 The electronic state is 2-A.
 Alpha  occ. eigenvalues --  -19.71724 -19.68387 -19.63005 -10.71019 -10.61447
 Alpha  occ. eigenvalues --  -10.59257 -10.58103 -10.54610  -1.25399  -1.19551
 Alpha  occ. eigenvalues --   -1.16849  -0.89711  -0.88699  -0.77551  -0.73986
 Alpha  occ. eigenvalues --   -0.68224  -0.63825  -0.58789  -0.58471  -0.56967
 Alpha  occ. eigenvalues --   -0.53289  -0.49779  -0.47947  -0.47446  -0.46339
 Alpha  occ. eigenvalues --   -0.44572  -0.42547  -0.40012  -0.38856  -0.37538
 Alpha  occ. eigenvalues --   -0.36524
 Alpha virt. eigenvalues --   -0.02327  -0.01046  -0.00134   0.01413   0.01468
 Alpha virt. eigenvalues --    0.03064   0.04296   0.04743   0.05131   0.05878
 Alpha virt. eigenvalues --    0.07185   0.07555   0.08136   0.09427   0.10050

  Beta  occ. eigenvalues --  -19.70434 -19.68390 -19.62992 -10.71011 -10.61448
  Beta  occ. eigenvalues --  -10.58655 -10.58020 -10.54610  -1.25390  -1.16823
  Beta  occ. eigenvalues --   -1.14303  -0.88933  -0.88512  -0.77289  -0.73257
  Beta  occ. eigenvalues --   -0.64395  -0.63095  -0.58464  -0.56998  -0.53842
  Beta  occ. eigenvalues --   -0.52997  -0.49771  -0.47448  -0.46222  -0.44254
  Beta  occ. eigenvalues --   -0.42573  -0.39555  -0.38554  -0.37068  -0.36270
  Beta virt. eigenvalues --   -0.16601  -0.01821  -0.00695   0.00039   0.01481
  Beta virt. eigenvalues --    0.01620   0.03118   0.04483   0.04930   0.05604
  Beta virt. eigenvalues --    0.05924   0.07272   0.07682   0.08262   0.09530

 Mulliken charges and spin densities:
               1          2
     1  C   -0.500277   0.378181
     2  H    0.430470  -0.031753
     3  C    0.512479  -0.000154
     4  C   -0.298755  -0.018437
     5  O   -0.248947   0.003538
     6  O   -0.031286  -0.000002
     7  C   -0.352314  -0.004463
     8  C   -0.406983   0.002292
     9  H    0.162303   0.000755
    10  H    0.204643   0.000051
    11  H    0.187583   0.000094
    12  H    0.138865  -0.000100
    13  H    0.155457  -0.000194
    14  O   -0.226502   0.686752
    15  H    0.273264  -0.016560
 Sum of Mulliken charges =  -0.00000   1.00000

 Dipole moment (field-independent basis, Debye):
    X=             -1.1507    Y=             -3.4295    Z=              0.3293  Tot=              3.6324
 Quadrupole moment (field-independent basis, Debye-Ang):
   XX=            -42.1735   YY=            -54.3495   ZZ=            -47.2463
   XY=             -8.9733   XZ=             -5.6832   YZ=             -0.3890

  Exact polarizability: 116.038  12.456  75.629  -1.852   3.294  50.891
 Approx polarizability: 110.551  18.836  91.908  -0.926   7.144  60.031

 ******    3 imaginary frequencies (negative Signs) ******

                      1                      2                      3
                      A                      A                      A
 Frequencies --  -1522.5682              -129.3459               -54.1444
 Red. masses --      1.0584                 2.5810                 6.9073
 Frc consts  --      1.4456                 0.0254                 0.0119
 IR Inten    --    567.0355                16.5706                 5.6297

                      4                      5                      6
                      A                      A                      A
 Frequencies --     75.6790               106.8120               152.5771
 Red. masses --      3.8242                 3.7295                 2.0378
 Frc consts  --      0.0129                 0.0251                 0.0280
 IR Inten    --      0.6029                 0.1030                53.0459

                      7                      8                      9
                      A                      A                      A
 Frequencies --    184.9756               229.1842               270.9987
 Red. masses --      1.9150                 1.2058                 4.8947
 Frc consts  --      0.0386                 0.0373                 0.2118
 IR Inten    --     46.0777                 0.4740                15.1150

                     10                     11                     12
                      A                      A                      A
 Frequencies --    361.1358               399.8466               436.2229
 Red. masses --      2.9392                 5.3164                 4.1013
 Frc consts  --      0.2259                 0.5008                 0.4598
 IR Inten    --      1.1218                 6.9266                 3.6471

                     13                     14                     15
                      A                      A                      A
 Frequencies --    577.3431               630.1103               698.1562
 Red. masses --      4.6580                 6.7866                 1.2797
 Frc consts  --      0.9148                 1.5876                 0.3675
 IR Inten    --      7.7324                 8.1832               162.6355

                     16                     17                     18
                      A                      A                      A
 Frequencies --    754.8038               765.7831               813.7535
 Red. masses --      4.7287                 5.7295                 1.1579
 Frc consts  --      1.5873                 1.9796                 0.4518
 IR Inten    --      3.2526                33.3265                 8.0465

                     19                     20                     21
                      A                      A                      A
 Frequencies --    942.1740               981.4174              1107.4835
 Red. masses --      1.8790                 1.5033                 3.2748
 Frc consts  --      0.9827                 0.8531                 2.3665
 IR Inten    --     47.5767                58.7103                47.3684

                     22                     23                     24
                      A                      A                      A
 Frequencies --   1133.0406              1179.6307              1260.6663
 Red. masses --      2.6125                 1.9167                 2.9779
 Frc consts  --      1.9761                 1.5714                 2.7884
 IR Inten    --     49.0206                66.9078               430.0381

                     25                     26                     27
                      A                      A                      A
 Frequencies --   1348.1788              1404.8947              1428.8052
 Red. masses --      1.2436                 1.2587                 1.2114
 Frc consts  --      1.3318                 1.4638                 1.4571
 IR Inten    --    118.7595                19.9145                43.0330

                     28                     29                     30
                      A                      A                      A
 Frequencies --   1436.7685              1492.9992              1502.0797
 Red. masses --      1.2531                 1.0401                 1.0469
 Frc consts  --      1.5241                 1.3659                 1.3917
 IR Inten    --    124.9656                 3.3392                 3.9178

                     31                     32                     33
                      A                      A                      A
 Frequencies --   1525.4088              1860.9389              2287.9995
 Red. masses --      1.1004                13.0038                10.2737
 Frc consts  --      1.5086                26.5330                31.6874
 IR Inten    --     20.5219               505.6876                26.0367

                     34                     35                     36
                      A                      A                      A
 Frequencies --   3073.3142              3101.7301              3145.7933
 Red. masses --      1.0353                 1.0623                 1.1042
 Frc consts  --      5.7617                 6.0213                 6.4380
 IR Inten    --      7.3508                15.2577                 0.8449

                     37                     38                     39
                      A                      A                      A
 Frequencies --   3152.0622              3167.6820              3794.9616
 Red. masses --      1.1012                 1.1062                 1.0667
 Frc consts  --      6.4461                 6.5399                 9.0514
 IR Inten    --     13.4562                24.3908               115.6314

 - Thermochemistry -
 -------------------
 Temperature   298.150 Kelvin.  Pressure   1.00000 Atm.
 Atom     1 has atomic number  6 and mass  12.00000

 Molecular mass:   115.03952 amu.
 Principal axes and moments of inertia in atomic units:
                           1         2         3
     Eigenvalues --   686.774131736.904902281.03931
           X            0.99902  -0.04419  -0.00232
           Y            0.04415   0.99893  -0.01380
           Z            0.00293   0.01368   0.99990
 This molecule is an asymmetric top.
 Rotational symmetry number  1.
 Warning -- assumption of classical behavior for rotation
           may cause significant error
 Rotational temperatures (Kelvin)      0.12612     0.04987     0.03797
 Rotational constants (GHZ):           2.62785     1.03906     0.79119
    3 imaginary frequencies ignored.
 Zero-point vibrational energy     279838.9 (Joules/Mol)
                                   66.88310 (Kcal/Mol)
 Warning -- explicit consideration of  10 degrees of freedom as
           vibrations may cause significant error
 Vibrational temperatures:    108.89   153.68   219.52   266.14   329.74
          (Kelvin)            389.91   519.59   575.29   627.63   830.67
                              906.59  1004.49  1085.99  1101.79  1170.81
                             1355.58  1412.04  1593.42  1630.19  1697.23
                             1813.82  1939.73  2021.33  2055.73  2067.19
                             2148.09  2161.16  2194.72  2677.48  3291.92
                             4421.81  4462.70  4526.09  4535.11  4557.59
                             5460.10

 Zero-point correction=                           0.106585 (Hartree/Particle)
 Thermal correction to Energy=                    0.114948
 Thermal correction to Enthalpy=                  0.115892
 Thermal correction to Gibbs Free Energy=         0.072209
 Sum of electronic and zero-point Energies=           -420.064294
 Sum of electronic and thermal Energies=              -420.055931
 Sum of electronic and thermal Enthalpies=            -420.054987
 Sum of electronic and thermal Free Energies=         -420.098669

                     E (Thermal)             CV                S
                      KCal/Mol        Cal/Mol-Kelvin    Cal/Mol-Kelvin
 Total                   72.131             28.935             91.938
 Electronic               0.000              0.000              1.377
 Translational            0.889              2.981             40.136
 Rotational               0.889              2.981             29.388
 Vibrational             70.353             22.973             21.037
 Vibration     1          0.599              1.965              4.000
 Vibration     2          0.606              1.944              3.326
 Vibration     3          0.619              1.900              2.640
 Vibration     4          0.631              1.860              2.278
 Vibration     5          0.652              1.796              1.885
 Vibration     6          0.675              1.727              1.590
 Vibration     7          0.735              1.552              1.117
 Vibration     8          0.766              1.470              0.963
 Vibration     9          0.797              1.391              0.839
 Vibration    10          0.934              1.080              0.490

 1\1\GINC-AJ\Freq\UM062X\6-311++G(d,p)\C5H7O3(2)\AAYUSH\29-Mar-2025\0\\
 # freq 6-311++g(d,p) m062x\\Title Card Required\\0,2\C,-1.654133,-0.31
 3913,-0.043846\H,-2.776026,-0.85272,0.003248\C,-0.622248,0.317541,-0.0
 35059\C,0.652498,1.049007,0.022209\O,0.687486,2.197946,0.34804\O,1.755
 887,0.380516,-0.317756\C,1.713816,-1.026923,-0.61527\C,1.767486,-1.851
 474,0.655324\H,0.826072,-1.251855,-1.209067\H,2.595379,-1.19138,-1.232
 852\H,2.653845,-1.592908,1.236194\H,0.88132,-1.682054,1.269081\H,1.811
 457,-2.913302,0.40501\O,-3.957695,-0.619474,-0.080514\H,-4.073559,0.13

 Normal termination of Gaussian 16 at Sat Mar 29 01:09:44 2025.
