 Gaussian 16, Revision A.03,
 Gaussian 16:  ES64L-G16RevA.03 25-Dec-2016

 --------------------------
 # ccsd(t)/6-311++g(d,p) sp
 --------------------------

 -------------------
 Title Card Required
 -------------------
 Symbolic Z-matrix:
 Charge =  0 Multiplicity = 2

                         Standard orientation:
 ---------------------------------------------------------------------
 Center     Atomic      Atomic             Coordinates (Angstroms)
 Number     Number       Type             X           Y           Z
 ---------------------------------------------------------------------
      1          6           0       -1.668691   -0.240869   -0.051687
      2          1           0       -2.816036   -0.786412   -0.001692
      3          6           0       -0.638017    0.392793   -0.043105
      4          6           0        0.635353    1.126195    0.013711
      5          8           0        0.668013    2.275258    0.339218
      6          8           0        1.739645    0.459654   -0.326383
      7          6           0        1.700069   -0.947963   -0.623550
      8          6           0        1.755555   -1.772087    0.647231
      9          1           0        0.812585   -1.174623   -1.217098
     10          1           0        2.581767   -1.110910   -1.241321
     11          1           0        2.641576   -1.511764    1.227826
     12          1           0        0.869227   -1.604186    1.261174
     13          1           0        1.801411   -2.833883    0.397147
     14          8           0       -3.971177   -0.550878   -0.087597
     15          1           0       -4.087983    0.201091    0.516453
 ---------------------------------------------------------------------

 SCF Done:  E(UHF) =  -417.931909316     A.U. after   40 cycles
 E2 =    -0.1273555517D+01 EUMP2 =    -0.41920546483267D+03
 CCSD(T)= -0.41931922508D+03

 The electronic state is 2-A.
 Alpha  occ. eigenvalues --  -20.68607 -20.60962 -20.55071 -11.41375 -11.30420
 Alpha  occ. eigenvalues --  -11.28440 -11.25401 -11.23334  -1.47363  -1.46202
 Alpha  occ. eigenvalues --   -1.37594  -1.07025  -1.05007  -0.91628  -0.87645
 Alpha  occ. eigenvalues --   -0.82885  -0.74512  -0.73077  -0.69061  -0.66557
 Alpha  occ. eigenvalues --   -0.63110  -0.62231  -0.58470  -0.57422  -0.55112
 Alpha  occ. eigenvalues --   -0.54647  -0.50967  -0.47329  -0.45966  -0.43194
 Alpha  occ. eigenvalues --   -0.42852
 Alpha virt. eigenvalues --    0.03396   0.04227   0.05693   0.06078   0.07498
 Alpha virt. eigenvalues --    0.08658   0.09059   0.09482   0.11138   0.12579
 Alpha virt. eigenvalues --    0.13220   0.13925   0.14871   0.15723   0.16104

  Beta  occ. eigenvalues --  -20.65072 -20.60916 -20.55621 -11.41012 -11.30433
  Beta  occ. eigenvalues --  -11.26683 -11.25470 -11.23334  -1.47544  -1.38427
  Beta  occ. eigenvalues --   -1.33369  -1.06291  -1.04977  -0.90822  -0.86044
  Beta  occ. eigenvalues --   -0.75394  -0.74210  -0.69560  -0.66700  -0.63519
  Beta  occ. eigenvalues --   -0.62475  -0.58609  -0.56027  -0.55717  -0.54671
  Beta  occ. eigenvalues --   -0.51070  -0.48143  -0.46750  -0.42615  -0.42191
  Beta virt. eigenvalues --   -0.00326   0.04041   0.04882   0.05681   0.06174
  Beta virt. eigenvalues --    0.07555   0.08709   0.09106   0.10512   0.11207
  Beta virt. eigenvalues --    0.12706   0.13235   0.13961   0.15327   0.15749

 Mulliken charges and spin densities:
               1          2
     1  C   -0.515021   1.105279
     2  H    0.447427  -0.143630
     3  C    0.564209  -0.733910
     4  C   -0.240317   0.132655
     5  O   -0.333405  -0.116294
     6  O   -0.149571  -0.000328
     7  C   -0.208072  -0.004950
     8  C   -0.412877  -0.000705
     9  H    0.137199   0.003892
    10  H    0.177320  -0.000212
    11  H    0.169841   0.000611
    12  H    0.125522   0.001829
    13  H    0.124742  -0.000656
    14  O   -0.170696   0.789326
    15  H    0.283699  -0.032908
 Sum of Mulliken charges =  -0.00000   1.00000

 Dipole moment (field-independent basis, Debye):
    X=             -2.2508    Y=             -3.9733    Z=              0.2938  Tot=              4.5760
 Quadrupole moment (field-independent basis, Debye-Ang):
   XX=            -38.3799   YY=            -55.6008   ZZ=            -47.2477
   XY=             -8.7839   XZ=             -5.8967   YZ=             -0.4877

 MP3-0=-419.2424981\MP4SDQ=-419.2583121\CCSD=-419.2635219\CCSD(T)=-419.
 Normal termination of Gaussian 16 at Tue May  6 23:43:37 2025.
