 Gaussian 16, Revision A.03,
 Gaussian 16:  ES64L-G16RevA.03 25-Dec-2016

 --------------------------
 # freq 6-311++g(d,p) m062x
 --------------------------

 -------------------
 Title Card Required
 -------------------
 Symbolic Z-matrix:
 Charge =  0 Multiplicity = 2

                         Standard orientation:
 ---------------------------------------------------------------------
 Center     Atomic      Atomic             Coordinates (Angstroms)
 Number     Number       Type             X           Y           Z
 ---------------------------------------------------------------------
      1          6           0       -1.657590   -0.229762   -0.057976
      2          1           0       -3.070601   -0.924428    0.083532
      3          6           0       -0.628283    0.404352   -0.044479
      4          6           0        0.646191    1.125487    0.015064
      5          8           0        0.679787    2.274168    0.340624
      6          8           0        1.744911    0.453967   -0.325724
      7          6           0        1.698396   -0.953473   -0.624027
      8          6           0        1.749372   -1.778667    0.646190
      9          1           0        0.810181   -1.175060   -1.218413
     10          1           0        2.579608   -1.119758   -1.241458
     11          1           0        2.636126   -1.522774    1.227578
     12          1           0        0.863457   -1.607634    1.259905
     13          1           0        1.790744   -2.840393    0.395181
     14          8           0       -3.973939   -0.530383   -0.095422
     15          1           0       -4.064098    0.200412    0.529222
 ---------------------------------------------------------------------

 SCF Done:  E(UM062X) =  -420.168175851     A.U. after   24 cycles

 The electronic state is 2-A.
 Alpha  occ. eigenvalues --  -19.68797 -19.68625 -19.63534 -10.71481 -10.61769
 Alpha  occ. eigenvalues --  -10.61558 -10.58839 -10.54890  -1.25895  -1.19241
 Alpha  occ. eigenvalues --   -1.17360  -0.90775  -0.89062  -0.77934  -0.74160
 Alpha  occ. eigenvalues --   -0.67749  -0.64286  -0.58906  -0.57435  -0.55882
 Alpha  occ. eigenvalues --   -0.53669  -0.50151  -0.47844  -0.47158  -0.46406
 Alpha  occ. eigenvalues --   -0.43323  -0.42702  -0.40737  -0.39568  -0.38167
 Alpha  occ. eigenvalues --   -0.37159
 Alpha virt. eigenvalues --   -0.02909  -0.00895  -0.00037   0.01246   0.01334
 Alpha virt. eigenvalues --    0.02924   0.04010   0.04310   0.04932   0.05728
 Alpha virt. eigenvalues --    0.06960   0.07683   0.07965   0.09300   0.10009

  Beta  occ. eigenvalues --  -19.68803 -19.67918 -19.63513 -10.71462 -10.61771
  Beta  occ. eigenvalues --  -10.60427 -10.58724 -10.54891  -1.25880  -1.17320
  Beta  occ. eigenvalues --   -1.16678  -0.89267  -0.88785  -0.77548  -0.73289
  Beta  occ. eigenvalues --   -0.65121  -0.64142  -0.58871  -0.57459  -0.53668
  Beta  occ. eigenvalues --   -0.51407  -0.50160  -0.47808  -0.46557  -0.43574
  Beta  occ. eigenvalues --   -0.42901  -0.39876  -0.38896  -0.37352  -0.36533
  Beta virt. eigenvalues --   -0.16782  -0.01725  -0.00650   0.00130   0.01341
  Beta virt. eigenvalues --    0.01575   0.03044   0.04146   0.04696   0.05760
  Beta virt. eigenvalues --    0.05892   0.07101   0.07768   0.08125   0.09342

 Mulliken charges and spin densities:
               1          2
     1  C   -0.458930   0.799230
     2  H    0.379424  -0.029956
     3  C    0.579334  -0.027284
     4  C   -0.282984  -0.030898
     5  O   -0.244099   0.005115
     6  O   -0.029859  -0.000174
     7  C   -0.362328  -0.007722
     8  C   -0.405289   0.003586
     9  H    0.166991   0.002537
    10  H    0.204304  -0.000094
    11  H    0.188253   0.000293
    12  H    0.138162   0.000069
    13  H    0.157419  -0.000463
    14  O   -0.309651   0.293561
    15  H    0.279252  -0.007800
 Sum of Mulliken charges =  -0.00000   1.00000

 Dipole moment (field-independent basis, Debye):
    X=             -0.3072    Y=             -3.4903    Z=              0.5064  Tot=              3.5402
 Quadrupole moment (field-independent basis, Debye-Ang):
   XX=            -47.0942   YY=            -53.6093   ZZ=            -47.1534
   XY=             -8.8515   XZ=             -6.3257   YZ=             -0.5610

  Exact polarizability: 123.486  16.341  78.918  -2.534   3.231  51.779
 Approx polarizability: 112.704  20.659  94.977  -0.976   6.993  60.485

 ******    4 imaginary frequencies (negative Signs) ******

                      1                      2                      3
                      A                      A                      A
 Frequencies --   -533.9936              -133.3922               -35.2213
 Red. masses --      1.0369                 1.0598                 7.9127
 Frc consts  --      0.1742                 0.0111                 0.0058
 IR Inten    --     89.5350                71.1441                 0.3424

                      4                      5                      6
                      A                      A                      A
 Frequencies --    -30.5138                72.7198               101.1276
 Red. masses --      6.7672                 4.1170                 4.6656
 Frc consts  --      0.0037                 0.0128                 0.0281
 IR Inten    --      8.2088                 0.9277                 2.2749

                      7                      8                      9
                      A                      A                      A
 Frequencies --    142.5634               203.4846               223.9487
 Red. masses --      3.2891                 7.8819                 1.2147
 Frc consts  --      0.0394                 0.1923                 0.0359
 IR Inten    --      6.9275                57.0035                 2.4711

                     10                     11                     12
                      A                      A                      A
 Frequencies --    242.1411               355.0876               411.9371
 Red. masses --      7.0595                 2.7826                 3.6830
 Frc consts  --      0.2439                 0.2067                 0.3682
 IR Inten    --     41.5107                 2.6126                10.0568

                     13                     14                     15
                      A                      A                      A
 Frequencies --    459.0259               548.0711               609.0151
 Red. masses --      1.0693                 6.7234                 6.2957
 Frc consts  --      0.1328                 1.1899                 1.3758
 IR Inten    --    143.6650                68.0615                 7.6266

                     16                     17                     18
                      A                      A                      A
 Frequencies --    746.2315               764.8357               814.5181
 Red. masses --      9.8312                 4.8635                 1.1940
 Frc consts  --      3.2255                 1.6762                 0.4667
 IR Inten    --     23.1126                 7.9710                 3.0643

                     19                     20                     21
                      A                      A                      A
 Frequencies --    951.8190              1106.4914              1132.3436
 Red. masses --      2.2633                 3.4415                 2.5845
 Frc consts  --      1.2081                 2.4825                 1.9525
 IR Inten    --      8.5569                60.4421                56.2062

                     22                     23                     24
                      A                      A                      A
 Frequencies --   1178.9041              1260.2823              1348.3967
 Red. masses --      1.9233                 2.9956                 1.2463
 Frc consts  --      1.5749                 2.8033                 1.3351
 IR Inten    --     72.9754               462.4364               125.6404

                     25                     26                     27
                      A                      A                      A
 Frequencies --   1405.7715              1432.8422              1449.7315
 Red. masses --      1.2697                 1.3679                 1.0962
 Frc consts  --      1.4784                 1.6547                 1.3575
 IR Inten    --     31.1334                20.7167                52.9775

                     28                     29                     30
                      A                      A                      A
 Frequencies --   1493.0085              1501.9303              1525.5315
 Red. masses --      1.0400                 1.0472                 1.1003
 Frc consts  --      1.3659                 1.3918                 1.5087
 IR Inten    --      2.9455                 3.6938                19.9377

                     31                     32                     33
                      A                      A                      A
 Frequencies --   1861.7485              2196.4036              2917.6341
 Red. masses --     13.0342                11.0985                 1.0799
 Frc consts  --     26.6181                31.5455                 5.4160
 IR Inten    --    471.9877                68.8509               461.8904

                     34                     35                     36
                      A                      A                      A
 Frequencies --   3073.5859              3102.0819              3146.1852
 Red. masses --      1.0353                 1.0625                 1.1040
 Frc consts  --      5.7627                 6.0237                 6.4388
 IR Inten    --      7.0018                15.3958                 1.1875

                     37                     38                     39
                      A                      A                      A
 Frequencies --   3152.7448              3168.2974              3873.9221
 Red. masses --      1.1012                 1.1062                 1.0676
 Frc consts  --      6.4491                 6.5422                 9.4397
 IR Inten    --     12.4450                23.6412               152.4353

 - Thermochemistry -
 -------------------
 Temperature   298.150 Kelvin.  Pressure   1.00000 Atm.
 Atom     1 has atomic number  6 and mass  12.00000

 Molecular mass:   115.03952 amu.
 Principal axes and moments of inertia in atomic units:
                           1         2         3
     Eigenvalues --   688.010791741.836572286.87720
           X            0.99912  -0.04180  -0.00305
           Y            0.04176   0.99903  -0.01429
           Z            0.00364   0.01415   0.99989
 This molecule is an asymmetric top.
 Rotational symmetry number  1.
 Warning -- assumption of classical behavior for rotation
           may cause significant error
 Rotational temperatures (Kelvin)      0.12589     0.04973     0.03787
 Rotational constants (GHZ):           2.62313     1.03611     0.78917
    4 imaginary frequencies ignored.
 Zero-point vibrational energy     286950.4 (Joules/Mol)
                                   68.58280 (Kcal/Mol)
 Warning -- explicit consideration of  11 degrees of freedom as
           vibrations may cause significant error
 Vibrational temperatures:    104.63   145.50   205.12   292.77   322.21
          (Kelvin)            348.39   510.89   592.69   660.44   788.55
                              876.24  1073.66  1100.43  1171.91  1369.46
                             1591.99  1629.19  1696.18  1813.27  1940.04
                             2022.59  2061.54  2085.84  2148.11  2160.94
                             2194.90  2678.64  3160.13  4197.82  4422.20
                             4463.20  4526.66  4536.10  4558.47  5573.71

 Zero-point correction=                           0.109294 (Hartree/Particle)
 Thermal correction to Energy=                    0.117562
 Thermal correction to Enthalpy=                  0.118506
 Thermal correction to Gibbs Free Energy=         0.074831
 Sum of electronic and zero-point Energies=           -420.058882
 Sum of electronic and thermal Energies=              -420.050614
 Sum of electronic and thermal Enthalpies=            -420.049670
 Sum of electronic and thermal Free Energies=         -420.093345

                     E (Thermal)             CV                S
                      KCal/Mol        Cal/Mol-Kelvin    Cal/Mol-Kelvin
 Total                   73.771             27.799             91.922
 Electronic               0.000              0.000              1.377
 Translational            0.889              2.981             40.136
 Rotational               0.889              2.981             29.395
 Vibrational             71.994             21.837             21.013
 Vibration     1          0.599              1.967              4.078
 Vibration     2          0.604              1.948              3.432
 Vibration     3          0.616              1.911              2.769
 Vibration     4          0.639              1.835              2.101
 Vibration     5          0.649              1.805              1.927
 Vibration     6          0.658              1.776              1.787
 Vibration     7          0.731              1.565              1.144
 Vibration     8          0.776              1.444              0.920
 Vibration     9          0.817              1.341              0.769
 Vibration    10          0.903              1.144              0.548
 Vibration    11          0.968              1.013              0.434

 1\1\GINC-AJ\Freq\UM062X\6-311++G(d,p)\C5H7O3(2)\AAYUSH\29-Mar-2025\0\\
 # freq 6-311++g(d,p) m062x\\Title Card Required\\0,2\C,-1.643601,-0.31
 1258,-0.048112\H,-3.054841,-1.009301,0.094449\C,-0.615844,0.325383,-0.
 035456\C,0.656886,1.049672,0.023082\O,0.687817,2.198622,0.347957\O,1.7
 57092,0.380647,-0.317819\C,1.713889,-1.027077,-0.61528\C,1.767467,-1.8
 51402,0.655394\H,0.825948,-1.251186,-1.20913\H,2.595223,-1.191563,-1.2
 33018\H,2.653858,-1.592998,1.236226\H,0.881417,-1.682181,1.269415\H,1.
 811326,-2.913169,0.404984\O,-3.959223,-0.617574,-0.08432\H,-4.050887,0

 Normal termination of Gaussian 16 at Sat Mar 29 01:39:08 2025.
