 Gaussian 16, Revision A.03,
 Gaussian 16:  ES64L-G16RevA.03 25-Dec-2016

 --------------------------
 # freq 6-311++g(d,p) m062x
 --------------------------

 -------------------
 Title Card Required
 -------------------
 Symbolic Z-matrix:
 Charge =  0 Multiplicity = 2

                         Standard orientation:
 ---------------------------------------------------------------------
 Center     Atomic      Atomic             Coordinates (Angstroms)
 Number     Number       Type             X           Y           Z
 ---------------------------------------------------------------------
      1          6           0       -1.669814   -0.242248   -0.051023
      2          1           0       -2.737564   -0.777383   -0.007396
      3          6           0       -0.639728    0.391038   -0.043065
      4          6           0        0.633260    1.126446    0.013582
      5          8           0        0.666118    2.275597    0.339134
      6          8           0        1.738675    0.460544   -0.326447
      7          6           0        1.700009   -0.947017   -0.623526
      8          6           0        1.756060   -1.771097    0.647295
      9          1           0        0.812682   -1.174391   -1.216976
     10          1           0        2.581834   -1.109581   -1.241269
     11          1           0        2.641944   -1.510165    1.227841
     12          1           0        0.869654   -1.603587    1.261224
     13          1           0        1.802577   -2.832910    0.397316
     14          8           0       -3.974485   -0.553116   -0.087205
     15          1           0       -4.092314    0.201087    0.515824
 ---------------------------------------------------------------------

 SCF Done:  E(UM062X) =  -420.173819119     A.U. after   22 cycles

 The electronic state is 2-A.
 Alpha  occ. eigenvalues --  -19.72043 -19.68294 -19.62875 -10.70902 -10.61382
 Alpha  occ. eigenvalues --  -10.58719 -10.57901 -10.54560  -1.25287  -1.19537
 Alpha  occ. eigenvalues --   -1.16732  -0.89527  -0.88625  -0.77484  -0.73971
 Alpha  occ. eigenvalues --   -0.68126  -0.63725  -0.59151  -0.58393  -0.56874
 Alpha  occ. eigenvalues --   -0.53199  -0.49705  -0.48230  -0.47395  -0.46337
 Alpha  occ. eigenvalues --   -0.45126  -0.42489  -0.39867  -0.38724  -0.37391
 Alpha  occ. eigenvalues --   -0.36374
 Alpha virt. eigenvalues --   -0.02192  -0.01097  -0.00133   0.01441   0.01493
 Alpha virt. eigenvalues --    0.03090   0.04344   0.04815   0.05205   0.05906
 Alpha virt. eigenvalues --    0.07221   0.07556   0.08178   0.09448   0.10055

  Beta  occ. eigenvalues --  -19.70651 -19.68297 -19.62863 -10.70896 -10.61382
  Beta  occ. eigenvalues --  -10.58245 -10.57819 -10.54560  -1.25280  -1.16711
  Beta  occ. eigenvalues --   -1.13619  -0.88883  -0.88474  -0.77247  -0.73277
  Beta  occ. eigenvalues --   -0.64408  -0.62988  -0.58377  -0.56900  -0.54322
  Beta  occ. eigenvalues --   -0.53026  -0.49693  -0.47377  -0.46158  -0.44269
  Beta  occ. eigenvalues --   -0.42507  -0.39499  -0.38487  -0.37015  -0.36213
  Beta virt. eigenvalues --   -0.15819  -0.01780  -0.00723   0.00035   0.01504
  Beta virt. eigenvalues --    0.01629   0.03137   0.04531   0.04961   0.05631
  Beta virt. eigenvalues --    0.05949   0.07305   0.07693   0.08310   0.09566

 Mulliken charges and spin densities:
               1          2
     1  C   -0.491318   0.293405
     2  H    0.415640  -0.026544
     3  C    0.501792   0.005446
     4  C   -0.299849  -0.016180
     5  O   -0.250267   0.002957
     6  O   -0.031728   0.000011
     7  C   -0.351159  -0.003538
     8  C   -0.407108   0.001946
     9  H    0.161536   0.000530
    10  H    0.204490   0.000078
    11  H    0.187494   0.000049
    12  H    0.138638  -0.000104
    13  H    0.155120  -0.000145
    14  O   -0.206145   0.760380
    15  H    0.272862  -0.018289
 Sum of Mulliken charges =  -0.00000   1.00000

 Dipole moment (field-independent basis, Debye):
    X=             -1.3041    Y=             -3.4639    Z=              0.3194  Tot=              3.7150
 Quadrupole moment (field-independent basis, Debye-Ang):
   XX=            -41.4048   YY=            -54.4025   ZZ=            -47.2394
   XY=             -8.8769   XZ=             -5.6501   YZ=             -0.3877

  Exact polarizability: 110.575  10.989  75.036  -1.871   3.277  50.821
 Approx polarizability: 106.832  17.598  90.979  -1.001   7.110  59.911

 ******    3 imaginary frequencies (negative Signs) ******

                      1                      2                      3
                      A                      A                      A
 Frequencies --  -1025.9756              -178.4982               -97.4894
 Red. masses --      1.1769                 2.5948                 6.5835
 Frc consts  --      0.7299                 0.0487                 0.0369
 IR Inten    --    246.1054                12.5149                 8.3237

                      4                      5                      6
                      A                      A                      A
 Frequencies --     75.0768               105.5046               153.0813
 Red. masses --      3.7708                 3.7742                 2.0374
 Frc consts  --      0.0125                 0.0248                 0.0281
 IR Inten    --      0.4450                 0.1183                51.1208

                      7                      8                      9
                      A                      A                      A
 Frequencies --    185.2849               229.5827               270.2770
 Red. masses --      1.8197                 1.2092                 4.3213
 Frc consts  --      0.0368                 0.0376                 0.1860
 IR Inten    --     50.5308                 0.6375                17.6202

                     10                     11                     12
                      A                      A                      A
 Frequencies --    361.6890               406.6038               467.3428
 Red. masses --      2.9150                 4.3006                 4.1623
 Frc consts  --      0.2247                 0.4189                 0.5356
 IR Inten    --      1.3387                 5.0478                 8.7191

                     13                     14                     15
                      A                      A                      A
 Frequencies --    592.3009               633.6262               702.7405
 Red. masses --      3.6809                 6.7564                 1.4180
 Frc consts  --      0.7608                 1.5982                 0.4126
 IR Inten    --      1.8081                 9.0928               159.8846

                     16                     17                     18
                      A                      A                      A
 Frequencies --    755.2838               766.8572               813.2071
 Red. masses --      3.6406                 5.8911                 1.1447
 Frc consts  --      1.2236                 2.0411                 0.4460
 IR Inten    --      2.3436                40.2833                11.5792

                     19                     20                     21
                      A                      A                      A
 Frequencies --    920.1004               960.0303              1106.7054
 Red. masses --      1.4959                 1.9847                 3.3176
 Frc consts  --      0.7461                 1.0777                 2.3941
 IR Inten    --    122.2376                10.8488                46.0780

                     22                     23                     24
                      A                      A                      A
 Frequencies --   1132.4761              1179.5403              1259.6974
 Red. masses --      2.5461                 1.9224                 2.9307
 Frc consts  --      1.9239                 1.5759                 2.7400
 IR Inten    --     44.7680                68.6721               425.3849

                     25                     26                     27
                      A                      A                      A
 Frequencies --   1348.0217              1404.7869              1432.0331
 Red. masses --      1.2393                 1.2611                 1.3566
 Frc consts  --      1.3268                 1.4663                 1.6391
 IR Inten    --    116.0977                23.1579                13.9393

                     28                     29                     30
                      A                      A                      A
 Frequencies --   1492.9659              1495.6117              1502.2446
 Red. masses --      1.0400                 1.1984                 1.0497
 Frc consts  --      1.3658                 1.5794                 1.3957
 IR Inten    --      3.6488                67.3698                 8.2436

                     31                     32                     33
                      A                      A                      A
 Frequencies --   1525.9994              1861.1736              2326.7205
 Red. masses --      1.1085                12.9373                 8.5672
 Frc consts  --      1.5209                26.4039                27.3260
 IR Inten    --     25.4030               509.9042                23.3593

                     34                     35                     36
                      A                      A                      A
 Frequencies --   3073.2363              3101.8011              3145.6999
 Red. masses --      1.0353                 1.0622                 1.1042
 Frc consts  --      5.7614                 6.0212                 6.4378
 IR Inten    --      7.4519                15.3619                 0.8310

                     37                     38                     39
                      A                      A                      A
 Frequencies --   3151.8972              3167.5797              3784.8233
 Red. masses --      1.1012                 1.1062                 1.0667
 Frc consts  --      6.4453                 6.5396                 9.0032
 IR Inten    --     13.6720                24.2425                96.0598

 - Thermochemistry -
 -------------------
 Temperature   298.150 Kelvin.  Pressure   1.00000 Atm.
 Atom     1 has atomic number  6 and mass  12.00000

 Molecular mass:   115.03952 amu.
 Principal axes and moments of inertia in atomic units:
                           1         2         3
     Eigenvalues --   686.717111736.928432281.01477
           X            0.99901  -0.04437  -0.00230
           Y            0.04434   0.99892  -0.01378
           Z            0.00290   0.01366   0.99990
 This molecule is an asymmetric top.
 Rotational symmetry number  1.
 Warning -- assumption of classical behavior for rotation
           may cause significant error
 Rotational temperatures (Kelvin)      0.12613     0.04987     0.03797
 Rotational constants (GHZ):           2.62807     1.03904     0.79120
    3 imaginary frequencies ignored.
 Zero-point vibrational energy     280474.1 (Joules/Mol)
                                   67.03491 (Kcal/Mol)
 Warning -- explicit consideration of  10 degrees of freedom as
           vibrations may cause significant error
 Vibrational temperatures:    108.02   151.80   220.25   266.58   330.32
          (Kelvin)            388.87   520.39   585.01   672.40   852.19
                              911.65  1011.09  1086.68  1103.34  1170.02
                             1323.82  1381.27  1592.30  1629.38  1697.10
                             1812.42  1939.50  2021.18  2060.38  2148.04
                             2151.85  2161.39  2195.57  2677.81  3347.63
                             4421.70  4462.80  4525.96  4534.88  4557.44
                             5445.52

 Zero-point correction=                           0.106827 (Hartree/Particle)
 Thermal correction to Energy=                    0.115152
 Thermal correction to Enthalpy=                  0.116097
 Thermal correction to Gibbs Free Energy=         0.072467
 Sum of electronic and zero-point Energies=           -420.066992
 Sum of electronic and thermal Energies=              -420.058667
 Sum of electronic and thermal Enthalpies=            -420.057722
 Sum of electronic and thermal Free Energies=         -420.101352

                     E (Thermal)             CV                S
                      KCal/Mol        Cal/Mol-Kelvin    Cal/Mol-Kelvin
 Total                   72.259             28.838             91.827
 Electronic               0.000              0.000              1.377
 Translational            0.889              2.981             40.136
 Rotational               0.889              2.981             29.388
 Vibrational             70.482             22.876             20.926
 Vibration     1          0.599              1.966              4.016
 Vibration     2          0.605              1.945              3.350
 Vibration     3          0.619              1.899              2.634
 Vibration     4          0.631              1.860              2.274
 Vibration     5          0.652              1.796              1.882
 Vibration     6          0.674              1.728              1.594
 Vibration     7          0.736              1.551              1.115
 Vibration     8          0.771              1.456              0.939
 Vibration     9          0.825              1.322              0.745
 Vibration    10          0.950              1.048              0.463

 Normal termination of Gaussian 16 at Fri Mar 28 02:42:54 2025.
