 Gaussian 16, Revision A.03,
 Gaussian 16:  ES64L-G16RevA.03 25-Dec-2016

 --------------------------
 # ccsd(t)/6-311++g(d,p) sp
 --------------------------

 -------------------
 Title Card Required
 -------------------
 Symbolic Z-matrix:
 Charge =  0 Multiplicity = 2

                         Standard orientation:
 ---------------------------------------------------------------------
 Center     Atomic      Atomic             Coordinates (Angstroms)
 Number     Number       Type             X           Y           Z
 ---------------------------------------------------------------------
      1          6           0       -1.664569   -0.237061   -0.053578
      2          1           0       -2.939224   -0.825337    0.018786
      3          6           0       -0.634381    0.396866   -0.043388
      4          6           0        0.639479    1.125817    0.014179
      5          8           0        0.672131    2.274684    0.339709
      6          8           0        1.741577    0.457683   -0.326059
      7          6           0        1.699789   -0.949932   -0.623601
      8          6           0        1.753775   -1.774390    0.646977
      9          1           0        0.812056   -1.174823   -1.217508
     10          1           0        2.581302   -1.113798   -1.241315
     11          1           0        2.640061   -1.515597    1.227813
     12          1           0        0.867564   -1.605597    1.260842
     13          1           0        1.798150   -2.836117    0.396430
     14          8           0       -3.969308   -0.544566   -0.089578
     15          1           0       -4.079659    0.201061    0.518823
 ---------------------------------------------------------------------

 SCF Done:  E(UHF) =  -417.923123981     A.U. after   33 cycles
 E2 =    -0.1271888503D+01 EUMP2 =    -0.41919501248430D+03
 CCSD(T)= -0.41931518756D+03

 The electronic state is 2-A.
 Alpha  occ. eigenvalues --  -20.64851 -20.61564 -20.55833 -11.42126 -11.31466
 Alpha  occ. eigenvalues --  -11.30993 -11.26541 -11.23847  -1.48039  -1.43054
 Alpha  occ. eigenvalues --   -1.38177  -1.08962  -1.05574  -0.92410  -0.88166
 Alpha  occ. eigenvalues --   -0.81768  -0.75127  -0.69735  -0.69418  -0.67206
 Alpha  occ. eigenvalues --   -0.63683  -0.59023  -0.58521  -0.57738  -0.55590
 Alpha  occ. eigenvalues --   -0.55200  -0.51544  -0.48469  -0.47261  -0.45236
 Alpha  occ. eigenvalues --   -0.44426
 Alpha virt. eigenvalues --    0.03501   0.04414   0.05454   0.06044   0.07331
 Alpha virt. eigenvalues --    0.08239   0.08904   0.08974   0.10867   0.12227
 Alpha virt. eigenvalues --    0.13030   0.13550   0.14547   0.15511   0.15889

  Beta  occ. eigenvalues --  -20.62360 -20.61494 -20.56602 -11.41604 -11.31012
  Beta  occ. eigenvalues --  -11.28261 -11.26782 -11.23847  -1.48298  -1.39333
  Beta  occ. eigenvalues --   -1.34486  -1.07514  -1.05555  -0.91311  -0.86379
  Beta  occ. eigenvalues --   -0.75410  -0.73653  -0.70386  -0.67399  -0.64054
  Beta  occ. eigenvalues --   -0.59723  -0.59310  -0.56766  -0.55464  -0.53894
  Beta  occ. eigenvalues --   -0.51694  -0.49199  -0.47573  -0.44322  -0.43717
  Beta virt. eigenvalues --   -0.01694   0.03842   0.05081   0.05556   0.06085
  Beta virt. eigenvalues --    0.07451   0.08546   0.08946   0.10430   0.10967
  Beta virt. eigenvalues --    0.12378   0.13067   0.13731   0.15085   0.15490

 Mulliken charges and spin densities:
               1          2
     1  C   -0.430258   1.695437
     2  H    0.403968  -0.168175
     3  C    0.623959  -1.026885
     4  C   -0.236602   0.187420
     5  O   -0.321400  -0.163645
     6  O   -0.148118  -0.000653
     7  C   -0.217386  -0.006009
     8  C   -0.408775  -0.001495
     9  H    0.135760   0.005874
    10  H    0.179297  -0.000241
    11  H    0.172018   0.000875
    12  H    0.122115   0.003138
    13  H    0.127969  -0.001021
    14  O   -0.281066   0.498196
    15  H    0.278519  -0.022817
 Sum of Mulliken charges =  -0.00000   1.00000

 Dipole moment (field-independent basis, Debye):
    X=             -0.8100    Y=             -3.8366    Z=              0.3242  Tot=              3.9346
 Quadrupole moment (field-independent basis, Debye-Ang):
   XX=            -45.9847   YY=            -55.0111   ZZ=            -47.0230
   XY=             -9.6284   XZ=             -5.9679   YZ=             -0.4869

 3-0=-419.241124\MP4SDQ=-419.2491609\CCSD=-419.2589539\CCSD(T)=-419.315
 Normal termination of Gaussian 16 at Wed May  7 00:39:19 2025.
