 Gaussian 16, Revision A.03,
 Gaussian 16:  ES64L-G16RevA.03 25-Dec-2016

 --------------------------
 # ccsd(t)/6-311++g(d,p) sp
 --------------------------

 -------------------
 Title Card Required
 -------------------
 Symbolic Z-matrix:
 Charge =  0 Multiplicity = 2

                         Standard orientation:
 ---------------------------------------------------------------------
 Center     Atomic      Atomic             Coordinates (Angstroms)
 Number     Number       Type             X           Y           Z
 ---------------------------------------------------------------------
      1          6           0       -1.659442   -0.231966   -0.056515
      2          1           0       -3.036513   -0.894130    0.062436
      3          6           0       -0.629993    0.402288   -0.044102
      4          6           0        0.644315    1.125542    0.014729
      5          8           0        0.677467    2.274284    0.340222
      6          8           0        1.743898    0.455068   -0.325895
      7          6           0        1.698825   -0.952468   -0.623900
      8          6           0        1.750762   -1.777356    0.646469
      9          1           0        0.810726   -1.175080   -1.218105
     10          1           0        2.580092   -1.118020   -1.241455
     11          1           0        2.637394   -1.520558    1.227648
     12          1           0        0.864784   -1.606985    1.260271
     13          1           0        1.793014   -2.839094    0.395670
     14          8           0       -3.972338   -0.534748   -0.093366
     15          1           0       -4.068516    0.200797    0.525766
 ---------------------------------------------------------------------

 SCF Done:  E(UHF) =  -417.927248989     A.U. after   34 cycles
 E2 =    -0.1266527038D+01 EUMP2 =    -0.41919377602715D+03
 CCSD(T)= -0.41931568279D+03

 The electronic state is 2-A.
 Alpha  occ. eigenvalues --  -20.61903 -20.61757 -20.56230 -11.42499 -11.32824
 Alpha  occ. eigenvalues --  -11.31321 -11.27191 -11.24152  -1.48420  -1.40735
 Alpha  occ. eigenvalues --   -1.38518  -1.09979  -1.05904  -0.92844  -0.88500
 Alpha  occ. eigenvalues --   -0.80292  -0.75475  -0.70019  -0.67850  -0.67418
 Alpha  occ. eigenvalues --   -0.63987  -0.59213  -0.58058  -0.56263  -0.55533
 Alpha  occ. eigenvalues --   -0.55472  -0.51878  -0.49278  -0.48123  -0.46026
 Alpha  occ. eigenvalues --   -0.44950
 Alpha virt. eigenvalues --    0.03384   0.04553   0.05318   0.06026   0.07220
 Alpha virt. eigenvalues --    0.07892   0.08747   0.08785   0.10736   0.12022
 Alpha virt. eigenvalues --    0.12916   0.13302   0.14341   0.15365   0.15754

  Beta  occ. eigenvalues --  -20.61822 -20.60142 -20.57081 -11.41918 -11.31342
  Beta  occ. eigenvalues --  -11.29031 -11.27429 -11.24153  -1.48705  -1.39795
  Beta  occ. eigenvalues --   -1.35362  -1.08153  -1.05888  -0.91619  -0.86648
  Beta  occ. eigenvalues --   -0.75724  -0.73459  -0.70813  -0.67788  -0.64419
  Beta  occ. eigenvalues --   -0.59745  -0.59365  -0.57176  -0.55756  -0.52889
  Beta  occ. eigenvalues --   -0.52044  -0.49756  -0.47987  -0.45149  -0.44477
  Beta virt. eigenvalues --   -0.01538   0.03736   0.05073   0.05732   0.06029
  Beta virt. eigenvalues --    0.07416   0.08428   0.08797   0.10390   0.10835
  Beta virt. eigenvalues --    0.12186   0.13037   0.13616   0.14954   0.15375

 Mulliken charges and spin densities:
               1          2
     1  C   -0.378638   1.943461
     2  H    0.366772  -0.115584
     3  C    0.665311  -1.121869
     4  C   -0.227603   0.207327
     5  O   -0.315560  -0.181845
     6  O   -0.147165  -0.000599
     7  C   -0.223136  -0.005472
     8  C   -0.406897  -0.001943
     9  H    0.135701   0.006696
    10  H    0.180014  -0.000162
    11  H    0.173227   0.000944
    12  H    0.119707   0.003725
    13  H    0.129831  -0.001203
    14  O   -0.347386   0.281464
    15  H    0.275821  -0.014940
 Sum of Mulliken charges =  -0.00000   1.00000

 Dipole moment (field-independent basis, Debye):
    X=              0.0463    Y=             -3.9039    Z=              0.4192  Tot=              3.9266
 Quadrupole moment (field-independent basis, Debye-Ang):
   XX=            -50.8874   YY=            -54.4542   ZZ=            -46.8889
   XY=             -9.6628   XZ=             -6.2921   YZ=             -0.5664

 3-0=-419.2403861\MP4SDQ=-419.2478143\CCSD=-419.2597639\CCSD(T)=-419.31
 Normal termination of Gaussian 16 at Mon May  5 17:31:05 2025.
