 Gaussian 16, Revision A.03,
 Gaussian 16:  ES64L-G16RevA.03 25-Dec-2016

 --------------------------
 # ccsd(t)/6-311++g(d,p) sp
 --------------------------

 -------------------
 Title Card Required
 -------------------
 Symbolic Z-matrix:
 Charge =  0 Multiplicity = 2

                         Standard orientation:
 ---------------------------------------------------------------------
 Center     Atomic      Atomic             Coordinates (Angstroms)
 Number     Number       Type             X           Y           Z
 ---------------------------------------------------------------------
      1          6           0       -1.668054   -0.240263   -0.051948
      2          1           0       -2.841941   -0.791247    0.000806
      3          6           0       -0.637391    0.393449   -0.043130
      4          6           0        0.636086    1.126113    0.013763
      5          8           0        0.668720    2.275145    0.339256
      6          8           0        1.739989    0.459318   -0.326357
      7          6           0        1.700060   -0.948310   -0.623560
      8          6           0        1.755324   -1.772461    0.647203
      9          1           0        0.812521   -1.174700   -1.217148
     10          1           0        2.581715   -1.111415   -1.241336
     11          1           0        2.641396   -1.512372    1.227819
     12          1           0        0.869026   -1.604402    1.261147
     13          1           0        1.800929   -2.834252    0.397077
     14          8           0       -3.970362   -0.549948   -0.087780
     15          1           0       -4.086566    0.201100    0.516710
 ---------------------------------------------------------------------

 SCF Done:  E(UHF) =  -417.928744689     A.U. after   40 cycles
 E2 =    -0.1273625061D+01 EUMP2 =    -0.41920236975022D+03
 CCSD(T)= -0.41931788153D+03

 The electronic state is 2-A.
 Alpha  occ. eigenvalues --  -20.68234 -20.61027 -20.55156 -11.41461 -11.30488
 Alpha  occ. eigenvalues --  -11.28929 -11.25494 -11.23395  -1.47439  -1.45920
 Alpha  occ. eigenvalues --   -1.37647  -1.07277  -1.05075  -0.91719  -0.87687
 Alpha  occ. eigenvalues --   -0.82855  -0.74582  -0.72629  -0.69123  -0.66632
 Alpha  occ. eigenvalues --   -0.63169  -0.61786  -0.58506  -0.57416  -0.55154
 Alpha  occ. eigenvalues --   -0.54706  -0.51034  -0.47436  -0.46086  -0.43517
 Alpha  occ. eigenvalues --   -0.43125
 Alpha virt. eigenvalues --    0.03434   0.04234   0.05665   0.06076   0.07479
 Alpha virt. eigenvalues --    0.08632   0.09034   0.09401   0.11104   0.12534
 Alpha virt. eigenvalues --    0.13204   0.13875   0.14838   0.15709   0.16071

  Beta  occ. eigenvalues --  -20.64854 -20.60977 -20.55754 -11.41064 -11.30503
  Beta  occ. eigenvalues --  -11.26881 -11.25610 -11.23396  -1.47638  -1.38553
  Beta  occ. eigenvalues --   -1.33745  -1.06432  -1.05045  -0.90860  -0.86027
  Beta  occ. eigenvalues --   -0.75345  -0.74265  -0.69672  -0.66785  -0.63519
  Beta  occ. eigenvalues --   -0.61922  -0.58706  -0.56115  -0.55552  -0.54676
  Beta  occ. eigenvalues --   -0.51146  -0.48287  -0.46869  -0.42856  -0.42388
  Beta virt. eigenvalues --   -0.00720   0.04016   0.04871   0.05656   0.06164
  Beta virt. eigenvalues --    0.07545   0.08695   0.09070   0.10531   0.11185
  Beta virt. eigenvalues --    0.12671   0.13212   0.13928   0.15301   0.15713

 Mulliken charges and spin densities:
               1          2
     1  C   -0.505743   1.227424
     2  H    0.442324  -0.155993
     3  C    0.573687  -0.801541
     4  C   -0.240191   0.144578
     5  O   -0.331660  -0.126542
     6  O   -0.149517  -0.000452
     7  C   -0.209442  -0.005373
     8  C   -0.412313  -0.000813
     9  H    0.137041   0.004324
    10  H    0.177488  -0.000241
    11  H    0.170108   0.000679
    12  H    0.125125   0.002073
    13  H    0.125155  -0.000734
    14  O   -0.185596   0.744063
    15  H    0.283534  -0.031453
 Sum of Mulliken charges =  -0.00000   1.00000

 Dipole moment (field-independent basis, Debye):
    X=             -2.0769    Y=             -3.9506    Z=              0.2960  Tot=              4.4731
 Quadrupole moment (field-independent basis, Debye-Ang):
   XX=            -39.3003   YY=            -55.5302   ZZ=            -47.2177
   XY=             -8.9114   XZ=             -5.8922   YZ=             -0.4835

 \PMP3-0=-419.2415867\MP4SDQ=-419.2557437\CCSD=-419.2619686\CCSD(T)=-41
 Normal termination of Gaussian 16 at Fri May  2 04:55:07 2025.
