 Gaussian 16, Revision A.03,
 Gaussian 16:  ES64L-G16RevA.03 25-Dec-2016

 --------------------------
 # ccsd(t)/6-311++g(d,p) sp
 --------------------------

 -------------------
 Title Card Required
 -------------------
 Symbolic Z-matrix:
 Charge =  0 Multiplicity = 2

                         Standard orientation:
 ---------------------------------------------------------------------
 Center     Atomic      Atomic             Coordinates (Angstroms)
 Number     Number       Type             X           Y           Z
 ---------------------------------------------------------------------
      1          6           0       -1.655273   -0.226344   -0.060349
      2          1           0       -3.118818   -0.971221    0.117351
      3          6           0       -0.625893    0.407109   -0.045098
      4          6           0        0.648836    1.125482    0.015610
      5          8           0        0.683463    2.274054    0.341361
      6          8           0        1.746502    0.452296   -0.325408
      7          6           0        1.697752   -0.954937   -0.624236
      8          6           0        1.747198   -1.780702    0.645702
      9          1           0        0.809377   -1.174935   -1.218912
     10          1           0        2.578912   -1.122407   -1.241430
     11          1           0        2.634121   -1.526222    1.227458
     12          1           0        0.861363   -1.608613    1.259236
     13          1           0        1.787239   -2.842405    0.394333
     14          8           0       -3.976197   -0.523528   -0.098792
     15          1           0       -4.058056    0.199577    0.534914
 ---------------------------------------------------------------------

 SCF Done:  E(UHF) =  -417.932379561     A.U. after   33 cycles
 E2 =    -0.1262846572D+01 EUMP2 =    -0.41919522613315D+03
 CCSD(T)= -0.41931733952D+03

 The electronic state is 2-A.
 Alpha  occ. eigenvalues --  -20.61891 -20.60753 -20.56200 -11.42450 -11.32931
 Alpha  occ. eigenvalues --  -11.31337 -11.27098 -11.24191  -1.48407  -1.40026
 Alpha  occ. eigenvalues --   -1.38498  -1.10028  -1.05927  -0.92833  -0.88451
 Alpha  occ. eigenvalues --   -0.79057  -0.75477  -0.70012  -0.67743  -0.67201
 Alpha  occ. eigenvalues --   -0.63972  -0.59305  -0.58402  -0.56096  -0.55570
 Alpha  occ. eigenvalues --   -0.54709  -0.51895  -0.49330  -0.48172  -0.46008
 Alpha  occ. eigenvalues --   -0.44944
 Alpha virt. eigenvalues --    0.03311   0.04525   0.05303   0.06029   0.07216
 Alpha virt. eigenvalues --    0.07919   0.08574   0.08756   0.10746   0.12006
 Alpha virt. eigenvalues --    0.12897   0.13250   0.14341   0.15401   0.15726

  Beta  occ. eigenvalues --  -20.61809 -20.59545 -20.57073 -11.41855 -11.31359
  Beta  occ. eigenvalues --  -11.28948 -11.27330 -11.24191  -1.48700  -1.39808
  Beta  occ. eigenvalues --   -1.36093  -1.08117  -1.05908  -0.91609  -0.86572
  Beta  occ. eigenvalues --   -0.75719  -0.73808  -0.70825  -0.67797  -0.64432
  Beta  occ. eigenvalues --   -0.59770  -0.59708  -0.57210  -0.55788  -0.52620
  Beta  occ. eigenvalues --   -0.52065  -0.49774  -0.48009  -0.45162  -0.44467
  Beta virt. eigenvalues --   -0.01067   0.03744   0.05048   0.05834   0.06045
  Beta virt. eigenvalues --    0.07450   0.08395   0.08656   0.10496   0.10855
  Beta virt. eigenvalues --    0.12182   0.13101   0.13624   0.14978   0.15405

 Mulliken charges and spin densities:
               1          2
     1  C   -0.362705   2.015976
     2  H    0.337920  -0.077914
     3  C    0.688107  -1.139592
     4  C   -0.225044   0.210624
     5  O   -0.315415  -0.186245
     6  O   -0.147524  -0.000674
     7  C   -0.225184  -0.005103
     8  C   -0.406948  -0.001874
     9  H    0.136686   0.006869
    10  H    0.179293  -0.000128
    11  H    0.173337   0.000973
    12  H    0.118839   0.003851
    13  H    0.130046  -0.001295
    14  O   -0.358665   0.186265
    15  H    0.277258  -0.011733
 Sum of Mulliken charges =  -0.00000   1.00000

 Dipole moment (field-independent basis, Debye):
    X=              0.1507    Y=             -4.0877    Z=              0.5383  Tot=              4.1257
 Quadrupole moment (field-independent basis, Debye-Ang):
   XX=            -51.9734   YY=            -54.0670   ZZ=            -46.8343
   XY=             -9.1107   XZ=             -6.7035   YZ=             -0.7037

 \PMP3-0=-419.2414283\MP4SDQ=-419.2493318\CCSD=-419.2618214\CCSD(T)=-41
 Normal termination of Gaussian 16 at Fri May  2 07:46:44 2025.
