 Gaussian 16, Revision A.03,
 Gaussian 16:  ES64L-G16RevA.03 25-Dec-2016

 --------------------------
 # ccsd(t)/6-311++g(d,p) sp
 --------------------------

 -------------------
 Title Card Required
 -------------------
 Symbolic Z-matrix:
 Charge =  0 Multiplicity = 2

                         Standard orientation:
 ---------------------------------------------------------------------
 Center     Atomic      Atomic             Coordinates (Angstroms)
 Number     Number       Type             X           Y           Z
 ---------------------------------------------------------------------
      1          6           0       -1.661442   -0.234087   -0.055153
      2          1           0       -3.000919   -0.864355    0.042561
      3          6           0       -0.631747    0.400119   -0.043761
      4          6           0        0.642395    1.125627    0.014429
      5          8           0        0.675251    2.274427    0.339881
      6          8           0        1.742930    0.456139   -0.326040
      7          6           0        1.699236   -0.951462   -0.623784
      8          6           0        1.752088   -1.776097    0.646710
      9          1           0        0.811258   -1.175083   -1.217806
     10          1           0        2.580573   -1.116356   -1.241433
     11          1           0        2.638586   -1.518425    1.227717
     12          1           0        0.866044   -1.606351    1.260592
     13          1           0        1.795201   -2.837850    0.396124
     14          8           0       -3.970784   -0.538961   -0.091478
     15          1           0       -4.073103    0.200978    0.522686
 ---------------------------------------------------------------------

 SCF Done:  E(UHF) =  -417.925149184     A.U. after   35 cycles
 E2 =    -0.1268579864D+01 EUMP2 =    -0.41919372904759D+03
 CCSD(T)= -0.41931524094D+03

 The electronic state is 2-A.
 Alpha  occ. eigenvalues --  -20.62601 -20.61838 -20.56160 -11.42438 -11.32549
 Alpha  occ. eigenvalues --  -11.31252 -11.27083 -11.24083  -1.48346  -1.41324
 Alpha  occ. eigenvalues --   -1.38455  -1.09774  -1.05833  -0.92761  -0.88444
 Alpha  occ. eigenvalues --   -0.80827  -0.75405  -0.69953  -0.68113  -0.67452
 Alpha  occ. eigenvalues --   -0.63932  -0.59157  -0.58008  -0.56631  -0.55708
 Alpha  occ. eigenvalues --   -0.55459  -0.51808  -0.49101  -0.47947  -0.45889
 Alpha  occ. eigenvalues --   -0.44860
 Alpha virt. eigenvalues --    0.03425   0.04533   0.05347   0.06028   0.07244
 Alpha virt. eigenvalues --    0.07957   0.08816   0.08824   0.10759   0.12066
 Alpha virt. eigenvalues --    0.12937   0.13364   0.14383   0.15389   0.15789

  Beta  occ. eigenvalues --  -20.61760 -20.60718 -20.56992 -11.41872 -11.31273
  Beta  occ. eigenvalues --  -11.28901 -11.27328 -11.24084  -1.48625  -1.39702
  Beta  occ. eigenvalues --   -1.34998  -1.08037  -1.05817  -0.91559  -0.86608
  Beta  occ. eigenvalues --   -0.75658  -0.73373  -0.70728  -0.67708  -0.64345
  Beta  occ. eigenvalues --   -0.59668  -0.59298  -0.57088  -0.55687  -0.53151
  Beta  occ. eigenvalues --   -0.51971  -0.49644  -0.47902  -0.44989  -0.44334
  Beta virt. eigenvalues --   -0.01687   0.03756   0.05093   0.05662   0.06039
  Beta virt. eigenvalues --    0.07415   0.08455   0.08860   0.10376   0.10856
  Beta virt. eigenvalues --    0.12225   0.13025   0.13638   0.14975   0.15391

 Mulliken charges and spin densities:
               1          2
     1  C   -0.390926   1.881549
     2  H    0.380066  -0.136206
     3  C    0.652402  -1.100705
     4  C   -0.230892   0.202906
     5  O   -0.316702  -0.177548
     6  O   -0.147301  -0.000604
     7  C   -0.221549  -0.005670
     8  C   -0.407231  -0.001865
     9  H    0.135481   0.006489
    10  H    0.180038  -0.000185
    11  H    0.172971   0.000927
    12  H    0.120354   0.003590
    13  H    0.129415  -0.001149
    14  O   -0.332088   0.345694
    15  H    0.275962  -0.017224
 Sum of Mulliken charges =  -0.00000   1.00000

 Dipole moment (field-independent basis, Debye):
    X=             -0.1449    Y=             -3.8512    Z=              0.3762  Tot=              3.8723
 Quadrupole moment (field-independent basis, Debye-Ang):
   XX=            -49.6882   YY=            -54.6415   ZZ=            -46.9238
   XY=             -9.7698   XZ=             -6.1450   YZ=             -0.5246

 0=-419.2404874\MP4SDQ=-419.2477662\CCSD=-419.2591615\CCSD(T)=-419.3152
 Normal termination of Gaussian 16 at Mon May  5 15:38:13 2025.
