 Gaussian 16, Revision A.03,
 Gaussian 16:  ES64L-G16RevA.03 25-Dec-2016

 --------------------------
 # freq 6-311++g(d,p) m062x
 --------------------------

 -------------------
 Title Card Required
 -------------------
 Symbolic Z-matrix:
 Charge =  0 Multiplicity = 2

                         Standard orientation:
 ---------------------------------------------------------------------
 Center     Atomic      Atomic             Coordinates (Angstroms)
 Number     Number       Type             X           Y           Z
 ---------------------------------------------------------------------
      1          6           0       -1.662491   -0.235093   -0.054446
      2          1           0       -2.981334   -0.850584    0.034090
      3          6           0       -0.632627    0.399042   -0.043603
      4          6           0        0.641433    1.125674    0.014191
      5          8           0        0.674208    2.274533    0.339541
      6          8           0        1.742444    0.456634   -0.326221
      7          6           0        1.699383   -0.951002   -0.623756
      8          6           0        1.752731   -1.775461    0.646833
      9          1           0        0.811442   -1.175070   -1.217668
     10          1           0        2.580728   -1.115536   -1.241505
     11          1           0        2.639218   -1.517371    1.227664
     12          1           0        0.866667   -1.606045    1.260749
     13          1           0        1.796281   -2.837209    0.396261
     14          8           0       -3.970175   -0.540930   -0.090398
     15          1           0       -4.075395    0.200961    0.521724
 ---------------------------------------------------------------------

 SCF Done:  E(UM062X) =  -420.167180919     A.U. after   22 cycles

 The electronic state is 2-A.
 Alpha  occ. eigenvalues --  -19.69516 -19.68751 -19.63493 -10.71452 -10.61722
 Alpha  occ. eigenvalues --  -10.61117 -10.58780 -10.54836  -1.25835  -1.19368
 Alpha  occ. eigenvalues --   -1.17302  -0.90590  -0.89004  -0.77885  -0.74175
 Alpha  occ. eigenvalues --   -0.68232  -0.64214  -0.58855  -0.57394  -0.56732
 Alpha  occ. eigenvalues --   -0.53636  -0.50092  -0.47800  -0.46915  -0.46424
 Alpha  occ. eigenvalues --   -0.43594  -0.42762  -0.40624  -0.39438  -0.38086
 Alpha  occ. eigenvalues --   -0.37097
 Alpha virt. eigenvalues --   -0.02806  -0.00888  -0.00073   0.01291   0.01359
 Alpha virt. eigenvalues --    0.02947   0.04109   0.04432   0.04951   0.05755
 Alpha virt. eigenvalues --    0.07012   0.07604   0.07993   0.09326   0.10027

  Beta  occ. eigenvalues --  -19.68756 -19.68657 -19.63470 -10.71436 -10.61723
  Beta  occ. eigenvalues --  -10.60115 -10.58672 -10.54837  -1.25817  -1.17257
  Beta  occ. eigenvalues --   -1.16153  -0.89229  -0.88769  -0.77522  -0.73335
  Beta  occ. eigenvalues --   -0.64860  -0.63943  -0.58816  -0.57393  -0.53640
  Beta  occ. eigenvalues --   -0.51791  -0.50097  -0.47750  -0.46499  -0.43804
  Beta  occ. eigenvalues --   -0.42855  -0.39845  -0.38852  -0.37342  -0.36531
  Beta virt. eigenvalues --   -0.17465  -0.01866  -0.00643   0.00115   0.01370
  Beta virt. eigenvalues --    0.01580   0.03044   0.04294   0.04765   0.05677
  Beta virt. eigenvalues --    0.05814   0.07129   0.07697   0.08136   0.09377

 Mulliken charges and spin densities:
               1          2
     1  C   -0.474938   0.693432
     2  H    0.414184  -0.034753
     3  C    0.555706  -0.018489
     4  C   -0.288192  -0.027675
     5  O   -0.244226   0.006231
     6  O   -0.029785   0.000059
     7  C   -0.358801  -0.006953
     8  C   -0.405684   0.003251
     9  H    0.165374   0.001913
    10  H    0.204904  -0.000006
    11  H    0.188121   0.000244
    12  H    0.138764   0.000019
    13  H    0.156991  -0.000394
    14  O   -0.298664   0.392636
    15  H    0.276246  -0.009514
 Sum of Mulliken charges =  -0.00000   1.00000

 Dipole moment (field-independent basis, Debye):
    X=             -0.4648    Y=             -3.3821    Z=              0.4165  Tot=              3.4392
 Quadrupole moment (field-independent basis, Debye-Ang):
   XX=            -45.8729   YY=            -53.9208   ZZ=            -47.1917
   XY=             -9.1581   XZ=             -6.0039   YZ=             -0.4521

  Exact polarizability: 124.834  16.395  78.183  -2.201   3.261  51.380
 Approx polarizability: 115.480  21.363  94.650  -0.903   7.134  60.310

 ******    1 imaginary frequencies (negative Signs) ******

                      1                      2                      3
                      A                      A                      A
 Frequencies --   -808.2460                13.3520                38.1104
 Red. masses --      1.0521                 2.2040                 6.5118
 Frc consts  --      0.4049                 0.0002                 0.0056
 IR Inten    --    210.1616                24.5089                 2.3731

                      4                      5                      6
                      A                      A                      A
 Frequencies --     70.6800                97.7841               106.7287
 Red. masses --      2.8715                 2.2825                 3.7764
 Frc consts  --      0.0085                 0.0129                 0.0253
 IR Inten    --     11.7078                48.9395                 1.9641

                      7                      8                      9
                      A                      A                      A
 Frequencies --    159.0964               226.1531               230.3886
 Red. masses --      2.9574                 1.1567                 7.9545
 Frc consts  --      0.0441                 0.0349                 0.2488
 IR Inten    --      6.0118                 0.1577                18.1063

                     10                     11                     12
                      A                      A                      A
 Frequencies --    300.5255               357.0967               413.3198
 Red. masses --      7.2325                 2.7877                 3.6561
 Frc consts  --      0.3849                 0.2094                 0.3680
 IR Inten    --     40.0303                 2.7258                 7.9691

                     13                     14                     15
                      A                      A                      A
 Frequencies --    532.3732               551.0235               614.1573
 Red. masses --      1.1380                 4.9175                 6.4714
 Frc consts  --      0.1900                 0.8797                 1.4382
 IR Inten    --    208.7251                30.7352                 6.7105

                     16                     17                     18
                      A                      A                      A
 Frequencies --    748.4093               763.6374               814.4406
 Red. masses --      8.5591                 5.2038                 1.1865
 Frc consts  --      2.8246                 1.7879                 0.4637
 IR Inten    --     19.9032                11.1958                 3.4288

                     19                     20                     21
                      A                      A                      A
 Frequencies --    951.4258              1106.2887              1132.2059
 Red. masses --      2.2566                 3.4563                 2.5627
 Frc consts  --      1.2035                 2.4923                 1.9355
 IR Inten    --      8.5420                59.9271                54.0572

                     22                     23                     24
                      A                      A                      A
 Frequencies --   1178.9555              1259.5904              1341.6425
 Red. masses --      1.9318                 3.0129                 1.1350
 Frc consts  --      1.5820                 2.8164                 1.2037
 IR Inten    --     76.7990               475.5166                27.8315

                     25                     26                     27
                      A                      A                      A
 Frequencies --   1348.2378              1405.7207              1432.7930
 Red. masses --      1.2439                 1.2692                 1.3675
 Frc consts  --      1.3322                 1.4777                 1.6540
 IR Inten    --    124.0991                28.7820                20.0190

                     28                     29                     30
                      A                      A                      A
 Frequencies --   1493.0580              1501.9199              1525.5003
 Red. masses --      1.0400                 1.0471                 1.0999
 Frc consts  --      1.3659                 1.3917                 1.5081
 IR Inten    --      2.5448                 3.9323                20.5067

                     31                     32                     33
                      A                      A                      A
 Frequencies --   1860.9915              2080.9114              2264.0414
 Red. masses --     13.0348                 1.3902                 3.5059
 Frc consts  --     26.5977                 3.5467                10.5882
 IR Inten    --    479.1614               638.6280               105.9961

                     34                     35                     36
                      A                      A                      A
 Frequencies --   3073.5860              3101.7343              3146.1653
 Red. masses --      1.0353                 1.0625                 1.1041
 Frc consts  --      5.7627                 6.0225                 6.4389
 IR Inten    --      6.9817                15.2144                 1.0271

                     37                     38                     39
                      A                      A                      A
 Frequencies --   3152.6490              3168.1633              3850.1234
 Red. masses --      1.1012                 1.1061                 1.0668
 Frc consts  --      6.4487                 6.5415                 9.3170
 IR Inten    --     12.5895                24.1879               162.2903

 - Thermochemistry -
 -------------------
 Temperature   298.150 Kelvin.  Pressure   1.00000 Atm.
 Atom     1 has atomic number  6 and mass  12.00000

 Molecular mass:   115.03952 amu.
 Principal axes and moments of inertia in atomic units:
                           1         2         3
     Eigenvalues --   687.333181739.063732283.64100
           X            0.99908  -0.04292  -0.00257
           Y            0.04288   0.99898  -0.01393
           Z            0.00316   0.01381   0.99990
 This molecule is an asymmetric top.
 Rotational symmetry number  1.
 Warning -- assumption of classical behavior for rotation
           may cause significant error
 Rotational temperatures (Kelvin)      0.12601     0.04980     0.03793
 Rotational constants (GHZ):           2.62572     1.03777     0.79029
    1 imaginary frequencies ignored.
 Zero-point vibrational energy     283592.6 (Joules/Mol)
                                   67.78026 (Kcal/Mol)
 Warning -- explicit consideration of  14 degrees of freedom as
           vibrations may cause significant error
 Vibrational temperatures:     19.21    54.83   101.69   140.69   153.56
          (Kelvin)            228.90   325.38   331.48   432.39   513.78
                              594.68   765.97   792.80   883.64  1076.79
                             1098.70  1171.80  1368.89  1591.70  1628.99
                             1696.25  1812.27  1930.32  1939.81  2022.52
                             2061.47  2148.18  2160.93  2194.85  2677.55
                             2993.97  3257.45  4422.20  4462.70  4526.63
                             4535.96  4558.28  5539.47

 Zero-point correction=                           0.108015 (Hartree/Particle)
 Thermal correction to Energy=                    0.118579
 Thermal correction to Enthalpy=                  0.119523
 Thermal correction to Gibbs Free Energy=         0.068624
 Sum of electronic and zero-point Energies=           -420.059166
 Sum of electronic and thermal Energies=              -420.048602
 Sum of electronic and thermal Enthalpies=            -420.047658
 Sum of electronic and thermal Free Energies=         -420.098557

                     E (Thermal)             CV                S
                      KCal/Mol        Cal/Mol-Kelvin    Cal/Mol-Kelvin
 Total                   74.409             33.409            107.127
 Electronic               0.000              0.000              1.377
 Translational            0.889              2.981             40.136
 Rotational               0.889              2.981             29.391
 Vibrational             72.632             27.447             36.223
 Vibration     1          0.593              1.987              7.437
 Vibration     2          0.594              1.982              5.355
 Vibration     3          0.598              1.968              4.134
 Vibration     4          0.603              1.951              3.498
 Vibration     5          0.606              1.944              3.328
 Vibration     6          0.621              1.892              2.561
 Vibration     7          0.650              1.801              1.909
 Vibration     8          0.652              1.795              1.876
 Vibration     9          0.693              1.673              1.414
 Vibration    10          0.732              1.561              1.135
 Vibration    11          0.777              1.441              0.915
 Vibration    12          0.887              1.178              0.582
 Vibration    13          0.906              1.137              0.542
 Vibration    14          0.974              1.002              0.426

 1\1\GINC-AJ\Freq\UM062X\6-311++G(d,p)\C5H7O3(2)\AAYUSH\29-Mar-2025\0\\
 # freq 6-311++g(d,p) m062x\\Title Card Required\\0,2\C,-1.648317,-0.31
 2393,-0.045986\H,-2.966925,-0.928388,0.04255\C,-0.618695,0.322136,-0.0
 35143\C,0.655087,1.049254,0.022651\O,0.687423,2.198126,0.348001\O,1.75
 6354,0.380635,-0.317761\C,1.713831,-1.027017,-0.615296\C,1.767494,-1.8
 51456,0.655293\H,0.825975,-1.251424,-1.209208\H,2.595238,-1.191214,-1.
 233045\H,2.653882,-1.593027,1.236124\H,0.881365,-1.682378,1.269209\H,1
 .811449,-2.913187,0.404721\O,-3.955884,-0.619111,-0.081938\H,-4.061387

 Normal termination of Gaussian 16 at Sat Mar 29 01:28:07 2025.
