 Gaussian 16, Revision A.03,
 Gaussian 16:  ES64L-G16RevA.03 25-Dec-2016

 --------------------------
 # ccsd(t)/6-311++g(d,p) sp
 --------------------------

 -------------------
 Title Card Required
 -------------------
 Symbolic Z-matrix:
 Charge =  0 Multiplicity = 2

                         Standard orientation:
 ---------------------------------------------------------------------
 Center     Atomic      Atomic             Coordinates (Angstroms)
 Number     Number       Type             X           Y           Z
 ---------------------------------------------------------------------
      1          6           0       -1.657590   -0.229762   -0.057976
      2          1           0       -3.070601   -0.924428    0.083532
      3          6           0       -0.628283    0.404352   -0.044479
      4          6           0        0.646191    1.125487    0.015064
      5          8           0        0.679787    2.274168    0.340624
      6          8           0        1.744911    0.453967   -0.325724
      7          6           0        1.698396   -0.953473   -0.624027
      8          6           0        1.749372   -1.778667    0.646190
      9          1           0        0.810181   -1.175060   -1.218413
     10          1           0        2.579608   -1.119758   -1.241458
     11          1           0        2.636126   -1.522774    1.227578
     12          1           0        0.863457   -1.607634    1.259905
     13          1           0        1.790744   -2.840393    0.395181
     14          8           0       -3.973939   -0.530383   -0.095422
     15          1           0       -4.064098    0.200412    0.529222
 ---------------------------------------------------------------------

 SCF Done:  E(UHF) =  -417.929436053     A.U. after   34 cycles
 E2 =    -0.1264757596D+01 EUMP2 =    -0.41919419364885D+03
 CCSD(T)= -0.41931627986D+03

 The electronic state is 2-A.
 Alpha  occ. eigenvalues --  -20.61920 -20.61202 -20.56242 -11.42503 -11.32935
 Alpha  occ. eigenvalues --  -11.31347 -11.27198 -11.24184  -1.48441  -1.40373
 Alpha  occ. eigenvalues --   -1.38533  -1.10055  -1.05933  -0.92867  -0.88505
 Alpha  occ. eigenvalues --   -0.79792  -0.75499  -0.70037  -0.67786  -0.67317
 Alpha  occ. eigenvalues --   -0.64000  -0.59251  -0.58174  -0.56166  -0.55566
 Alpha  occ. eigenvalues --   -0.55129  -0.51905  -0.49348  -0.48189  -0.46061
 Alpha  occ. eigenvalues --   -0.44975
 Alpha virt. eigenvalues --    0.03351   0.04551   0.05305   0.06026   0.07212
 Alpha virt. eigenvalues --    0.07880   0.08677   0.08766   0.10732   0.12004
 Alpha virt. eigenvalues --    0.12906   0.13267   0.14328   0.15367   0.15734

  Beta  occ. eigenvalues --  -20.61838 -20.59789 -20.57106 -11.41914 -11.31369
  Beta  occ. eigenvalues --  -11.29046 -11.27430 -11.24185  -1.48730  -1.39828
  Beta  occ. eigenvalues --   -1.35710  -1.08178  -1.05916  -0.91635  -0.86639
  Beta  occ. eigenvalues --   -0.75745  -0.73618  -0.70843  -0.67816  -0.64446
  Beta  occ. eigenvalues --   -0.59777  -0.59497  -0.57213  -0.55787  -0.52739
  Beta  occ. eigenvalues --   -0.52072  -0.49796  -0.48020  -0.45201  -0.44518
  Beta virt. eigenvalues --   -0.01355   0.03732   0.05059   0.05784   0.06029
  Beta virt. eigenvalues --    0.07426   0.08412   0.08737   0.10425   0.10833
  Beta virt. eigenvalues --    0.12173   0.13059   0.13611   0.14954   0.15379

 Mulliken charges and spin densities:
               1          2
     1  C   -0.370737   1.982857
     2  H    0.354408  -0.098012
     3  C    0.675989  -1.133152
     4  C   -0.225717   0.209518
     5  O   -0.315179  -0.184378
     6  O   -0.147224  -0.000617
     7  C   -0.224202  -0.005304
     8  C   -0.406812  -0.001950
     9  H    0.136052   0.006815
    10  H    0.179805  -0.000146
    11  H    0.173337   0.000957
    12  H    0.119271   0.003803
    13  H    0.130023  -0.001246
    14  O   -0.355217   0.234169
    15  H    0.276203  -0.013315
 Sum of Mulliken charges =  -0.00000   1.00000

 Dipole moment (field-independent basis, Debye):
    X=              0.1352    Y=             -3.9712    Z=              0.4653  Tot=              4.0006
 Quadrupole moment (field-independent basis, Debye-Ang):
   XX=            -51.5642   YY=            -54.2900   ZZ=            -46.8630
   XY=             -9.4786   XZ=             -6.4502   YZ=             -0.6159

 PMP3-0=-419.2406288\MP4SDQ=-419.2482608\CCSD=-419.2605349\CCSD(T)=-419
 Normal termination of Gaussian 16 at Fri May  2 08:44:35 2025.
