 Gaussian 16, Revision A.03,
 Gaussian 16:  ES64L-G16RevA.03 25-Dec-2016

 --------------------------
 # freq 6-311++g(d,p) m062x
 --------------------------

 -------------------
 Title Card Required
 -------------------
 Symbolic Z-matrix:
 Charge =  0 Multiplicity = 2

                         Standard orientation:
 ---------------------------------------------------------------------
 Center     Atomic      Atomic             Coordinates (Angstroms)
 Number     Number       Type             X           Y           Z
 ---------------------------------------------------------------------
      1          6           0       -1.661442   -0.234087   -0.055153
      2          1           0       -3.000919   -0.864355    0.042561
      3          6           0       -0.631747    0.400119   -0.043761
      4          6           0        0.642395    1.125627    0.014429
      5          8           0        0.675251    2.274427    0.339881
      6          8           0        1.742930    0.456139   -0.326040
      7          6           0        1.699236   -0.951462   -0.623784
      8          6           0        1.752088   -1.776097    0.646710
      9          1           0        0.811258   -1.175083   -1.217806
     10          1           0        2.580573   -1.116356   -1.241433
     11          1           0        2.638586   -1.518425    1.227717
     12          1           0        0.866044   -1.606351    1.260592
     13          1           0        1.795201   -2.837850    0.396124
     14          8           0       -3.970784   -0.538961   -0.091478
     15          1           0       -4.073103    0.200978    0.522686
 ---------------------------------------------------------------------

 SCF Done:  E(UM062X) =  -420.167285654     A.U. after   21 cycles

 The electronic state is 2-A.
 Alpha  occ. eigenvalues --  -19.69276 -19.68774 -19.63521 -10.71475 -10.61742
 Alpha  occ. eigenvalues --  -10.61249 -10.58817 -10.54854  -1.25864  -1.19343
 Alpha  occ. eigenvalues --   -1.17331  -0.90656  -0.89026  -0.77908  -0.74184
 Alpha  occ. eigenvalues --   -0.68155  -0.64242  -0.58879  -0.57412  -0.56533
 Alpha  occ. eigenvalues --   -0.53657  -0.50115  -0.47819  -0.46924  -0.46405
 Alpha  occ. eigenvalues --   -0.43543  -0.42768  -0.40668  -0.39483  -0.38120
 Alpha  occ. eigenvalues --   -0.37131
 Alpha virt. eigenvalues --   -0.02841  -0.00884  -0.00063   0.01279   0.01350
 Alpha virt. eigenvalues --    0.02938   0.04089   0.04400   0.04941   0.05745
 Alpha virt. eigenvalues --    0.06996   0.07617   0.07983   0.09317   0.10022

  Beta  occ. eigenvalues --  -19.68779 -19.68455 -19.63497 -10.71458 -10.61743
  Beta  occ. eigenvalues --  -10.60215 -10.58708 -10.54855  -1.25846  -1.17286
  Beta  occ. eigenvalues --   -1.16291  -0.89249  -0.88785  -0.77538  -0.73336
  Beta  occ. eigenvalues --   -0.64933  -0.64010  -0.58840  -0.57421  -0.53656
  Beta  occ. eigenvalues --   -0.51679  -0.50122  -0.47772  -0.46520  -0.43739
  Beta  occ. eigenvalues --   -0.42875  -0.39865  -0.38873  -0.37358  -0.36545
  Beta virt. eigenvalues --   -0.17364  -0.01845  -0.00644   0.00123   0.01361
  Beta virt. eigenvalues --    0.01578   0.03041   0.04267   0.04747   0.05706
  Beta virt. eigenvalues --    0.05810   0.07119   0.07709   0.08130   0.09365

 Mulliken charges and spin densities:
               1          2
     1  C   -0.471098   0.719973
     2  H    0.407380  -0.033782
     3  C    0.560794  -0.020357
     4  C   -0.286575  -0.028449
     5  O   -0.244022   0.006208
     6  O   -0.029720   0.000021
     7  C   -0.359624  -0.007127
     8  C   -0.405560   0.003327
     9  H    0.165726   0.002051
    10  H    0.204836  -0.000020
    11  H    0.188168   0.000255
    12  H    0.138653   0.000028
    13  H    0.157130  -0.000411
    14  O   -0.302877   0.367328
    15  H    0.276789  -0.009045
 Sum of Mulliken charges =  -0.00000   1.00000

 Dipole moment (field-independent basis, Debye):
    X=             -0.4107    Y=             -3.3947    Z=              0.4323  Tot=              3.4467
 Quadrupole moment (field-independent basis, Debye-Ang):
   XX=            -46.2155   YY=            -53.8567   ZZ=            -47.1841
   XY=             -9.1262   XZ=             -6.0615   YZ=             -0.4705

  Exact polarizability: 125.365  16.713  78.455  -2.294   3.249  51.466
 Approx polarizability: 115.061  21.321  94.789  -0.920   7.113  60.341

 ******    2 imaginary frequencies (negative Signs) ******

                      1                      2                      3
                      A                      A                      A
 Frequencies --   -740.1956               -43.0326                27.6735
 Red. masses --      1.0542                 1.4456                 6.8115
 Frc consts  --      0.3403                 0.0016                 0.0031
 IR Inten    --    156.0386                44.9495                 2.2106

                      4                      5                      6
                      A                      A                      A
 Frequencies --     57.9639                82.4578               105.2555
 Red. masses --      2.8621                 4.0827                 4.1447
 Frc consts  --      0.0057                 0.0164                 0.0271
 IR Inten    --     23.5012                15.5573                 0.6440

                      7                      8                      9
                      A                      A                      A
 Frequencies --    154.5326               223.9312               225.7545
 Red. masses --      3.1242                 7.5329                 1.1638
 Frc consts  --      0.0440                 0.2226                 0.0349
 IR Inten    --      3.7907                24.5267                 0.0822

                     10                     11                     12
                      A                      A                      A
 Frequencies --    283.0649               356.4807               412.8147
 Red. masses --      7.6043                 2.7892                 3.6737
 Frc consts  --      0.3590                 0.2088                 0.3689
 IR Inten    --     51.8253                 2.6646                 8.7095

                     13                     14                     15
                      A                      A                      A
 Frequencies --    510.6322               549.0586               612.7612
 Red. masses --      1.0959                 5.9157                 6.4178
 Frc consts  --      0.1684                 1.0507                 1.4198
 IR Inten    --    184.5089                51.6856                 7.1683

                     16                     17                     18
                      A                      A                      A
 Frequencies --    747.6870               763.7071               814.4614
 Red. masses --      8.8465                 5.1374                 1.1879
 Frc consts  --      2.9138                 1.7654                 0.4643
 IR Inten    --     21.0799                10.3866                 3.3196

                     19                     20                     21
                      A                      A                      A
 Frequencies --    951.5137              1106.3327              1132.2177
 Red. masses --      2.2584                 3.4569                 2.5668
 Frc consts  --      1.2047                 2.4929                 1.9387
 IR Inten    --      8.5123                60.6090                54.6410

                     22                     23                     24
                      A                      A                      A
 Frequencies --   1178.9189              1259.6623              1348.2363
 Red. masses --      1.9305                 3.0112                 1.2435
 Frc consts  --      1.5809                 2.8152                 1.3318
 IR Inten    --     76.6010               475.6438               126.8351

                     25                     26                     27
                      A                      A                      A
 Frequencies --   1373.3490              1405.7678              1432.8113
 Red. masses --      1.1207                 1.2695                 1.3676
 Frc consts  --      1.2454                 1.4781                 1.6542
 IR Inten    --     29.1736                28.2493                20.1697

                     28                     29                     30
                      A                      A                      A
 Frequencies --   1493.0510              1501.9297              1525.5139
 Red. masses --      1.0400                 1.0471                 1.1000
 Frc consts  --      1.3659                 1.3917                 1.5082
 IR Inten    --      2.5786                 3.9138                20.5048

                     31                     32                     33
                      A                      A                      A
 Frequencies --   1861.1319              2173.1419              2349.9445
 Red. masses --     13.0349                 3.5214                 1.3854
 Frc consts  --     26.6019                 9.7980                 4.5075
 IR Inten    --    477.0914               296.6145               476.3175

                     34                     35                     36
                      A                      A                      A
 Frequencies --   3073.5748              3101.7921              3146.1310
 Red. masses --      1.0353                 1.0625                 1.1040
 Frc consts  --      5.7627                 6.0227                 6.4386
 IR Inten    --      6.9587                15.2552                 1.0551

                     37                     38                     39
                      A                      A                      A
 Frequencies --   3152.6999              3168.1678              3856.2612
 Red. masses --      1.1012                 1.1061                 1.0669
 Frc consts  --      6.4489                 6.5415                 9.3476
 IR Inten    --     12.5341                24.1783               161.9970

 - Thermochemistry -
 -------------------
 Temperature   298.150 Kelvin.  Pressure   1.00000 Atm.
 Atom     1 has atomic number  6 and mass  12.00000

 Molecular mass:   115.03952 amu.
 Principal axes and moments of inertia in atomic units:
                           1         2         3
     Eigenvalues --   687.453971739.578112284.24003
           X            0.99908  -0.04271  -0.00270
           Y            0.04266   0.99899  -0.01405
           Z            0.00329   0.01392   0.99990
 This molecule is an asymmetric top.
 Rotational symmetry number  1.
 Warning -- assumption of classical behavior for rotation
           may cause significant error
 Rotational temperatures (Kelvin)      0.12599     0.04979     0.03792
 Rotational constants (GHZ):           2.62525     1.03746     0.79008
    2 imaginary frequencies ignored.
 Zero-point vibrational energy     284235.0 (Joules/Mol)
                                   67.93380 (Kcal/Mol)
 Warning -- explicit consideration of  13 degrees of freedom as
           vibrations may cause significant error
 Vibrational temperatures:     39.82    83.40   118.64   151.44   222.34
          (Kelvin)            322.19   324.81   407.27   512.90   593.95
                              734.69   789.97   881.63  1075.75  1098.80
                             1171.83  1369.02  1591.77  1629.01  1696.20
                             1812.37  1939.81  1975.94  2022.59  2061.50
                             2148.17  2160.94  2194.87  2677.75  3126.67
                             3381.05  4422.19  4462.79  4526.58  4536.03
                             4558.29  5548.30

 Zero-point correction=                           0.108259 (Hartree/Particle)
 Thermal correction to Energy=                    0.118048
 Thermal correction to Enthalpy=                  0.118992
 Thermal correction to Gibbs Free Energy=         0.070839
 Sum of electronic and zero-point Energies=           -420.059026
 Sum of electronic and thermal Energies=              -420.049238
 Sum of electronic and thermal Enthalpies=            -420.048294
 Sum of electronic and thermal Free Energies=         -420.096446

                     E (Thermal)             CV                S
                      KCal/Mol        Cal/Mol-Kelvin    Cal/Mol-Kelvin
 Total                   74.076             31.533            101.346
 Electronic               0.000              0.000              1.377
 Translational            0.889              2.981             40.136
 Rotational               0.889              2.981             29.392
 Vibrational             72.299             25.571             30.441
 Vibration     1          0.593              1.984              5.990
 Vibration     2          0.596              1.974              4.525
 Vibration     3          0.600              1.961              3.832
 Vibration     4          0.605              1.945              3.355
 Vibration     5          0.620              1.898              2.616
 Vibration     6          0.649              1.805              1.927
 Vibration     7          0.650              1.802              1.912
 Vibration     8          0.682              1.705              1.515
 Vibration     9          0.732              1.562              1.137
 Vibration    10          0.777              1.442              0.917
 Vibration    11          0.866              1.226              0.632
 Vibration    12          0.904              1.142              0.546
 Vibration    13          0.972              1.005              0.428

 1\1\GINC-AJ\Freq\UM062X\6-311++G(d,p)\C5H7O3(2)\AAYUSH\29-Mar-2025\0\\
 # freq 6-311++g(d,p) m062x\\Title Card Required\\0,2\C,-1.647325,-0.31
 2185,-0.046359\H,-2.986301,-0.943476,0.051622\C,-0.61812,0.32282,-0.03
 5196\C,0.655466,1.049325,0.02272\O,0.687472,2.198202,0.347984\O,1.7564
 78,0.380636,-0.317779\C,1.713838,-1.027046,-0.615293\C,1.767486,-1.851
 437,0.655326\H,0.82596,-1.25145,-1.209169\H,2.595226,-1.191356,-1.2330
 25\H,2.653857,-1.592985,1.236182\H,0.881387,-1.68228,1.269291\H,1.8113
 91,-2.913196,0.404904\O,-3.956434,-0.618855,-0.082349\H,-4.059251,0.12

 Normal termination of Gaussian 16 at Sat Mar 29 01:30:18 2025.
