 Gaussian 16, Revision A.03,
 Gaussian 16:  ES64L-G16RevA.03 25-Dec-2016

 ---------------------------------------------------------
 # opt=(calcfc,tight,noeigentest) freq 6-311++g(d,p) m062x
 ---------------------------------------------------------

 -------------------
 Title Card Required
 -------------------
 Symbolic Z-matrix:
 Charge =  0 Multiplicity = 1

 SCF Done:  E(RM062X) =  -344.477703983     A.U. after   13 cycles
 SCF Done:  E(RM062X) =  -344.477704527     A.U. after    7 cycles
 Optimization completed.
    -- Stationary point found.
 Normal termination of Gaussian 16 at Thu May 22 19:47:47 2025.

 ----------------------------------------------------------------------
 #N Geom=AllCheck Guess=TCheck SCRF=Check GenChk RM062X/6-311++G(d,p) F
 req
 ----------------------------------------------------------------------

 Structure from the checkpoint file:  "ethyl_propiolate.chk"
 -------------------
 Title Card Required
 -------------------
 Charge =  0 Multiplicity = 1

                         Standard orientation:
 ---------------------------------------------------------------------
 Center     Atomic      Atomic             Coordinates (Angstroms)
 Number     Number       Type             X           Y           Z
 ---------------------------------------------------------------------
      1          6           0       -2.947326   -0.925173    0.000005
      2          1           0       -3.872221   -1.452754    0.000007
      3          6           0       -1.906776   -0.331494    0.000001
      4          6           0       -0.671363    0.440378   -0.000003
      5          8           0       -0.631473    1.639019   -0.000009
      6          8           0        0.395433   -0.358958    0.000002
      7          6           0        1.671160    0.310287   -0.000001
      8          6           0        2.735862   -0.761674    0.000005
      9          1           0        1.726661    0.949761   -0.883200
     10          1           0        1.726660    0.949770    0.883191
     11          1           0        2.647036   -1.391458    0.885900
     12          1           0        2.647036   -1.391467   -0.885884
     13          1           0        3.723800   -0.298285    0.000003
 ---------------------------------------------------------------------

 SCF Done:  E(RM062X) =  -344.477704527     A.U. after    2 cycles

 The electronic state is 1-A.
 Alpha  occ. eigenvalues --  -19.68384 -19.63176 -10.70532 -10.60694 -10.56916
 Alpha  occ. eigenvalues --  -10.56536 -10.54166  -1.25755  -1.16372  -0.90518
 Alpha  occ. eigenvalues --   -0.87117  -0.77479  -0.69921  -0.65507  -0.60793
 Alpha  occ. eigenvalues --   -0.59294  -0.57560  -0.51658  -0.49412  -0.47262
 Alpha  occ. eigenvalues --   -0.44239  -0.43550  -0.39329  -0.38757  -0.37079
 Alpha  occ. eigenvalues --   -0.36145
 Alpha virt. eigenvalues --   -0.01388  -0.00255   0.00706   0.02154   0.02227
 Alpha virt. eigenvalues --    0.03147   0.04167   0.05657   0.06270   0.06737
 Alpha virt. eigenvalues --    0.06925   0.08102   0.09122   0.09566   0.11096

 Mulliken charges:
               1
     1  C   -0.643911
     2  H    0.179998
     3  C    1.200319
     4  C   -0.647853
     5  O   -0.226086
     6  O   -0.011389
     7  C   -0.174606
     8  C   -0.596688
     9  H    0.202081
    10  H    0.202081
    11  H    0.175991
    12  H    0.175991
    13  H    0.164073
 Sum of Mulliken charges =  -0.00000

 Dipole moment (field-independent basis, Debye):
    X=              0.9300    Y=             -1.8633    Z=              0.0000  Tot=              2.0825
 Quadrupole moment (field-independent basis, Debye-Ang):
   XX=            -29.7127   YY=            -45.9479   ZZ=            -40.9963
   XY=              5.9840   XZ=             -0.0000   YZ=              0.0000

  Exact polarizability:  83.420   8.903  60.448  -0.000  -0.000  42.320
 Approx polarizability:  85.901  14.399  76.849  -0.000  -0.000  50.598

                      1                      2                      3
                      A                      A                      A
 Frequencies --     76.1539               122.5589               131.8662
 Red. masses --      3.0064                 2.3029                 3.8046
 Frc consts  --      0.0103                 0.0204                 0.0390
 IR Inten    --      0.5403                 4.9323                 4.4823

                      4                      5                      6
                      A                      A                      A
 Frequencies --    252.8975               260.6902               304.9609
 Red. masses --      1.3429                 4.7607                 3.3515
 Frc consts  --      0.0506                 0.1906                 0.1836
 IR Inten    --      0.5916                 4.3103                 0.0015

                      7                      8                      9
                      A                      A                      A
 Frequencies --    385.3818               538.5749               620.6074
 Red. masses --      3.4611                 5.7488                 7.4381
 Frc consts  --      0.3029                 0.9825                 1.6879
 IR Inten    --     11.6116                 0.5579                 6.8673

                     10                     11                     12
                      A                      A                      A
 Frequencies --    734.2614               764.5096               784.6411
 Red. masses --      1.3254                 1.3554                 4.5163
 Frc consts  --      0.4210                 0.4668                 1.6382
 IR Inten    --     39.6444                27.7154                35.6484

                     13                     14                     15
                      A                      A                      A
 Frequencies --    815.2249               904.2588               959.0263
 Red. masses --      1.2184                 2.3860                 5.8664
 Frc consts  --      0.4771                 1.1495                 3.1790
 IR Inten    --      0.6121                10.3507                 9.4380

                     16                     17                     18
                      A                      A                      A
 Frequencies --   1086.7986              1151.1304              1184.5016
 Red. masses --      3.5432                 2.2757                 1.5754
 Frc consts  --      2.4657                 1.7767                 1.3023
 IR Inten    --     33.9798                14.4387                 4.6839

                     19                     20                     21
                      A                      A                      A
 Frequencies --   1302.7171              1313.2315              1402.1450
 Red. masses --      7.6551                 1.0860                 1.2710
 Frc consts  --      7.6543                 1.1035                 1.4723
 IR Inten    --    764.6022                 1.5539                13.3939

                     22                     23                     24
                      A                      A                      A
 Frequencies --   1440.0943              1492.4909              1504.2745
 Red. masses --      1.4779                 1.0376                 1.0495
 Frc consts  --      1.8058                 1.3617                 1.3992
 IR Inten    --      7.3779                 8.3328                 2.9669

                     25                     26                     27
                      A                      A                      A
 Frequencies --   1527.2492              1841.7371              2268.1678
 Red. masses --      1.0867                12.5305                 5.7539
 Frc consts  --      1.4934                25.0423                17.4407
 IR Inten    --      8.2667               366.9763                66.6327

                     28                     29                     30
                      A                      A                      A
 Frequencies --   3077.6660              3086.7561              3129.5949
 Red. masses --      1.0355                 1.0580                 1.1086
 Frc consts  --      5.7789                 5.9396                 6.3971
 IR Inten    --     10.3808                11.3979                 5.1276

                     31                     32                     33
                      A                      A                      A
 Frequencies --   3155.6204              3163.2747              3491.1028
 Red. masses --      1.1021                 1.1049                 1.1707
 Frc consts  --      6.4658                 6.5143                 8.4063
 IR Inten    --     13.7927                20.1314                62.5895

 - Thermochemistry -
 -------------------
 Temperature   298.150 Kelvin.  Pressure   1.00000 Atm.
 Atom     1 has atomic number  6 and mass  12.00000

 Molecular mass:    98.03678 amu.
 Principal axes and moments of inertia in atomic units:
                           1         2         3
     Eigenvalues --   278.850051203.884951460.20753
           X            1.00000   0.00074  -0.00000
           Y           -0.00074   1.00000   0.00001
           Z            0.00000  -0.00001   1.00000
 This molecule is an asymmetric top.
 Rotational symmetry number  1.
 Rotational temperatures (Kelvin)      0.31061     0.07195     0.05932
 Rotational constants (GHZ):           6.47208     1.49910     1.23595
 Zero-point vibrational energy     264818.3 (Joules/Mol)
                                   63.29310 (Kcal/Mol)
 Warning -- explicit consideration of   9 degrees of freedom as
           vibrations may cause significant error
 Vibrational temperatures:    109.57   176.33   189.73   363.86   375.07
          (Kelvin)            438.77   554.48   774.89   892.92  1056.44
                             1099.96  1128.92  1172.93  1301.03  1379.82
                             1563.66  1656.22  1704.23  1874.32  1889.45
                             2017.37  2071.97  2147.36  2164.32  2197.37
                             2649.85  3263.39  4428.07  4441.15  4502.79
                             4540.23  4551.25  5022.92

 Zero-point correction=                           0.100864 (Hartree/Particle)
 Thermal correction to Energy=                    0.108441
 Thermal correction to Enthalpy=                  0.109385
 Thermal correction to Gibbs Free Energy=         0.068751
 Sum of electronic and zero-point Energies=           -344.376841
 Sum of electronic and thermal Energies=              -344.369263
 Sum of electronic and thermal Enthalpies=            -344.368319
 Sum of electronic and thermal Free Energies=         -344.408953

                     E (Thermal)             CV                S
                      KCal/Mol        Cal/Mol-Kelvin    Cal/Mol-Kelvin
 Total                   68.048             25.773             85.522
 Electronic               0.000              0.000              0.000
 Translational            0.889              2.981             39.659
 Rotational               0.889              2.981             27.685
 Vibrational             66.270             19.812             18.178
 Vibration     1          0.599              1.965              3.988
 Vibration     2          0.610              1.930              3.060
 Vibration     3          0.612              1.921              2.919
 Vibration     4          0.664              1.758              1.710
 Vibration     5          0.669              1.745              1.657
 Vibration     6          0.696              1.664              1.390
 Vibration     7          0.754              1.501              1.018
 Vibration     8          0.894              1.165              0.568
 Vibration     9          0.981              0.988              0.416

 Optimization completed.
    -- Stationary point found.
 Normal termination of Gaussian 16 at Thu May 22 19:49:13 2025.
