 Gaussian 16, Revision A.03,
 Gaussian 16:  ES64L-G16RevA.03 25-Dec-2016

 ------------------------------------------------------
 # opt=(calcfc,tight,noeigentest) freq 6-311++g** m062x
 ------------------------------------------------------

 -------------------
 Title Card Required
 -------------------
 Symbolic Z-matrix:
 Charge =  0 Multiplicity = 1

 SCF Done:  E(RM062X) =  -344.474687985     A.U. after   13 cycles
 SCF Done:  E(RM062X) =  -344.477680058     A.U. after   12 cycles
 SCF Done:  E(RM062X) =  -344.477704113     A.U. after    9 cycles
 SCF Done:  E(RM062X) =  -344.477704519     A.U. after    8 cycles
 SCF Done:  E(RM062X) =  -344.477704527     A.U. after    6 cycles
 Optimization completed.
    -- Stationary point found.
 Normal termination of Gaussian 16 at Fri May 23 12:42:01 2025.

 ----------------------------------------------------------------------
 #N Geom=AllCheck Guess=TCheck SCRF=Check GenChk RM062X/6-311++G(d,p) F
 req
 ----------------------------------------------------------------------

 Structure from the checkpoint file:  "ethyl_propiolate_planar.chk"
 -------------------
 Title Card Required
 -------------------
 Charge =  0 Multiplicity = 1

                         Standard orientation:
 ---------------------------------------------------------------------
 Center     Atomic      Atomic             Coordinates (Angstroms)
 Number     Number       Type             X           Y           Z
 ---------------------------------------------------------------------
      1          6           0        2.947327   -0.925172    0.000001
      2          1           0        3.872224   -1.452749    0.000001
      3          6           0        1.906776   -0.331493    0.000001
      4          6           0        0.671361    0.440377    0.000001
      5          8           0        0.631467    1.639019    0.000001
      6          8           0       -0.395434   -0.358958   -0.000000
      7          6           0       -1.671157    0.310287   -0.000001
      8          6           0       -2.735859   -0.761675   -0.000002
      9          1           0       -1.726653    0.949764   -0.883197
     10          1           0       -1.726654    0.949763    0.883197
     11          1           0       -3.723797   -0.298285   -0.000002
     12          1           0       -2.647034   -1.391463   -0.885894
     13          1           0       -2.647035   -1.391464    0.885890
 ---------------------------------------------------------------------

 SCF Done:  E(RM062X) =  -344.477704527     A.U. after    1 cycles

 The electronic state is 1-A.
 Alpha  occ. eigenvalues --  -19.68384 -19.63176 -10.70532 -10.60694 -10.56916
 Alpha  occ. eigenvalues --  -10.56536 -10.54166  -1.25755  -1.16372  -0.90518
 Alpha  occ. eigenvalues --   -0.87117  -0.77479  -0.69921  -0.65507  -0.60793
 Alpha  occ. eigenvalues --   -0.59294  -0.57560  -0.51658  -0.49412  -0.47262
 Alpha  occ. eigenvalues --   -0.44239  -0.43550  -0.39329  -0.38757  -0.37079
 Alpha  occ. eigenvalues --   -0.36145
 Alpha virt. eigenvalues --   -0.01388  -0.00255   0.00706   0.02154   0.02227
 Alpha virt. eigenvalues --    0.03147   0.04167   0.05657   0.06270   0.06737
 Alpha virt. eigenvalues --    0.06925   0.08102   0.09122   0.09566   0.11096

 Mulliken charges:
               1
     1  C   -0.643916
     2  H    0.179998
     3  C    1.200323
     4  C   -0.647854
     5  O   -0.226087
     6  O   -0.011387
     7  C   -0.174606
     8  C   -0.596688
     9  H    0.202080
    10  H    0.202080
    11  H    0.164073
    12  H    0.175991
    13  H    0.175991
 Sum of Mulliken charges =   0.00000

 Dipole moment (field-independent basis, Debye):
    X=             -0.9300    Y=             -1.8633    Z=             -0.0000  Tot=              2.0825
 Quadrupole moment (field-independent basis, Debye-Ang):
   XX=            -29.7126   YY=            -45.9479   ZZ=            -40.9963
   XY=             -5.9840   XZ=              0.0000   YZ=             -0.0000

  Exact polarizability:  83.420  -8.903  60.448   0.000   0.000  42.320
 Approx polarizability:  85.901 -14.399  76.849   0.000   0.000  50.598

                      1                      2                      3
                      A                      A                      A
 Frequencies --     76.1589               122.5567               131.8682
 Red. masses --      3.0065                 2.3028                 3.8046
 Frc consts  --      0.0103                 0.0204                 0.0390
 IR Inten    --      0.5402                 4.9323                 4.4824

                      4                      5                      6
                      A                      A                      A
 Frequencies --    252.8974               260.6933               304.9624
 Red. masses --      1.3428                 4.7607                 3.3517
 Frc consts  --      0.0506                 0.1906                 0.1837
 IR Inten    --      0.5916                 4.3102                 0.0015

                      7                      8                      9
                      A                      A                      A
 Frequencies --    385.3831               538.5763               620.6073
 Red. masses --      3.4611                 5.7488                 7.4382
 Frc consts  --      0.3029                 0.9825                 1.6879
 IR Inten    --     11.6118                 0.5579                 6.8671

                     10                     11                     12
                      A                      A                      A
 Frequencies --    734.2623               764.5100               784.6421
 Red. masses --      1.3254                 1.3554                 4.5162
 Frc consts  --      0.4210                 0.4668                 1.6382
 IR Inten    --     39.6443                27.7154                35.6482

                     13                     14                     15
                      A                      A                      A
 Frequencies --    815.2252               904.2610               959.0274
 Red. masses --      1.2184                 2.3860                 5.8663
 Frc consts  --      0.4771                 1.1495                 3.1789
 IR Inten    --      0.6122                10.3503                 9.4384

                     16                     17                     18
                      A                      A                      A
 Frequencies --   1086.8033              1151.1302              1184.5030
 Red. masses --      3.5433                 2.2758                 1.5754
 Frc consts  --      2.4658                 1.7768                 1.3023
 IR Inten    --     33.9769                14.4402                 4.6838

                     19                     20                     21
                      A                      A                      A
 Frequencies --   1302.7237              1313.2338              1402.1457
 Red. masses --      7.6550                 1.0860                 1.2710
 Frc consts  --      7.6542                 1.1035                 1.4723
 IR Inten    --    764.5985                 1.5541                13.3957

                     22                     23                     24
                      A                      A                      A
 Frequencies --   1440.0946              1492.4909              1504.2742
 Red. masses --      1.4779                 1.0376                 1.0495
 Frc consts  --      1.8058                 1.3617                 1.3992
 IR Inten    --      7.3775                 8.3328                 2.9666

                     25                     26                     27
                      A                      A                      A
 Frequencies --   1527.2486              1841.7289              2268.1653
 Red. masses --      1.0867                12.5305                 5.7539
 Frc consts  --      1.4934                25.0420                17.4407
 IR Inten    --      8.2671               366.9748                66.6332

                     28                     29                     30
                      A                      A                      A
 Frequencies --   3077.6661              3086.7550              3129.5952
 Red. masses --      1.0355                 1.0580                 1.1086
 Frc consts  --      5.7789                 5.9396                 6.3971
 IR Inten    --     10.3809                11.3978                 5.1274

                     31                     32                     33
                      A                      A                      A
 Frequencies --   3155.6202              3163.2747              3491.1017
 Red. masses --      1.1021                 1.1049                 1.1707
 Frc consts  --      6.4658                 6.5143                 8.4063
 IR Inten    --     13.7928                20.1314                62.5897

 - Thermochemistry -
 -------------------
 Temperature   298.150 Kelvin.  Pressure   1.00000 Atm.
 Atom     1 has atomic number  6 and mass  12.00000

 Molecular mass:    98.03678 amu.
 Principal axes and moments of inertia in atomic units:
                           1         2         3
     Eigenvalues --   278.849851203.883411460.20575
           X            1.00000  -0.00074  -0.00000
           Y            0.00074   1.00000  -0.00000
           Z            0.00000   0.00000   1.00000
 This molecule is an asymmetric top.
 Rotational symmetry number  1.
 Rotational temperatures (Kelvin)      0.31061     0.07195     0.05932
 Rotational constants (GHZ):           6.47209     1.49910     1.23595
 Zero-point vibrational energy     264818.4 (Joules/Mol)
                                   63.29313 (Kcal/Mol)
 Warning -- explicit consideration of   9 degrees of freedom as
           vibrations may cause significant error
 Vibrational temperatures:    109.58   176.33   189.73   363.86   375.08
          (Kelvin)            438.77   554.48   774.89   892.92  1056.44
                             1099.96  1128.92  1172.93  1301.03  1379.83
                             1563.67  1656.22  1704.24  1874.33  1889.45
                             2017.37  2071.97  2147.36  2164.32  2197.37
                             2649.84  3263.38  4428.08  4441.15  4502.79
                             4540.23  4551.25  5022.92

 Zero-point correction=                           0.100864 (Hartree/Particle)
 Thermal correction to Energy=                    0.108441
 Thermal correction to Enthalpy=                  0.109385
 Thermal correction to Gibbs Free Energy=         0.068751
 Sum of electronic and zero-point Energies=           -344.376841
 Sum of electronic and thermal Energies=              -344.369263
 Sum of electronic and thermal Enthalpies=            -344.368319
 Sum of electronic and thermal Free Energies=         -344.408953

                     E (Thermal)             CV                S
                      KCal/Mol        Cal/Mol-Kelvin    Cal/Mol-Kelvin
 Total                   68.048             25.773             85.521
 Electronic               0.000              0.000              0.000
 Translational            0.889              2.981             39.659
 Rotational               0.889              2.981             27.685
 Vibrational             66.270             19.812             18.177
 Vibration     1          0.599              1.965              3.988
 Vibration     2          0.610              1.930              3.060
 Vibration     3          0.612              1.921              2.919
 Vibration     4          0.664              1.758              1.710
 Vibration     5          0.669              1.745              1.657
 Vibration     6          0.696              1.664              1.390
 Vibration     7          0.754              1.501              1.018
 Vibration     8          0.894              1.165              0.568
 Vibration     9          0.981              0.988              0.416

 Optimization completed.
    -- Stationary point found.
 Normal termination of Gaussian 16 at Fri May 23 12:42:51 2025.
