 Gaussian 16, Revision A.03,
 Gaussian 16:  ES64L-G16RevA.03 25-Dec-2016

 --------------------------
 # ccsd(t)/6-311++g(d,p) sp
 --------------------------

 -------------------
 Title Card Required
 -------------------
 Symbolic Z-matrix:
 Charge =  0 Multiplicity = 1

                         Standard orientation:
 ---------------------------------------------------------------------
 Center     Atomic      Atomic             Coordinates (Angstroms)
 Number     Number       Type             X           Y           Z
 ---------------------------------------------------------------------
      1          6           0       -2.947327   -0.925172    0.000004
      2          1           0       -3.872224   -1.452749    0.000007
      3          6           0       -1.906776   -0.331493    0.000001
      4          6           0       -0.671361    0.440377   -0.000002
      5          8           0       -0.631467    1.639019   -0.000008
      6          8           0        0.395434   -0.358958    0.000002
      7          6           0        1.671157    0.310287   -0.000001
      8          6           0        2.735859   -0.761675    0.000005
      9          1           0        1.726654    0.949759   -0.883202
     10          1           0        1.726653    0.949768    0.883192
     11          1           0        2.647034   -1.391459    0.885900
     12          1           0        2.647035   -1.391468   -0.885884
     13          1           0        3.723797   -0.298285    0.000002
 ---------------------------------------------------------------------

 SCF Done:  E(RHF) =  -342.588879760     A.U. after   17 cycles
 E2 =    -0.1089140573D+01 EUMP2 =    -0.34367802033215D+03
 CCSD(T)= -0.34376069433D+03

 The electronic state is 1-A.
 Alpha  occ. eigenvalues --  -20.61636 -20.56334 -11.41687 -11.29930 -11.26676
 Alpha  occ. eigenvalues --  -11.25991 -11.23112  -1.48524  -1.38320  -1.08011
 Alpha  occ. eigenvalues --   -1.04421  -0.92063  -0.83550  -0.77409  -0.72726
 Alpha  occ. eigenvalues --   -0.69740  -0.69322  -0.60286  -0.59236  -0.56060
 Alpha  occ. eigenvalues --   -0.52521  -0.52352  -0.48496  -0.47168  -0.42639
 Alpha  occ. eigenvalues --   -0.42559
 Alpha virt. eigenvalues --    0.03824   0.04322   0.06294   0.06480   0.07579
 Alpha virt. eigenvalues --    0.08432   0.09761   0.10460   0.11729   0.12445
 Alpha virt. eigenvalues --    0.12823   0.13959   0.15494   0.16193   0.16707

 Mulliken charges:
               1
     1  C   -0.716230
     2  H    0.204190
     3  C    1.406387
     4  C   -0.647450
     5  O   -0.309451
     6  O   -0.103515
     7  C   -0.040579
     8  C   -0.595446
     9  H    0.178103
    10  H    0.178103
    11  H    0.153046
    12  H    0.153046
    13  H    0.139796
 Sum of Mulliken charges =  -0.00000

 Dipole moment (field-independent basis, Debye):
    X=              0.8061    Y=             -2.0525    Z=              0.0000  Tot=              2.2051
 Quadrupole moment (field-independent basis, Debye-Ang):
   XX=            -29.3656   YY=            -46.6575   ZZ=            -41.0881
   XY=              6.5888   XZ=             -0.0000   YZ=              0.0000

 1\1\GINC-AJ\SP\RCCSD(T)-FC\6-311++G(d,p)\C5H6O2\AAYUSH\22-May-2025\0\\
 # ccsd(t)/6-311++g(d,p) sp\\Title Card Required\\0,1\C,0,-2.947327,-0.
 925172,0.000004\H,0,-3.872224,-1.452749,0.000007\C,0,-1.906776,-0.3314
 93,0.000001\C,0,-0.671361,0.440377,-0.000002\O,0,-0.631467,1.639019,-0
 .000008\O,0,0.395434,-0.358958,0.000002\C,0,1.671157,0.310287,-0.00000
 1\C,0,2.735859,-0.761675,0.000005\H,0,1.726654,0.949759,-0.883202\H,0,
 1.726653,0.949768,0.883192\H,0,2.647034,-1.391459,0.8859\H,0,2.647035,
 -1.391468,-0.885884\H,0,3.723797,-0.298285,0.000002\\Version=ES64L-G16

 2\CCSD(T)=-343.7606943\RMSD=4.164e-09\PG=C01 [X(C5H6O2)]\\@
 Normal termination of Gaussian 16 at Thu May 22 21:33:32 2025.
