 Gaussian 16, Revision A.03,
 Gaussian 16:  ES64L-G16RevA.03 25-Dec-2016

 --------------------------
 # ccsd(t)/6-311++g(d,p) sp
 --------------------------

 -------------------
 Title Card Required
 -------------------
 Symbolic Z-matrix:
 Charge =  0 Multiplicity = 2

                         Standard orientation:
 ---------------------------------------------------------------------
 Center     Atomic      Atomic             Coordinates (Angstroms)
 Number     Number       Type             X           Y           Z
 ---------------------------------------------------------------------
      1          6           0        2.986774    1.301504    0.315397
      2          1           0        3.751855    2.025095    0.475200
      3          6           0        2.128445    0.485418    0.134977
      4          6           0        1.118015   -0.532936   -0.110096
      5          8           0        1.345125   -1.611021   -0.578452
      6          8           0       -0.095533   -0.101128    0.254835
      7          6           0       -1.178084   -1.029237    0.027313
      8          6           0       -2.425660   -0.396999    0.581047
      9          1           0       -1.251224   -1.213660   -1.046383
     10          1           0       -0.936667   -1.971543    0.523282
     11          1           0       -2.354011   -0.204089    1.651167
     12          1           0       -2.623745    0.578046    0.078964
     13          1           0       -3.304528   -1.004514    0.361672
     14          8           0       -2.221355    1.836823   -0.601466
     15          1           0       -1.284523    1.826774   -0.335065
 ---------------------------------------------------------------------

 SCF Done:  E(UHF) =  -417.980838497     A.U. after   33 cycles
 E2 =    -0.1269464571D+01 EUMP2 =    -0.41925030306815D+03
 CCSD(T)= -0.41935156755D+03

 The electronic state is 2-A.
 Alpha  occ. eigenvalues --  -20.63213 -20.62728 -20.57306 -11.42630 -11.30326
 Alpha  occ. eigenvalues --  -11.27652 -11.26883 -11.22989  -1.49416  -1.39681
 Alpha  occ. eigenvalues --   -1.39110  -1.08912  -1.05222  -0.93022  -0.84563
 Alpha  occ. eigenvalues --   -0.78422  -0.73647  -0.72091  -0.70496  -0.69397
 Alpha  occ. eigenvalues --   -0.67165  -0.60779  -0.59048  -0.56065  -0.55900
 Alpha  occ. eigenvalues --   -0.53262  -0.49952  -0.49292  -0.46883  -0.43554
 Alpha  occ. eigenvalues --   -0.43512
 Alpha virt. eigenvalues --    0.03464   0.04549   0.06325   0.06588   0.07076
 Alpha virt. eigenvalues --    0.07634   0.09180   0.10014   0.10910   0.11555
 Alpha virt. eigenvalues --    0.12385   0.13812   0.14769   0.15576   0.16350

  Beta  occ. eigenvalues --  -20.62725 -20.59199 -20.57308 -11.42630 -11.30371
  Beta  occ. eigenvalues --  -11.27650 -11.26884 -11.22416  -1.49410  -1.39321
  Beta  occ. eigenvalues --   -1.24578  -1.08770  -1.04593  -0.92311  -0.83822
  Beta  occ. eigenvalues --   -0.78371  -0.73620  -0.70480  -0.70114  -0.65108
  Beta  occ. eigenvalues --   -0.60747  -0.59128  -0.56019  -0.53240  -0.51753
  Beta  occ. eigenvalues --   -0.50918  -0.49336  -0.47968  -0.43564  -0.43513
  Beta virt. eigenvalues --    0.03442   0.04540   0.05462   0.06354   0.07075
  Beta virt. eigenvalues --    0.07592   0.08466   0.09542   0.10581   0.11294
  Beta virt. eigenvalues --    0.11756   0.12590   0.13926   0.14837   0.15648

 Mulliken charges and spin densities:
               1          2
     1  C   -0.645563   0.000381
     2  H    0.221306  -0.000120
     3  C    1.246609  -0.000391
     4  C   -0.553362  -0.000459
     5  O   -0.292842  -0.000300
     6  O   -0.143014  -0.001377
     7  C   -0.088911  -0.020194
     8  C   -0.687833   0.201895
     9  H    0.214530   0.000310
    10  H    0.172420   0.005404
    11  H    0.163825  -0.012831
    12  H    0.224021  -0.068530
    13  H    0.150478  -0.005902
    14  O   -0.226448   0.930242
    15  H    0.244784  -0.028128
 Sum of Mulliken charges =  -0.00000   1.00000

 Dipole moment (field-independent basis, Debye):
    X=              0.6048    Y=              1.3742    Z=              1.2928  Tot=              1.9813
 Quadrupole moment (field-independent basis, Debye-Ang):
   XX=            -45.3411   YY=            -48.5770   ZZ=            -48.9467
   XY=             14.1569   XZ=              1.0630   YZ=             -0.9191

 P3-0=-419.2772526\MP4SDQ=-419.2999289\CCSD=-419.2987023\CCSD(T)=-419.3
 Normal termination of Gaussian 16 at Mon Apr 21 15:58:31 2025.
