 Gaussian 16, Revision A.03,
 Gaussian 16:  ES64L-G16RevA.03 25-Dec-2016

 --------------------------
 # ccsd(t)/6-311++g(d,p) sp
 --------------------------

 -------------------
 Title Card Required
 -------------------
 Symbolic Z-matrix:
 Charge =  0 Multiplicity = 2

                         Standard orientation:
 ---------------------------------------------------------------------
 Center     Atomic      Atomic             Coordinates (Angstroms)
 Number     Number       Type             X           Y           Z
 ---------------------------------------------------------------------
      1          6           0        3.341131   -0.490870   -0.438304
      2          1           0        4.334692   -0.757696   -0.714157
      3          6           0        2.223489   -0.192249   -0.128011
      4          6           0        0.887557    0.219649    0.262531
      5          8           0        0.628266    1.274929    0.771434
      6          8           0       -0.015587   -0.728250   -0.015770
      7          6           0       -1.353206   -0.453219    0.359508
      8          6           0       -2.231298   -1.587320   -0.085104
      9          1           0       -1.409727   -0.196200    1.418964
     10          1           0       -1.707729    0.634573   -0.233987
     11          1           0       -2.150930   -1.734764   -1.162384
     12          1           0       -1.931709   -2.511103    0.418474
     13          1           0       -3.269682   -1.371168    0.166503
     14          8           0       -1.853716    1.795651   -0.696332
     15          1           0       -1.142652    2.221777   -0.191800
 ---------------------------------------------------------------------

 SCF Done:  E(UHF) =  -417.964105758     A.U. after   30 cycles
 E2 =    -0.1288137926D+01 EUMP2 =    -0.41925224368338D+03
 CCSD(T)= -0.41935472615D+03

 The electronic state is 2-A.
 Alpha  occ. eigenvalues --  -20.63442 -20.60001 -20.57988 -11.43421 -11.32518
 Alpha  occ. eigenvalues --  -11.27826 -11.26978 -11.23809  -1.50489  -1.40303
 Alpha  occ. eigenvalues --   -1.36663  -1.09450  -1.05708  -0.93545  -0.85012
 Alpha  occ. eigenvalues --   -0.79402  -0.73935  -0.73175  -0.71391  -0.67535
 Alpha  occ. eigenvalues --   -0.63021  -0.61074  -0.59891  -0.57233  -0.54069
 Alpha  occ. eigenvalues --   -0.53085  -0.51738  -0.50127  -0.43981  -0.43691
 Alpha  occ. eigenvalues --   -0.41783
 Alpha virt. eigenvalues --    0.03522   0.04382   0.06135   0.06962   0.07339
 Alpha virt. eigenvalues --    0.07780   0.09232   0.10037   0.11009   0.11546
 Alpha virt. eigenvalues --    0.11961   0.13756   0.14954   0.15292   0.16209

  Beta  occ. eigenvalues --  -20.63365 -20.57949 -20.56793 -11.43428 -11.30916
  Beta  occ. eigenvalues --  -11.27829 -11.26980 -11.23894  -1.50175  -1.40039
  Beta  occ. eigenvalues --   -1.25559  -1.08808  -1.04347  -0.93391  -0.82763
  Beta  occ. eigenvalues --   -0.78438  -0.73876  -0.71004  -0.68900  -0.64371
  Beta  occ. eigenvalues --   -0.60756  -0.58773  -0.57011  -0.53602  -0.51739
  Beta  occ. eigenvalues --   -0.50165  -0.49100  -0.46726  -0.43683  -0.43589
  Beta virt. eigenvalues --    0.03507   0.04332   0.04969   0.06176   0.07127
  Beta virt. eigenvalues --    0.07645   0.08028   0.09852   0.10447   0.11049
  Beta virt. eigenvalues --    0.11631   0.12304   0.13833   0.15035   0.15391

 Mulliken charges and spin densities:
               1          2
     1  C   -0.811350  -0.002639
     2  H    0.207003   0.000072
     3  C    1.558621   0.007964
     4  C   -0.637863   0.008620
     5  O   -0.330990   0.007975
     6  O   -0.068149  -0.011176
     7  C   -0.219213   0.557189
     8  C   -0.601430  -0.054392
     9  H    0.219339  -0.021365
    10  H    0.286888  -0.212133
    11  H    0.175626   0.006148
    12  H    0.158810   0.030304
    13  H    0.155515   0.002082
    14  O   -0.367912   0.699480
    15  H    0.275107  -0.018129
 Sum of Mulliken charges =  -0.00000   1.00000

 Dipole moment (field-independent basis, Debye):
    X=              1.5608    Y=             -2.6080    Z=              0.4839  Tot=              3.0776
 Quadrupole moment (field-independent basis, Debye-Ang):
   XX=            -37.8449   YY=            -50.4004   ZZ=            -49.3106
   XY=              1.5316   XZ=             -6.0095   YZ=             -0.0156

 Normal termination of Gaussian 16 at Thu Apr 17 18:49:37 2025.
