 Gaussian 16, Revision A.03,
 Gaussian 16:  ES64L-G16RevA.03 25-Dec-2016

 --------------------------
 # ccsd(t)/6-311++g(d,p) sp
 --------------------------

 -------------------
 Title Card Required
 -------------------
 Symbolic Z-matrix:
 Charge =  0 Multiplicity = 2

                         Standard orientation:
 ---------------------------------------------------------------------
 Center     Atomic      Atomic             Coordinates (Angstroms)
 Number     Number       Type             X           Y           Z
 ---------------------------------------------------------------------
      1          6           0        3.341533   -0.489593   -0.438647
      2          1           0        4.335271   -0.755696   -0.714729
      3          6           0        2.223689   -0.191796   -0.128143
      4          6           0        0.888485    0.220203    0.262956
      5          8           0        0.627944    1.274378    0.771460
      6          8           0       -0.016632   -0.728747   -0.015339
      7          6           0       -1.349802   -0.460260    0.362161
      8          6           0       -2.230194   -1.588452   -0.084139
      9          1           0       -1.411457   -0.181904    1.415347
     10          1           0       -1.728458    0.741006   -0.280220
     11          1           0       -2.149676   -1.738406   -1.161192
     12          1           0       -1.928446   -2.512296    0.420645
     13          1           0       -3.268575   -1.374255    0.168490
     14          8           0       -1.854160    1.786717   -0.693433
     15          1           0       -1.148140    2.222157   -0.194968
 ---------------------------------------------------------------------

 SCF Done:  E(UHF) =  -417.969000320     A.U. after   31 cycles
 E2 =    -0.1297269632D+01 EUMP2 =    -0.41926626995262D+03
 CCSD(T)= -0.41936284939D+03

 The electronic state is 2-A.
 Alpha  occ. eigenvalues --  -20.64671 -20.58488 -20.55758 -11.43989 -11.34167
 Alpha  occ. eigenvalues --  -11.28232 -11.27319 -11.24865  -1.51482  -1.41092
 Alpha  occ. eigenvalues --   -1.33007  -1.10315  -1.06620  -0.94399  -0.85839
 Alpha  occ. eigenvalues --   -0.80221  -0.74305  -0.73636  -0.71937  -0.66805
 Alpha  occ. eigenvalues --   -0.62540  -0.60744  -0.58794  -0.58295  -0.55163
 Alpha  occ. eigenvalues --   -0.52704  -0.50620  -0.49144  -0.44224  -0.44055
 Alpha  occ. eigenvalues --   -0.40663
 Alpha virt. eigenvalues --    0.03365   0.04118   0.05914   0.06838   0.07048
 Alpha virt. eigenvalues --    0.07812   0.09406   0.09952   0.10858   0.11413
 Alpha virt. eigenvalues --    0.11878   0.13519   0.14715   0.15030   0.16022

  Beta  occ. eigenvalues --  -20.64508 -20.58449 -20.53828 -11.43986 -11.31913
  Beta  occ. eigenvalues --  -11.28213 -11.27343 -11.24992  -1.50923  -1.40700
  Beta  occ. eigenvalues --   -1.26836  -1.09212  -1.04816  -0.94115  -0.82919
  Beta  occ. eigenvalues --   -0.79017  -0.74254  -0.71483  -0.68679  -0.63679
  Beta  occ. eigenvalues --   -0.61565  -0.58819  -0.57923  -0.54609  -0.52400
  Beta  occ. eigenvalues --   -0.50833  -0.49314  -0.46907  -0.44037  -0.43983
  Beta virt. eigenvalues --    0.03355   0.04102   0.04761   0.06020   0.06956
  Beta virt. eigenvalues --    0.07790   0.07913   0.09741   0.10484   0.10892
  Beta virt. eigenvalues --    0.11456   0.12254   0.13659   0.14814   0.15298

 Mulliken charges and spin densities:
               1          2
     1  C   -0.803068   0.008845
     2  H    0.208848  -0.000768
     3  C    1.550490   0.000089
     4  C   -0.644891   0.015093
     5  O   -0.317401   0.008796
     6  O   -0.054112  -0.010502
     7  C   -0.197206   0.813599
     8  C   -0.613972  -0.084462
     9  H    0.237066  -0.025959
    10  H    0.362668  -0.161175
    11  H    0.185035   0.010757
    12  H    0.166977   0.048078
    13  H    0.163274   0.003614
    14  O   -0.511524   0.382009
    15  H    0.267816  -0.008013
 Sum of Mulliken charges =  -0.00000   1.00000

 Dipole moment (field-independent basis, Debye):
    X=              1.9269    Y=             -3.7926    Z=              0.9644  Tot=              4.3619
 Quadrupole moment (field-independent basis, Debye-Ang):
   XX=            -37.9075   YY=            -52.1888   ZZ=            -49.4154
   XY=              3.9775   XZ=             -6.9146   YZ=              0.9487

 587\PMP3-0=-419.2853529\MP4SDQ=-419.3093243\CCSD=-419.3072769\CCSD(T)=
 Normal termination of Gaussian 16 at Tue Apr 15 03:54:23 2025.
