 Gaussian 16, Revision A.03,
 Gaussian 16:  ES64L-G16RevA.03 25-Dec-2016

 --------------------------
 # ccsd(t)/6-311++g(d,p) sp
 --------------------------

 -------------------
 Title Card Required
 -------------------
 Symbolic Z-matrix:
 Charge =  0 Multiplicity = 2

                         Standard orientation:
 ---------------------------------------------------------------------
 Center     Atomic      Atomic             Coordinates (Angstroms)
 Number     Number       Type             X           Y           Z
 ---------------------------------------------------------------------
      1          6           0        2.982208    1.311353    0.303631
      2          1           0        3.744676    2.039093    0.457290
      3          6           0        2.126363    0.491247    0.129959
      4          6           0        1.119917   -0.532268   -0.106892
      5          8           0        1.349088   -1.612809   -0.568191
      6          8           0       -0.095180   -0.102923    0.257654
      7          6           0       -1.174541   -1.032043    0.036026
      8          6           0       -2.417739   -0.392531    0.580934
      9          1           0       -1.249561   -1.228572   -1.035355
     10          1           0       -0.937609   -1.972225    0.542697
     11          1           0       -2.358571   -0.155050    1.641991
     12          1           0       -2.535268    0.703911    0.003353
     13          1           0       -3.322266   -0.944627    0.330574
     14          8           0       -2.236480    1.797407   -0.596135
     15          1           0       -1.298078    1.829518   -0.349127
 ---------------------------------------------------------------------

 SCF Done:  E(UHF) =  -417.962764501     A.U. after   31 cycles
 E2 =    -0.1283996480D+01 EUMP2 =    -0.41924676098112D+03
 CCSD(T)= -0.41934849219D+03

 The electronic state is 2-A.
 Alpha  occ. eigenvalues --  -20.62959 -20.61339 -20.57468 -11.42795 -11.30896
 Alpha  occ. eigenvalues --  -11.27728 -11.26941 -11.25392  -1.49663  -1.39602
 Alpha  occ. eigenvalues --   -1.38022  -1.09238  -1.05818  -0.93375  -0.84890
 Alpha  occ. eigenvalues --   -0.78703  -0.73734  -0.72582  -0.70773  -0.69539
 Alpha  occ. eigenvalues --   -0.65236  -0.61480  -0.59333  -0.56980  -0.54688
 Alpha  occ. eigenvalues --   -0.53821  -0.49730  -0.49176  -0.44136  -0.43599
 Alpha  occ. eigenvalues --   -0.43449
 Alpha virt. eigenvalues --    0.03485   0.04379   0.06177   0.06711   0.06960
 Alpha virt. eigenvalues --    0.07555   0.09131   0.10004   0.11096   0.11444
 Alpha virt. eigenvalues --    0.12363   0.13729   0.14677   0.15416   0.16364

  Beta  occ. eigenvalues --  -20.62946 -20.57885 -20.57469 -11.42797 -11.31011
  Beta  occ. eigenvalues --  -11.27727 -11.26941 -11.24045  -1.49643  -1.39536
  Beta  occ. eigenvalues --   -1.25989  -1.08866  -1.04486  -0.91882  -0.83447
  Beta  occ. eigenvalues --   -0.78606  -0.73699  -0.70743  -0.70203  -0.64981
  Beta  occ. eigenvalues --   -0.61175  -0.58860  -0.56886  -0.53929  -0.50364
  Beta  occ. eigenvalues --   -0.50000  -0.49305  -0.47985  -0.43631  -0.43582
  Beta virt. eigenvalues --    0.03462   0.04247   0.04998   0.06210   0.06934
  Beta virt. eigenvalues --    0.07488   0.07974   0.09319   0.10352   0.11439
  Beta virt. eigenvalues --    0.11656   0.12452   0.13815   0.14715   0.15578

 Mulliken charges and spin densities:
               1          2
     1  C   -0.643709   0.000450
     2  H    0.222010  -0.000117
     3  C    1.244983  -0.001302
     4  C   -0.555313  -0.001158
     5  O   -0.293453  -0.000422
     6  O   -0.141570  -0.003430
     7  C   -0.065994  -0.047372
     8  C   -0.695935   0.529279
     9  H    0.218638   0.003579
    10  H    0.174503   0.017962
    11  H    0.177813  -0.029215
    12  H    0.249586  -0.180093
    13  H    0.165787  -0.023969
    14  O   -0.300570   0.755543
    15  H    0.243225  -0.019736
 Sum of Mulliken charges =  -0.00000   1.00000

 Dipole moment (field-independent basis, Debye):
    X=              0.6186    Y=              0.7674    Z=              1.5935  Tot=              1.8737
 Quadrupole moment (field-independent basis, Debye-Ang):
   XX=            -45.0031   YY=            -49.5575   ZZ=            -48.9224
   XY=             15.6904   XZ=              0.1991   YZ=             -0.4802

 0=-419.2719333\MP4SDQ=-419.2946266\CCSD=-419.2939855\CCSD(T)=-419.3484
 Normal termination of Gaussian 16 at Mon Apr 21 01:01:06 2025.
