 Gaussian 16, Revision A.03,
 Gaussian 16:  ES64L-G16RevA.03 25-Dec-2016

 --------------------------
 # ccsd(t)/6-311++g(d,p) sp
 --------------------------

 -------------------
 Title Card Required
 -------------------
 Symbolic Z-matrix:
 Charge =  0 Multiplicity = 2

                         Standard orientation:
 ---------------------------------------------------------------------
 Center     Atomic      Atomic             Coordinates (Angstroms)
 Number     Number       Type             X           Y           Z
 ---------------------------------------------------------------------
      1          6           0        2.985684    1.304085    0.312012
      2          1           0        3.750139    2.028730    0.470055
      3          6           0        2.127953    0.486955    0.133538
      4          6           0        1.118453   -0.532774   -0.109132
      5          8           0        1.346077   -1.611629   -0.575390
      6          8           0       -0.095363   -0.101429    0.255551
      7          6           0       -1.177231   -1.030032    0.029899
      8          6           0       -2.423338   -0.393074    0.579820
      9          1           0       -1.250569   -1.217624   -1.043233
     10          1           0       -0.937002   -1.971305    0.528869
     11          1           0       -2.355675   -0.192574    1.648695
     12          1           0       -2.601988    0.593814    0.068646
     13          1           0       -3.309318   -0.986814    0.352890
     14          8           0       -2.225373    1.826385   -0.600604
     15          1           0       -1.287432    1.828206   -0.339205
 ---------------------------------------------------------------------

 SCF Done:  E(UHF) =  -417.978257917     A.U. after   33 cycles
 E2 =    -0.1271066989D+01 EUMP2 =    -0.41924932490660D+03
 CCSD(T)= -0.41935082399D+03

 The electronic state is 2-A.
 Alpha  occ. eigenvalues --  -20.63124 -20.62732 -20.57309 -11.42633 -11.30336
 Alpha  occ. eigenvalues --  -11.27656 -11.26886 -11.23140  -1.49429  -1.39700
 Alpha  occ. eigenvalues --   -1.39116  -1.08931  -1.05256  -0.93032  -0.84585
 Alpha  occ. eigenvalues --   -0.78435  -0.73654  -0.72267  -0.70514  -0.69447
 Alpha  occ. eigenvalues --   -0.67092  -0.60822  -0.59020  -0.56048  -0.55942
 Alpha  occ. eigenvalues --   -0.53317  -0.49782  -0.49246  -0.46556  -0.43556
 Alpha  occ. eigenvalues --   -0.43515
 Alpha virt. eigenvalues --    0.03464   0.04547   0.06317   0.06589   0.07071
 Alpha virt. eigenvalues --    0.07630   0.09171   0.10013   0.10938   0.11543
 Alpha virt. eigenvalues --    0.12388   0.13809   0.14765   0.15551   0.16353

  Beta  occ. eigenvalues --  -20.62729 -20.59145 -20.57311 -11.42633 -11.30387
  Beta  occ. eigenvalues --  -11.27655 -11.26887 -11.22490  -1.49422  -1.39331
  Beta  occ. eigenvalues --   -1.24810  -1.08772  -1.04552  -0.92237  -0.83760
  Beta  occ. eigenvalues --   -0.78381  -0.73624  -0.70487  -0.70110  -0.65201
  Beta  occ. eigenvalues --   -0.60761  -0.59043  -0.56090  -0.53287  -0.51540
  Beta  occ. eigenvalues --   -0.50872  -0.49332  -0.47951  -0.43568  -0.43517
  Beta virt. eigenvalues --    0.03440   0.04537   0.05404   0.06348   0.07071
  Beta virt. eigenvalues --    0.07585   0.08428   0.09508   0.10546   0.11338
  Beta virt. eigenvalues --    0.11748   0.12578   0.13918   0.14820   0.15632

 Mulliken charges and spin densities:
               1          2
     1  C   -0.645499   0.000433
     2  H    0.221343  -0.000120
     3  C    1.246044  -0.000574
     4  C   -0.553595  -0.000496
     5  O   -0.293022  -0.000326
     6  O   -0.143383  -0.001633
     7  C   -0.084834  -0.022571
     8  C   -0.691817   0.231815
     9  H    0.214401   0.000600
    10  H    0.171937   0.006393
    11  H    0.164551  -0.014326
    12  H    0.228059  -0.079657
    13  H    0.151993  -0.007665
    14  O   -0.231129   0.915397
    15  H    0.244951  -0.027270
 Sum of Mulliken charges =  -0.00000   1.00000

 Dipole moment (field-independent basis, Debye):
    X=              0.6066    Y=              1.3644    Z=              1.2973  Tot=              1.9780
 Quadrupole moment (field-independent basis, Debye-Ang):
   XX=            -45.3513   YY=            -48.5865   ZZ=            -48.9376
   XY=             14.2108   XZ=              1.0139   YZ=             -0.9035

 PMP3-0=-419.276097\MP4SDQ=-419.2988173\CCSD=-419.2977409\CCSD(T)=-419.
 Normal termination of Gaussian 16 at Mon Apr 21 08:58:47 2025.
