 Gaussian 16, Revision A.03,
 Gaussian 16:  ES64L-G16RevA.03 25-Dec-2016

 --------------------------
 # ccsd(t)/6-311++g(d,p) sp
 --------------------------

 -------------------
 Title Card Required
 -------------------
 Symbolic Z-matrix:
 Charge =  0 Multiplicity = 2

                         Standard orientation:
 ---------------------------------------------------------------------
 Center     Atomic      Atomic             Coordinates (Angstroms)
 Number     Number       Type             X           Y           Z
 ---------------------------------------------------------------------
      1          6           0        3.341096   -0.487765   -0.440782
      2          1           0        4.334350   -0.753824   -0.718013
      3          6           0        2.223749   -0.189941   -0.128735
      4          6           0        0.884547    0.216352    0.262491
      5          8           0        0.626925    1.272202    0.777889
      6          8           0       -0.009406   -0.729587   -0.020204
      7          6           0       -1.358521   -0.458606    0.361256
      8          6           0       -2.230858   -1.595059   -0.093677
      9          1           0       -1.402351   -0.254145    1.432918
     10          1           0       -1.696793    0.474127   -0.167937
     11          1           0       -2.151630   -1.724607   -1.173525
     12          1           0       -1.942006   -2.527134    0.395848
     13          1           0       -3.269345   -1.373784    0.156229
     14          8           0       -1.855207    1.834925   -0.696638
     15          1           0       -1.130795    2.229167   -0.177203
 ---------------------------------------------------------------------

 SCF Done:  E(UHF) =  -417.983597013     A.U. after   36 cycles
 E2 =    -0.1269536947D+01 EUMP2 =    -0.41925313396014D+03
 CCSD(T)= -0.41935551049D+03

 The electronic state is 2-A.
 Alpha  occ. eigenvalues --  -20.62836 -20.62378 -20.57488 -11.42945 -11.29770
 Alpha  occ. eigenvalues --  -11.27430 -11.26637 -11.22838  -1.49609  -1.39459
 Alpha  occ. eigenvalues --   -1.39132  -1.08798  -1.04960  -0.92770  -0.84546
 Alpha  occ. eigenvalues --   -0.78680  -0.73597  -0.72776  -0.70784  -0.68394
 Alpha  occ. eigenvalues --   -0.65237  -0.60118  -0.59657  -0.56220  -0.55714
 Alpha  occ. eigenvalues --   -0.52948  -0.51228  -0.49658  -0.45192  -0.43345
 Alpha  occ. eigenvalues --   -0.43247
 Alpha virt. eigenvalues --    0.03652   0.04568   0.06272   0.06894   0.07641
 Alpha virt. eigenvalues --    0.07777   0.09123   0.10174   0.11112   0.11647
 Alpha virt. eigenvalues --    0.12096   0.13978   0.15027   0.15519   0.16395

  Beta  occ. eigenvalues --  -20.62369 -20.58863 -20.57465 -11.42955 -11.29141
  Beta  occ. eigenvalues --  -11.27439 -11.26629 -11.22866  -1.49517  -1.39363
  Beta  occ. eigenvalues --   -1.24336  -1.08527  -1.04376  -0.92720  -0.83246
  Beta  occ. eigenvalues --   -0.78060  -0.73490  -0.70574  -0.69761  -0.64914
  Beta  occ. eigenvalues --   -0.60128  -0.59279  -0.56114  -0.52770  -0.51772
  Beta  occ. eigenvalues --   -0.50778  -0.49628  -0.47111  -0.43341  -0.43310
  Beta virt. eigenvalues --    0.03645   0.04551   0.05788   0.06345   0.07383
  Beta virt. eigenvalues --    0.07733   0.08267   0.10032   0.10740   0.11154
  Beta virt. eigenvalues --    0.11832   0.12411   0.14027   0.15070   0.15534

 Mulliken charges and spin densities:
               1          2
     1  C   -0.811227  -0.005575
     2  H    0.205190   0.000378
     3  C    1.542403   0.002918
     4  C   -0.637819  -0.003883
     5  O   -0.344260   0.004880
     6  O   -0.089077  -0.005283
     7  C   -0.229917   0.202151
     8  C   -0.582574  -0.012721
     9  H    0.198492  -0.009953
    10  H    0.269128  -0.078726
    11  H    0.166154   0.001493
    12  H    0.151270   0.009675
    13  H    0.148330   0.000634
    14  O   -0.264593   0.921664
    15  H    0.278499  -0.027653
 Sum of Mulliken charges =  -0.00000   1.00000

 Dipole moment (field-independent basis, Debye):
    X=              1.1763    Y=             -1.6335    Z=              0.0611  Tot=              2.0139
 Quadrupole moment (field-independent basis, Debye-Ang):
   XX=            -37.7908   YY=            -49.1722   ZZ=            -49.2017
   XY=             -0.4863   XZ=             -5.2365   YZ=             -0.8515

 MP3-0=-419.2802596\MP4SDQ=-419.3028984\CCSD=-419.3021951\CCSD(T)=-419.
 Normal termination of Gaussian 16 at Tue Apr 15 04:34:59 2025.
