 Gaussian 16, Revision A.03,
 Gaussian 16:  ES64L-G16RevA.03 25-Dec-2016

 --------------------------
 # ccsd(t)/6-311++g(d,p) sp
 --------------------------

 -------------------
 Title Card Required
 -------------------
 Symbolic Z-matrix:
 Charge =  0 Multiplicity = 2

                         Standard orientation:
 ---------------------------------------------------------------------
 Center     Atomic      Atomic             Coordinates (Angstroms)
 Number     Number       Type             X           Y           Z
 ---------------------------------------------------------------------
      1          6           0        3.341156   -0.486817   -0.441373
      2          1           0        4.334400   -0.752539   -0.718939
      3          6           0        2.223822   -0.189339   -0.128917
      4          6           0        0.884225    0.215877    0.262639
      5          8           0        0.626441    1.271320    0.779239
      6          8           0       -0.008621   -0.730170   -0.021074
      7          6           0       -1.358707   -0.461724    0.362229
      8          6           0       -2.230534   -1.597424   -0.095479
      9          1           0       -1.401186   -0.263125    1.435037
     10          1           0       -1.698533    0.467193   -0.162873
     11          1           0       -2.151423   -1.723688   -1.175741
     12          1           0       -1.943070   -2.531262    0.391299
     13          1           0       -3.268987   -1.375804    0.154519
     14          8           0       -1.855539    1.841949   -0.696030
     15          1           0       -1.129227    2.231001   -0.174960
 ---------------------------------------------------------------------

 SCF Done:  E(UHF) =  -417.984685501     A.U. after   30 cycles
 E2 =    -0.1268825989D+01 EUMP2 =    -0.41925351148931D+03
 CCSD(T)= -0.41935575075D+03

 The electronic state is 2-A.
 Alpha  occ. eigenvalues --  -20.62872 -20.62371 -20.57478 -11.42942 -11.29732
 Alpha  occ. eigenvalues --  -11.27420 -11.26629 -11.22833  -1.49592  -1.39440
 Alpha  occ. eigenvalues --   -1.39119  -1.08789  -1.04962  -0.92760  -0.84527
 Alpha  occ. eigenvalues --   -0.78654  -0.73585  -0.72718  -0.70774  -0.68389
 Alpha  occ. eigenvalues --   -0.65263  -0.60112  -0.59686  -0.56207  -0.55733
 Alpha  occ. eigenvalues --   -0.52937  -0.51240  -0.49652  -0.45346  -0.43342
 Alpha  occ. eigenvalues --   -0.43251
 Alpha virt. eigenvalues --    0.03654   0.04567   0.06273   0.06892   0.07645
 Alpha virt. eigenvalues --    0.07779   0.09119   0.10178   0.11119   0.11649
 Alpha virt. eigenvalues --    0.12098   0.13985   0.15009   0.15519   0.16399

  Beta  occ. eigenvalues --  -20.62363 -20.58885 -20.57455 -11.42951 -11.29136
  Beta  occ. eigenvalues --  -11.27430 -11.26622 -11.22860  -1.49505  -1.39348
  Beta  occ. eigenvalues --   -1.24238  -1.08527  -1.04408  -0.92712  -0.83283
  Beta  occ. eigenvalues --   -0.78057  -0.73481  -0.70571  -0.69799  -0.64868
  Beta  occ. eigenvalues --   -0.60142  -0.59315  -0.56103  -0.52767  -0.51789
  Beta  occ. eigenvalues --   -0.50779  -0.49623  -0.47167  -0.43337  -0.43300
  Beta virt. eigenvalues --    0.03647   0.04553   0.05809   0.06348   0.07383
  Beta virt. eigenvalues --    0.07736   0.08271   0.10039   0.10760   0.11156
  Beta virt. eigenvalues --    0.11833   0.12406   0.14034   0.15053   0.15533

 Mulliken charges and spin densities:
               1          2
     1  C   -0.809345  -0.005459
     2  H    0.205205   0.000372
     3  C    1.538838   0.002575
     4  C   -0.638156  -0.004250
     5  O   -0.344417   0.004714
     6  O   -0.089808  -0.004998
     7  C   -0.227309   0.191753
     8  C   -0.581453  -0.011594
     9  H    0.197897  -0.009472
    10  H    0.267250  -0.074182
    11  H    0.165997   0.001364
    12  H    0.151160   0.009108
    13  H    0.148302   0.000595
    14  O   -0.262689   0.927411
    15  H    0.278528  -0.027936
 Sum of Mulliken charges =  -0.00000   1.00000

 Dipole moment (field-independent basis, Debye):
    X=              1.1681    Y=             -1.6318    Z=              0.0575  Tot=              2.0076
 Quadrupole moment (field-independent basis, Debye-Ang):
   XX=            -37.7982   YY=            -49.1697   ZZ=            -49.2016
   XY=             -0.4768   XZ=             -5.2326   YZ=             -0.8651

 5\PMP3-0=-419.2807189\MP4SDQ=-419.3033316\CCSD=-419.3025472\CCSD(T)=-4
 Normal termination of Gaussian 16 at Thu Apr 17 14:32:54 2025.
