 Gaussian 16, Revision A.03,
 Gaussian 16:  ES64L-G16RevA.03 25-Dec-2016

 --------------------------
 # ccsd(t)/6-311++g(d,p) sp
 --------------------------

 -------------------
 Title Card Required
 -------------------
 Symbolic Z-matrix:
 Charge =  0 Multiplicity = 2

                         Standard orientation:
 ---------------------------------------------------------------------
 Center     Atomic      Atomic             Coordinates (Angstroms)
 Number     Number       Type             X           Y           Z
 ---------------------------------------------------------------------
      1          6           0        2.979653    1.315750    0.301264
      2          1           0        3.740737    2.045241    0.453741
      3          6           0        2.125294    0.493839    0.128866
      4          6           0        1.121060   -0.531825   -0.106508
      5          8           0        1.351632   -1.612308   -0.567149
      6          8           0       -0.094896   -0.104852    0.258953
      7          6           0       -1.172716   -1.034086    0.037820
      8          6           0       -2.414781   -0.406680    0.587517
      9          1           0       -1.248337   -1.234440   -1.032969
     10          1           0       -0.935950   -1.975571    0.546802
     11          1           0       -2.358804   -0.136521    1.639726
     12          1           0       -2.505538    0.859253   -0.082663
     13          1           0       -3.328350   -0.932124    0.320539
     14          8           0       -2.242740    1.782109   -0.589978
     15          1           0       -1.306790    1.832579   -0.353548
 ---------------------------------------------------------------------

 SCF Done:  E(UHF) =  -417.969482441     A.U. after   27 cycles
 E2 =    -0.1293930092D+01 EUMP2 =    -0.41926341253308D+03
 CCSD(T)= -0.41935845098D+03

 The electronic state is 2-A.
 Alpha  occ. eigenvalues --  -20.63501 -20.57837 -20.55726 -11.43167 -11.32219
 Alpha  occ. eigenvalues --  -11.28118 -11.27860 -11.27041  -1.50178  -1.40032
 Alpha  occ. eigenvalues --   -1.33707  -1.10191  -1.06867  -0.94366  -0.85789
 Alpha  occ. eigenvalues --   -0.79313  -0.73894  -0.72514  -0.71274  -0.69196
 Alpha  occ. eigenvalues --   -0.62974  -0.61155  -0.60178  -0.57708  -0.55775
 Alpha  occ. eigenvalues --   -0.50128  -0.49859  -0.49269  -0.43798  -0.43716
 Alpha  occ. eigenvalues --   -0.41815
 Alpha virt. eigenvalues --    0.03492   0.03976   0.05834   0.06493   0.07076
 Alpha virt. eigenvalues --    0.07406   0.09214   0.09984   0.11252   0.11289
 Alpha virt. eigenvalues --    0.12276   0.13516   0.14454   0.15260   0.16274

  Beta  occ. eigenvalues --  -20.63470 -20.57834 -20.54094 -11.43174 -11.32420
  Beta  occ. eigenvalues --  -11.27860 -11.27038 -11.25838  -1.50129  -1.39978
  Beta  occ. eigenvalues --   -1.28532  -1.09129  -1.04806  -0.91765  -0.83420
  Beta  occ. eigenvalues --   -0.79105  -0.73852  -0.71352  -0.70564  -0.64738
  Beta  occ. eigenvalues --   -0.62133  -0.59719  -0.57926  -0.55184  -0.52583
  Beta  occ. eigenvalues --   -0.49960  -0.49306  -0.47489  -0.43749  -0.43707
  Beta virt. eigenvalues --    0.03511   0.03780   0.05158   0.05887   0.06576
  Beta virt. eigenvalues --    0.07371   0.07665   0.09282   0.10238   0.11268
  Beta virt. eigenvalues --    0.11902   0.12323   0.13611   0.14640   0.15546

 Mulliken charges and spin densities:
               1          2
     1  C   -0.639541  -0.000744
     2  H    0.223246  -0.000017
     3  C    1.245047   0.000192
     4  C   -0.554273  -0.001698
     5  O   -0.294175   0.000085
     6  O   -0.131343  -0.000790
     7  C   -0.070624  -0.092030
     8  C   -0.681021   0.967815
     9  H    0.229875   0.009200
    10  H    0.186549   0.041501
    11  H    0.199857  -0.051110
    12  H    0.361413  -0.124281
    13  H    0.183620  -0.049853
    14  O   -0.491445   0.307714
    15  H    0.232816  -0.005984
 Sum of Mulliken charges =  -0.00000   1.00000

 Dipole moment (field-independent basis, Debye):
    X=              0.5814    Y=             -0.6525    Z=              2.3085  Tot=              2.4684
 Quadrupole moment (field-independent basis, Debye-Ang):
   XX=            -43.8136   YY=            -52.1224   ZZ=            -48.9792
   XY=             18.8710   XZ=             -1.5073   YZ=              0.6261

 14\PMP3-0=-419.2824344\MP4SDQ=-419.3064825\CCSD=-419.3039661\CCSD(T)=-
 Normal termination of Gaussian 16 at Mon Apr 21 01:50:08 2025.
