 Gaussian 16, Revision A.03,
 Gaussian 16:  ES64L-G16RevA.03 25-Dec-2016

 --------------------------
 # ccsd(t)/6-311++g(d,p) sp
 --------------------------

 -------------------
 Title Card Required
 -------------------
 Symbolic Z-matrix:
 Charge =  0 Multiplicity = 2

                         Standard orientation:
 ---------------------------------------------------------------------
 Center     Atomic      Atomic             Coordinates (Angstroms)
 Number     Number       Type             X           Y           Z
 ---------------------------------------------------------------------
      1          6           0        2.980693    1.314033    0.301922
      2          1           0        3.742350    2.042840    0.454720
      3          6           0        2.125718    0.492829    0.129186
      4          6           0        1.120580   -0.532005   -0.106564
      5          8           0        1.350567   -1.612617   -0.567228
      6          8           0       -0.095040   -0.103992    0.258431
      7          6           0       -1.173446   -1.033219    0.037304
      8          6           0       -2.415971   -0.399747    0.584387
      9          1           0       -1.248884   -1.232226   -1.033657
     10          1           0       -0.936769   -1.974060    0.545653
     11          1           0       -2.358722   -0.143967    1.640705
     12          1           0       -2.515741    0.792106   -0.045624
     13          1           0       -3.325910   -0.936694    0.324633
     14          8           0       -2.240343    1.787871   -0.592722
     15          1           0       -1.303240    1.830566   -0.351693
 ---------------------------------------------------------------------

 SCF Done:  E(UHF) =  -417.961099017     A.U. after   21 cycles
 E2 =    -0.1293356229D+01 EUMP2 =    -0.41925445524555D+03
 CCSD(T)= -0.41935215312D+03

 The electronic state is 2-A.
 Alpha  occ. eigenvalues --  -20.63342 -20.57838 -20.57729 -11.43060 -11.31847
 Alpha  occ. eigenvalues --  -11.27822 -11.27616 -11.27012  -1.50025  -1.39895
 Alpha  occ. eigenvalues --   -1.34903  -1.09885  -1.06626  -0.94112  -0.85558
 Alpha  occ. eigenvalues --   -0.79130  -0.73846  -0.72408  -0.71120  -0.69176
 Alpha  occ. eigenvalues --   -0.62613  -0.61953  -0.60145  -0.57781  -0.55398
 Alpha  occ. eigenvalues --   -0.51024  -0.50014  -0.49519  -0.43798  -0.43681
 Alpha  occ. eigenvalues --   -0.42620
 Alpha virt. eigenvalues --    0.03503   0.04078   0.05940   0.06603   0.07026
 Alpha virt. eigenvalues --    0.07450   0.09176   0.09991   0.11235   0.11317
 Alpha virt. eigenvalues --    0.12305   0.13583   0.14523   0.15299   0.16313

  Beta  occ. eigenvalues --  -20.63318 -20.57727 -20.55370 -11.43065 -11.32019
  Beta  occ. eigenvalues --  -11.27821 -11.27011 -11.25633  -1.49989  -1.39851
  Beta  occ. eigenvalues --   -1.26865  -1.09062  -1.04769  -0.91867  -0.83531
  Beta  occ. eigenvalues --   -0.78966  -0.73809  -0.71187  -0.70465  -0.64109
  Beta  occ. eigenvalues --   -0.61877  -0.59313  -0.57741  -0.54833  -0.50797
  Beta  occ. eigenvalues --   -0.49725  -0.48964  -0.48051  -0.43715  -0.43670
  Beta virt. eigenvalues --    0.03515   0.03782   0.04877   0.05984   0.06678
  Beta virt. eigenvalues --    0.07396   0.07691   0.09281   0.10261   0.11323
  Beta virt. eigenvalues --    0.11782   0.12359   0.13671   0.14636   0.15540

 Mulliken charges and spin densities:
               1          2
     1  C   -0.640792  -0.000128
     2  H    0.222845  -0.000073
     3  C    1.245423  -0.000698
     4  C   -0.555186  -0.001672
     5  O   -0.294002  -0.000196
     6  O   -0.134560  -0.002706
     7  C   -0.066010  -0.074895
     8  C   -0.682872   0.820971
     9  H    0.226539   0.007022
    10  H    0.182295   0.032757
    11  H    0.193495  -0.042948
    12  H    0.310271  -0.187514
    13  H    0.179288  -0.039939
    14  O   -0.422681   0.501368
    15  H    0.235946  -0.011351
 Sum of Mulliken charges =  -0.00000   1.00000

 Dipole moment (field-independent basis, Debye):
    X=              0.6033    Y=             -0.2534    Z=              2.1059  Tot=              2.2052
 Quadrupole moment (field-independent basis, Debye-Ang):
   XX=            -44.2196   YY=            -51.3060   ZZ=            -48.9377
   XY=             18.0105   XZ=             -1.0374   YZ=              0.2475

 -419.2759494\MP4SDQ=-419.2991811\CCSD=-419.2972602\CCSD(T)=-419.352153
 Normal termination of Gaussian 16 at Mon Apr 21 09:47:51 2025.
