 Gaussian 16, Revision A.03,
 Gaussian 16:  ES64L-G16RevA.03 25-Dec-2016

 --------------------------
 # ccsd(t)/6-311++g(d,p) sp
 --------------------------

 -------------------
 Title Card Required
 -------------------
 Symbolic Z-matrix:
 Charge =  0 Multiplicity = 2

                         Standard orientation:
 ---------------------------------------------------------------------
 Center     Atomic      Atomic             Coordinates (Angstroms)
 Number     Number       Type             X           Y           Z
 ---------------------------------------------------------------------
      1          6           0        3.341424   -0.481623   -0.444082
      2          1           0        4.334749   -0.745387   -0.723169
      3          6           0        2.224043   -0.186141   -0.129761
      4          6           0        0.882590    0.213457    0.263409
      5          8           0        0.623242    1.266534    0.785651
      6          8           0       -0.005471   -0.733593   -0.025256
      7          6           0       -1.359349   -0.477457    0.366797
      8          6           0       -2.228325   -1.610310   -0.104793
      9          1           0       -1.395751   -0.304737    1.444191
     10          1           0       -1.704512    0.441837   -0.135629
     11          1           0       -2.149685   -1.721029   -1.186860
     12          1           0       -1.944612   -2.551298    0.369138
     13          1           0       -3.266835   -1.389104    0.146375
     14          8           0       -1.857019    1.877195   -0.692715
     15          1           0       -1.121661    2.241075   -0.164901
 ---------------------------------------------------------------------

 SCF Done:  E(UHF) =  -417.989070399     A.U. after   30 cycles
 E2 =    -0.1266127567D+01 EUMP2 =    -0.41925519796586D+03
 CCSD(T)= -0.41935688025D+03

 The electronic state is 2-A.
 Alpha  occ. eigenvalues --  -20.62965 -20.62357 -20.57453 -11.42943 -11.29640
 Alpha  occ. eigenvalues --  -11.27394 -11.26610 -11.22842  -1.49529  -1.39381
 Alpha  occ. eigenvalues --   -1.39010  -1.08762  -1.04971  -0.92733  -0.84468
 Alpha  occ. eigenvalues --   -0.78556  -0.73548  -0.72438  -0.70746  -0.68318
 Alpha  occ. eigenvalues --   -0.65335  -0.60151  -0.59769  -0.56167  -0.55760
 Alpha  occ. eigenvalues --   -0.52923  -0.51343  -0.49639  -0.45967  -0.43341
 Alpha  occ. eigenvalues --   -0.43249
 Alpha virt. eigenvalues --    0.03659   0.04559   0.06277   0.06888   0.07648
 Alpha virt. eigenvalues --    0.07782   0.09101   0.10188   0.11155   0.11653
 Alpha virt. eigenvalues --    0.12099   0.14013   0.14921   0.15517   0.16416

  Beta  occ. eigenvalues --  -20.62353 -20.58937 -20.57433 -11.42951 -11.29167
  Beta  occ. eigenvalues --  -11.27403 -11.26603 -11.22863  -1.49463  -1.39301
  Beta  occ. eigenvalues --   -1.23833  -1.08540  -1.04529  -0.92695  -0.83451
  Beta  occ. eigenvalues --   -0.78059  -0.73455  -0.70571  -0.69931  -0.64629
  Beta  occ. eigenvalues --   -0.60241  -0.59429  -0.56080  -0.52786  -0.51894
  Beta  occ. eigenvalues --   -0.50744  -0.49614  -0.47382  -0.43331  -0.43271
  Beta virt. eigenvalues --    0.03654   0.04554   0.05889   0.06356   0.07374
  Beta virt. eigenvalues --    0.07741   0.08277   0.10066   0.10837   0.11176
  Beta virt. eigenvalues --    0.11828   0.12372   0.14070   0.14966   0.15526

 Mulliken charges and spin densities:
               1          2
     1  C   -0.799709  -0.005195
     2  H    0.205394   0.000359
     3  C    1.522513   0.001568
     4  C   -0.639343  -0.005622
     5  O   -0.344718   0.004091
     6  O   -0.092948  -0.003857
     7  C   -0.211000   0.153524
     8  C   -0.578506  -0.007551
     9  H    0.195691  -0.007609
    10  H    0.255724  -0.056963
    11  H    0.165357   0.000895
    12  H    0.150994   0.007000
    13  H    0.148168   0.000440
    14  O   -0.256269   0.947839
    15  H    0.278653  -0.028918
 Sum of Mulliken charges =  -0.00000   1.00000

 Dipole moment (field-independent basis, Debye):
    X=              1.1503    Y=             -1.6501    Z=              0.0527  Tot=              2.0122
 Quadrupole moment (field-independent basis, Debye-Ang):
   XX=            -37.8335   YY=            -49.1820   ZZ=            -49.2131
   XY=             -0.3588   XZ=             -5.2375   YZ=             -0.8984

 Normal termination of Gaussian 16 at Tue Apr 15 12:23:07 2025.
