 Gaussian 16, Revision A.03,
 Gaussian 16:  ES64L-G16RevA.03 25-Dec-2016

 --------------------------
 # ccsd(t)/6-311++g(d,p) sp
 --------------------------

 -------------------
 Title Card Required
 -------------------
 Symbolic Z-matrix:
 Charge =  0 Multiplicity = 2

                         Standard orientation:
 ---------------------------------------------------------------------
 Center     Atomic      Atomic             Coordinates (Angstroms)
 Number     Number       Type             X           Y           Z
 ---------------------------------------------------------------------
      1          6           0        2.986227    1.302810    0.313689
      2          1           0        3.750994    2.026932    0.472606
      3          6           0        2.128200    0.486197    0.134250
      4          6           0        1.118235   -0.532854   -0.109608
      5          8           0        1.345607   -1.611327   -0.576908
      6          8           0       -0.095437   -0.101278    0.255194
      7          6           0       -1.177655   -1.029653    0.028624
      8          6           0       -2.424474   -0.394929    0.580386
      9          1           0       -1.250862   -1.215670   -1.044791
     10          1           0       -0.936834   -1.971417    0.526118
     11          1           0       -2.354872   -0.198463    1.649939
     12          1           0       -2.612988    0.585468    0.074120
     13          1           0       -3.306928   -0.995574    0.357224
     14          8           0       -2.223388    1.831572   -0.601049
     15          1           0       -1.285962    1.827561   -0.337170
 ---------------------------------------------------------------------

 SCF Done:  E(UHF) =  -417.979618125     A.U. after   33 cycles
 E2 =    -0.1270206161D+01 EUMP2 =    -0.41924982428626D+03
 CCSD(T)= -0.41935119949D+03

 The electronic state is 2-A.
 Alpha  occ. eigenvalues --  -20.63175 -20.62729 -20.57307 -11.42630 -11.30328
 Alpha  occ. eigenvalues --  -11.27653 -11.26884 -11.23052  -1.49422  -1.39693
 Alpha  occ. eigenvalues --   -1.39114  -1.08920  -1.05238  -0.93026  -0.84574
 Alpha  occ. eigenvalues --   -0.78427  -0.73650  -0.72178  -0.70504  -0.69423
 Alpha  occ. eigenvalues --   -0.67135  -0.60798  -0.59033  -0.56053  -0.55926
 Alpha  occ. eigenvalues --   -0.53286  -0.49862  -0.49271  -0.46736  -0.43555
 Alpha  occ. eigenvalues --   -0.43513
 Alpha virt. eigenvalues --    0.03464   0.04549   0.06322   0.06588   0.07074
 Alpha virt. eigenvalues --    0.07633   0.09176   0.10013   0.10923   0.11549
 Alpha virt. eigenvalues --    0.12387   0.13810   0.14767   0.15563   0.16351

  Beta  occ. eigenvalues --  -20.62726 -20.59176 -20.57309 -11.42631 -11.30376
  Beta  occ. eigenvalues --  -11.27652 -11.26885 -11.22444  -1.49415  -1.39325
  Beta  occ. eigenvalues --   -1.24689  -1.08771  -1.04573  -0.92276  -0.83793
  Beta  occ. eigenvalues --   -0.78375  -0.73621  -0.70483  -0.70112  -0.65156
  Beta  occ. eigenvalues --   -0.60752  -0.59086  -0.56051  -0.53261  -0.51652
  Beta  occ. eigenvalues --   -0.50902  -0.49334  -0.47960  -0.43565  -0.43514
  Beta virt. eigenvalues --    0.03441   0.04540   0.05435   0.06351   0.07073
  Beta virt. eigenvalues --    0.07589   0.08450   0.09526   0.10564   0.11316
  Beta virt. eigenvalues --    0.11753   0.12585   0.13923   0.14829   0.15640

 Mulliken charges and spin densities:
               1          2
     1  C   -0.645536   0.000407
     2  H    0.221320  -0.000120
     3  C    1.246315  -0.000479
     4  C   -0.553462  -0.000474
     5  O   -0.292941  -0.000312
     6  O   -0.143194  -0.001494
     7  C   -0.086977  -0.021276
     8  C   -0.689813   0.215559
     9  H    0.214442   0.000443
    10  H    0.172171   0.005850
    11  H    0.164113  -0.013511
    12  H    0.226063  -0.073585
    13  H    0.151169  -0.006712
    14  O   -0.228535   0.923437
    15  H    0.244867  -0.027734
 Sum of Mulliken charges =  -0.00000   1.00000

 Dipole moment (field-independent basis, Debye):
    X=              0.6054    Y=              1.3721    Z=              1.2937  Tot=              1.9806
 Quadrupole moment (field-independent basis, Debye-Ang):
   XX=            -45.3479   YY=            -48.5766   ZZ=            -48.9419
   XY=             14.1772   XZ=              1.0416   YZ=             -0.9133

 7\PMP3-0=-419.276691\MP4SDQ=-419.2993889\CCSD=-419.2982329\CCSD(T)=-41
 Normal termination of Gaussian 16 at Sun Apr 20 23:03:29 2025.
