 Gaussian 16, Revision A.03,
 Gaussian 16:  ES64L-G16RevA.03 25-Dec-2016

 --------------------------
 # ccsd(t)/6-311++g(d,p) sp
 --------------------------

 -------------------
 Title Card Required
 -------------------
 Symbolic Z-matrix:
 Charge =  0 Multiplicity = 2

                         Standard orientation:
 ---------------------------------------------------------------------
 Center     Atomic      Atomic             Coordinates (Angstroms)
 Number     Number       Type             X           Y           Z
 ---------------------------------------------------------------------
      1          6           0        3.340970   -0.489608   -0.439593
      2          1           0        4.334253   -0.756311   -0.716163
      3          6           0        2.223581   -0.191120   -0.128375
      4          6           0        0.885275    0.217359    0.262239
      5          8           0        0.627763    1.273815    0.775174
      6          8           0       -0.011260   -0.728545   -0.018481
      7          6           0       -1.357881   -0.452875    0.359407
      8          6           0       -2.231453   -1.590657   -0.090242
      9          1           0       -1.404628   -0.236075    1.428657
     10          1           0       -1.693888    0.494144   -0.178659
     11          1           0       -2.151949   -1.726946   -1.169182
     12          1           0       -1.939379   -2.519221    0.404758
     13          1           0       -3.270013   -1.370601    0.159746
     14          8           0       -1.854442    1.821043   -0.697660
     15          1           0       -1.133836    2.225911   -0.182044
 ---------------------------------------------------------------------

 SCF Done:  E(UHF) =  -417.980733929     A.U. after   35 cycles
 E2 =    -0.1271514683D+01 EUMP2 =    -0.41925224861271D+03
 CCSD(T)= -0.41935499283D+03

 The electronic state is 2-A.
 Alpha  occ. eigenvalues --  -20.62716 -20.62414 -20.57525 -11.42965 -11.29932
 Alpha  occ. eigenvalues --  -11.27460 -11.26662 -11.22869  -1.49661  -1.39522
 Alpha  occ. eigenvalues --   -1.39120  -1.08825  -1.04960  -0.92808  -0.84577
 Alpha  occ. eigenvalues --   -0.78748  -0.73632  -0.72897  -0.70818  -0.68382
 Alpha  occ. eigenvalues --   -0.65152  -0.60161  -0.59585  -0.56268  -0.55632
 Alpha  occ. eigenvalues --   -0.52992  -0.51210  -0.49682  -0.44791  -0.43362
 Alpha  occ. eigenvalues --   -0.43216
 Alpha virt. eigenvalues --    0.03645   0.04567   0.06268   0.06902   0.07624
 Alpha virt. eigenvalues --    0.07774   0.09133   0.10162   0.11100   0.11641
 Alpha virt. eigenvalues --    0.12087   0.13961   0.15058   0.15514   0.16383

  Beta  occ. eigenvalues --  -20.62401 -20.58785 -20.57500 -11.42974 -11.29211
  Beta  occ. eigenvalues --  -11.27470 -11.26654 -11.22902  -1.49553  -1.39413
  Beta  occ. eigenvalues --   -1.24575  -1.08529  -1.04295  -0.92751  -0.83141
  Beta  occ. eigenvalues --   -0.78068  -0.73520  -0.70593  -0.69643  -0.65001
  Beta  occ. eigenvalues --   -0.60115  -0.59177  -0.56155  -0.52793  -0.51726
  Beta  occ. eigenvalues --   -0.50750  -0.49650  -0.46953  -0.43353  -0.43340
  Beta virt. eigenvalues --    0.03636   0.04545   0.05725   0.06335   0.07372
  Beta virt. eigenvalues --    0.07721   0.08251   0.10009   0.10688   0.11150
  Beta virt. eigenvalues --    0.11823   0.12415   0.14009   0.15103   0.15534

 Mulliken charges and spin densities:
               1          2
     1  C   -0.814448  -0.005726
     2  H    0.205246   0.000380
     3  C    1.549641   0.003778
     4  C   -0.637128  -0.002754
     5  O   -0.343574   0.005299
     6  O   -0.086923  -0.006076
     7  C   -0.234629   0.232604
     8  C   -0.585368  -0.016159
     9  H    0.200165  -0.011253
    10  H    0.272125  -0.092396
    11  H    0.166660   0.001865
    12  H    0.151657   0.011333
    13  H    0.148516   0.000748
    14  O   -0.270408   0.905201
    15  H    0.278470  -0.026844
 Sum of Mulliken charges =  -0.00000   1.00000

 Dipole moment (field-independent basis, Debye):
    X=              1.2048    Y=             -1.6560    Z=              0.0770  Tot=              2.0494
 Quadrupole moment (field-independent basis, Debye-Ang):
   XX=            -37.7778   YY=            -49.1976   ZZ=            -49.2079
   XY=             -0.4590   XZ=             -5.2599   YZ=             -0.8064

 Normal termination of Gaussian 16 at Tue Apr 15 02:36:00 2025.
