 Gaussian 16, Revision A.03,
 Gaussian 16:  ES64L-G16RevA.03 25-Dec-2016

 -------------------
 # freq 6-31+g m062x
 -------------------

 -------------------
 Title Card Required
 -------------------
 Symbolic Z-matrix:
 Charge =  0 Multiplicity = 2

                         Standard orientation:
 ---------------------------------------------------------------------
 Center     Atomic      Atomic             Coordinates (Angstroms)
 Number     Number       Type             X           Y           Z
 ---------------------------------------------------------------------
      1          8           0        2.774068   -1.334359    0.026210
      2          1           0        1.870873   -1.625361   -0.169816
      3          6           0        2.551650    0.448190    0.239070
      4          1           0        3.562879    0.753557    0.437038
      5          6           0        1.357548    0.802973    0.104887
      6          6           0       -0.080013    0.783122   -0.114397
      7          8           0       -0.776856    1.757940   -0.076987
      8          8           0       -0.498310   -0.461376   -0.364812
      9          6           0       -1.918398   -0.624197   -0.584910
     10          6           0       -2.671696   -0.652398    0.729683
     11          1           0       -1.995152   -1.570775   -1.116507
     12          1           0       -2.263240    0.185050   -1.229166
     13          1           0       -3.728367   -0.849145    0.538883
     14          1           0       -2.284418   -1.442435    1.374649
     15          1           0       -2.588337    0.305332    1.243628
 ---------------------------------------------------------------------

 SCF Done:  E(UM062X) =  -419.966908269     A.U. after   20 cycles

 The electronic state is 2-A.
 Alpha  occ. eigenvalues --  -19.72289 -19.67785 -19.66815 -10.74397 -10.64747
 Alpha  occ. eigenvalues --  -10.62788 -10.61654 -10.55578  -1.29444  -1.20190
 Alpha  occ. eigenvalues --   -1.11568  -0.93648  -0.89312  -0.80112  -0.73190
 Alpha  occ. eigenvalues --   -0.66122  -0.63297  -0.59979  -0.58301  -0.55417
 Alpha  occ. eigenvalues --   -0.52804  -0.50851  -0.48768  -0.48149  -0.46329
 Alpha  occ. eigenvalues --   -0.43409  -0.42276  -0.40278  -0.39669  -0.36344
 Alpha  occ. eigenvalues --   -0.32202
 Alpha virt. eigenvalues --   -0.03407   0.01292   0.02822   0.02998   0.03605
 Alpha virt. eigenvalues --    0.04405   0.05717   0.06157   0.07257   0.07644
 Alpha virt. eigenvalues --    0.08075   0.08358   0.09026   0.10921   0.11591

  Beta  occ. eigenvalues --  -19.72248 -19.67705 -19.65963 -10.74449 -10.64924
  Beta  occ. eigenvalues --  -10.62779 -10.61065 -10.55578  -1.29300  -1.19994
  Beta  occ. eigenvalues --   -1.08643  -0.92204  -0.88613  -0.79908  -0.72581
  Beta  occ. eigenvalues --   -0.65966  -0.62781  -0.59727  -0.57981  -0.55188
  Beta  occ. eigenvalues --   -0.51094  -0.50436  -0.48105  -0.46588  -0.43314
  Beta  occ. eigenvalues --   -0.41997  -0.41371  -0.39889  -0.39126  -0.34545
  Beta virt. eigenvalues --   -0.09755  -0.03365   0.01282   0.02651   0.02937
  Beta virt. eigenvalues --    0.03862   0.04453   0.06145   0.06605   0.07004
  Beta virt. eigenvalues --    0.07664   0.08158   0.08535   0.09311   0.11077

 Mulliken charges and spin densities:
               1          2
     1  O   -0.538727   0.444117
     2  H    0.421589  -0.012563
     3  C   -0.285559  -0.283911
     4  H    0.271235   0.034677
     5  C    0.504167   0.774780
     6  C   -0.019149   0.018468
     7  O   -0.371184   0.019966
     8  O   -0.290035   0.000831
     9  C   -0.251721  -0.000171
    10  C   -0.572319   0.003135
    11  H    0.224692   0.000460
    12  H    0.237029  -0.000173
    13  H    0.212027   0.000251
    14  H    0.221681   0.000050
    15  H    0.236273   0.000084
 Sum of Mulliken charges =  -0.00000   1.00000

 Dipole moment (field-independent basis, Debye):
    X=             -2.2992    Y=             -0.6091    Z=             -0.2184  Tot=              2.3886
 Quadrupole moment (field-independent basis, Debye-Ang):
   XX=            -46.1503   YY=            -53.6970   ZZ=            -47.6293
   XY=             11.8262   XZ=              1.7883   YZ=              1.1069

  Exact polarizability:  91.031  -9.969  76.863   2.976   2.123  46.174
 Approx polarizability:  97.132 -20.497  93.726   4.654   3.043  48.561

 ******    4 imaginary frequencies (negative Signs) ******

                      1                      2                      3
                      A                      A                      A
 Frequencies --   -730.0510              -376.6566               -87.1136
 Red. masses --     11.6150                 1.0625                 7.1195
 Frc consts  --      3.6473                 0.0888                 0.0318
 IR Inten    --      0.8883               132.3162                 0.0812

                      4                      5                      6
                      A                      A                      A
 Frequencies --    -41.5360                45.4814               144.4869
 Red. masses --      3.7066                 3.4026                 5.0341
 Frc consts  --      0.0038                 0.0041                 0.0619
 IR Inten    --      1.6254                 1.5991                13.4659

                      7                      8                      9
                      A                      A                      A
 Frequencies --    175.9934               273.2227               282.1824
 Red. masses --      1.2038                 3.1803                 3.5142
 Frc consts  --      0.0220                 0.1399                 0.1649
 IR Inten    --      3.0698                15.9192                 9.5313

                     10                     11                     12
                      A                      A                      A
 Frequencies --    325.4164               415.3977               554.2584
 Red. masses --      4.2101                 3.8597                 6.3796
 Frc consts  --      0.2627                 0.3924                 1.1547
 IR Inten    --      4.3533                 2.8019                 8.6175

                     13                     14                     15
                      A                      A                      A
 Frequencies --    595.1506               754.6184               812.5063
 Red. masses --      5.0924                11.3117                 1.3673
 Frc consts  --      1.0627                 3.7952                 0.5318
 IR Inten    --      9.5288                29.7718                34.8505

                     16                     17                     18
                      A                      A                      A
 Frequencies --    813.8643               880.5025               899.0610
 Red. masses --      1.3379                 1.5788                 1.7782
 Frc consts  --      0.5221                 0.7212                 0.8469
 IR Inten    --     21.4052               103.7591                26.9408

                     19                     20                     21
                      A                      A                      A
 Frequencies --    942.9099              1061.8774              1104.0057
 Red. masses --      2.3428                 1.1248                 4.1356
 Frc consts  --      1.2272                 0.7473                 2.9698
 IR Inten    --      3.6414                 1.0844                 8.3114

                     22                     23                     24
                      A                      A                      A
 Frequencies --   1154.9117              1226.4457              1305.1156
 Red. masses --      2.0268                 1.7549                 3.6620
 Frc consts  --      1.5928                 1.5552                 3.6751
 IR Inten    --     18.1903                 8.7040               448.4356

                     25                     26                     27
                      A                      A                      A
 Frequencies --   1363.4676              1440.6933              1458.1171
 Red. masses --      1.3046                 1.3112                 1.2501
 Frc consts  --      1.4290                 1.6035                 1.5659
 IR Inten    --    107.5845                11.4725                19.3237

                     28                     29                     30
                      A                      A                      A
 Frequencies --   1528.6553              1537.5580              1545.4859
 Red. masses --      1.0414                 1.0663                 1.0729
 Frc consts  --      1.4338                 1.4852                 1.5099
 IR Inten    --     16.4648                 3.2248                21.9951

                     31                     32                     33
                      A                      A                      A
 Frequencies --   1899.4445              1985.1456              3108.1540
 Red. masses --     11.7225                 7.4414                 1.0352
 Frc consts  --     24.9187                17.2778                 5.8920
 IR Inten    --    308.2250               142.5980                11.3045

                     34                     35                     36
                      A                      A                      A
 Frequencies --   3140.5146              3188.5334              3192.5775
 Red. masses --      1.0600                 1.1005                 1.1026
 Frc consts  --      6.1597                 6.5922                 6.6212
 IR Inten    --     17.2792                12.5539                 5.0652

                     37                     38                     39
                      A                      A                      A
 Frequencies --   3213.3581              3389.8496              3834.5899
 Red. masses --      1.1057                 1.1236                 1.0678
 Frc consts  --      6.7269                 7.6071                 9.2510
 IR Inten    --     13.7396                25.3118                29.0221

 - Thermochemistry -
 -------------------
 Temperature   298.150 Kelvin.  Pressure   1.00000 Atm.
 Atom     1 has atomic number  8 and mass  15.99491

 Molecular mass:   115.03952 amu.
 Principal axes and moments of inertia in atomic units:
                           1         2         3
     Eigenvalues --   490.442741566.176791910.64336
           X            0.99961   0.02727  -0.00546
           Y           -0.02727   0.99963  -0.00014
           Z            0.00546   0.00029   0.99999
 This molecule is an asymmetric top.
 Rotational symmetry number  1.
 Warning -- assumption of classical behavior for rotation
           may cause significant error
 Rotational temperatures (Kelvin)      0.17660     0.05530     0.04533
 Rotational constants (GHZ):           3.67982     1.15232     0.94457
    4 imaginary frequencies ignored.
 Zero-point vibrational energy     296635.3 (Joules/Mol)
                                   70.89754 (Kcal/Mol)
 Warning -- explicit consideration of   9 degrees of freedom as
           vibrations may cause significant error
 Vibrational temperatures:     65.44   207.88   253.22   393.11   406.00
          (Kelvin)            468.20   597.66   797.45   856.29  1085.73
                             1169.02  1170.97  1266.85  1293.55  1356.64
                             1527.80  1588.42  1661.66  1764.58  1877.77
                             1961.73  2072.84  2097.91  2199.39  2212.20
                             2223.61  2732.88  2856.18  4471.94  4518.50
                             4587.59  4593.41  4623.31  4877.24  5517.12

 Zero-point correction=                           0.112982 (Hartree/Particle)
 Thermal correction to Energy=                    0.120377
 Thermal correction to Enthalpy=                  0.121322
 Thermal correction to Gibbs Free Energy=         0.079478
 Sum of electronic and zero-point Energies=           -419.853926
 Sum of electronic and thermal Energies=              -419.846531
 Sum of electronic and thermal Enthalpies=            -419.845587
 Sum of electronic and thermal Free Energies=         -419.887431

                     E (Thermal)             CV                S
                      KCal/Mol        Cal/Mol-Kelvin    Cal/Mol-Kelvin
 Total                   75.538             25.531             88.068
 Electronic               0.000              0.000              1.377
 Translational            0.889              2.981             40.136
 Rotational               0.889              2.981             28.775
 Vibrational             73.761             19.570             17.781
 Vibration     1          0.595              1.979              5.005
 Vibration     2          0.616              1.909              2.744
 Vibration     3          0.628              1.872              2.370
 Vibration     4          0.676              1.723              1.576
 Vibration     5          0.681              1.707              1.520
 Vibration     6          0.710              1.625              1.283
 Vibration     7          0.779              1.437              0.908
 Vibration     8          0.910              1.130              0.535
 Vibration     9          0.953              1.042              0.458

 Normal termination of Gaussian 16 at Fri Jun 20 14:20:50 2025.
