 Gaussian 16, Revision A.03,
 Gaussian 16:  ES64L-G16RevA.03 25-Dec-2016

 -------------------
 # freq 6-31+g m062x
 -------------------

 -------------------
 Title Card Required
 -------------------
 Symbolic Z-matrix:
 Charge =  0 Multiplicity = 2

                         Standard orientation:
 ---------------------------------------------------------------------
 Center     Atomic      Atomic             Coordinates (Angstroms)
 Number     Number       Type             X           Y           Z
 ---------------------------------------------------------------------
      1          8           0        2.795784   -1.531517    0.024532
      2          1           0        1.856304   -1.705786   -0.159968
      3          6           0        2.539297    0.758347    0.266762
      4          1           0        3.591935    0.764046    0.427511
      5          6           0        1.352115    0.802207    0.090900
      6          6           0       -0.084503    0.783710   -0.126892
      7          8           0       -0.788302    1.752429   -0.105985
      8          8           0       -0.497799   -0.469214   -0.357721
      9          6           0       -1.916118   -0.639720   -0.574613
     10          6           0       -2.669889   -0.649722    0.740281
     11          1           0       -1.991690   -1.594606   -1.091650
     12          1           0       -2.264405    0.158309   -1.230979
     13          1           0       -3.726096   -0.852403    0.553074
     14          1           0       -2.280208   -1.428257    1.397769
     15          1           0       -2.588713    0.316180    1.238995
 ---------------------------------------------------------------------

 SCF Done:  E(UM062X) =  -419.964689646     A.U. after   23 cycles

 The electronic state is 2-A.
 Alpha  occ. eigenvalues --  -19.71918 -19.69495 -19.67352 -10.73934 -10.62556
 Alpha  occ. eigenvalues --  -10.59861 -10.59200 -10.55408  -1.28960  -1.19712
 Alpha  occ. eigenvalues --   -1.13713  -0.92227  -0.88568  -0.79502  -0.72041
 Alpha  occ. eigenvalues --   -0.65665  -0.62204  -0.59526  -0.57810  -0.55046
 Alpha  occ. eigenvalues --   -0.54134  -0.50553  -0.49513  -0.47974  -0.46314
 Alpha  occ. eigenvalues --   -0.43133  -0.42314  -0.40009  -0.39379  -0.37954
 Alpha  occ. eigenvalues --   -0.36059
 Alpha virt. eigenvalues --   -0.02407   0.01475   0.02601   0.03062   0.03856
 Alpha virt. eigenvalues --    0.04409   0.05212   0.06316   0.07158   0.07721
 Alpha virt. eigenvalues --    0.08424   0.08541   0.08802   0.11279   0.11999

  Beta  occ. eigenvalues --  -19.71916 -19.67858 -19.67337 -10.73944 -10.62555
  Beta  occ. eigenvalues --  -10.59867 -10.59098 -10.55408  -1.28939  -1.19680
  Beta  occ. eigenvalues --   -1.06337  -0.91988  -0.88386  -0.79451  -0.71933
  Beta  occ. eigenvalues --   -0.65635  -0.61985  -0.59476  -0.57751  -0.54966
  Beta  occ. eigenvalues --   -0.51065  -0.50425  -0.47936  -0.46348  -0.43098
  Beta  occ. eigenvalues --   -0.40418  -0.39545  -0.39480  -0.37767  -0.36887
  Beta virt. eigenvalues --   -0.08524  -0.02386   0.01522   0.02749   0.03082
  Beta virt. eigenvalues --    0.04006   0.04466   0.05487   0.06428   0.07248
  Beta virt. eigenvalues --    0.07813   0.08498   0.08621   0.08883   0.11274

 Mulliken charges and spin densities:
               1          2
     1  O   -0.455977   0.947572
     2  H    0.426797  -0.034523
     3  C   -0.010364  -0.156456
     4  H    0.360584   0.005535
     5  C    0.360915   0.186962
     6  C   -0.365423   0.047964
     7  O   -0.348712   0.003895
     8  O   -0.268053  -0.001422
     9  C   -0.261069  -0.000006
    10  C   -0.565755   0.000316
    11  H    0.221588   0.000127
    12  H    0.236206   0.000011
    13  H    0.211525   0.000017
    14  H    0.219898   0.000001
    15  H    0.237841   0.000004
 Sum of Mulliken charges =  -0.00000   1.00000

 Dipole moment (field-independent basis, Debye):
    X=             -1.8978    Y=             -1.5379    Z=             -0.2764  Tot=              2.4584
 Quadrupole moment (field-independent basis, Debye-Ang):
   XX=            -44.4200   YY=            -52.7522   ZZ=            -47.6908
   XY=              9.3261   XZ=              1.4813   YZ=              1.1525

  Exact polarizability:  89.104  -2.598  66.436   3.819   1.345  45.911
 Approx polarizability:  98.583  -8.747  74.446   6.734   1.832  47.959

 ******    3 imaginary frequencies (negative Signs) ******

                      1                      2                      3
                      A                      A                      A
 Frequencies --   -421.4307              -123.0046              -109.0853
 Red. masses --      1.0720                 5.0232                 6.3609
 Frc consts  --      0.1122                 0.0448                 0.0446
 IR Inten    --    158.1869                 9.0614                 6.6372

                      4                      5                      6
                      A                      A                      A
 Frequencies --      9.6858                43.7267               138.1035
 Red. masses --      3.3466                 2.7690                 3.2853
 Frc consts  --      0.0002                 0.0031                 0.0369
 IR Inten    --      6.8129                 1.8433                 4.2158

                      7                      8                      9
                      A                      A                      A
 Frequencies --    183.9575               199.8828               246.9960
 Red. masses --      1.7429                 2.9444                 3.9026
 Frc consts  --      0.0347                 0.0693                 0.1403
 IR Inten    --      6.0947                25.6125                 1.1441

                     10                     11                     12
                      A                      A                      A
 Frequencies --    314.7078               373.7409               420.9018
 Red. masses --      2.9736                 1.2585                 3.6283
 Frc consts  --      0.1735                 0.1036                 0.3787
 IR Inten    --     11.7491               150.0269                 6.0966

                     13                     14                     15
                      A                      A                      A
 Frequencies --    581.3984               623.2080               778.1557
 Red. masses --      4.1963                 6.9686                 3.3533
 Frc consts  --      0.8357                 1.5946                 1.1963
 IR Inten    --      6.7977                15.0818                66.9554

                     16                     17                     18
                      A                      A                      A
 Frequencies --    806.0397               816.0063               871.8961
 Red. masses --      1.2511                 1.2876                 1.8291
 Frc consts  --      0.4789                 0.5051                 0.8192
 IR Inten    --     70.9945                 6.1192                14.1213

                     19                     20                     21
                      A                      A                      A
 Frequencies --    897.4902               946.6849              1110.8648
 Red. masses --      3.2749                 2.5965                 4.2595
 Frc consts  --      1.5542                 1.3710                 3.0970
 IR Inten    --     18.1768                 4.3945                 7.2446

                     22                     23                     24
                      A                      A                      A
 Frequencies --   1156.7995              1227.1994              1313.0199
 Red. masses --      2.0653                 1.7621                 3.2097
 Frc consts  --      1.6284                 1.5635                 3.2603
 IR Inten    --     19.0299                 6.4948               463.4206

                     25                     26                     27
                      A                      A                      A
 Frequencies --   1365.5095              1441.4629              1457.4125
 Red. masses --      1.3623                 1.3239                 1.2543
 Frc consts  --      1.4966                 1.6208                 1.5697
 IR Inten    --    145.5927                17.5627                18.6483

                     28                     29                     30
                      A                      A                      A
 Frequencies --   1528.2930              1536.8840              1544.9893
 Red. masses --      1.0416                 1.0688                 1.0715
 Frc consts  --      1.4334                 1.4874                 1.5069
 IR Inten    --     15.0470                 4.4924                22.3784

                     31                     32                     33
                      A                      A                      A
 Frequencies --   1917.3446              2311.9626              3108.1939
 Red. masses --     12.3323                 5.6523                 1.0352
 Frc consts  --     26.7112                17.8008                 5.8923
 IR Inten    --    326.1327                84.6399                11.9913

                     34                     35                     36
                      A                      A                      A
 Frequencies --   3139.4667              3187.6969              3192.2572
 Red. masses --      1.0599                 1.1009                 1.1024
 Frc consts  --      6.1547                 6.5912                 6.6190
 IR Inten    --     18.6705                11.9567                 6.6035

                     37                     38                     39
                      A                      A                      A
 Frequencies --   3212.6172              3534.8116              3785.0520
 Red. masses --      1.1054                 1.1752                 1.0674
 Frc consts  --      6.7221                 8.6512                 9.0103
 IR Inten    --     15.4530                69.1592                 9.1862

 - Thermochemistry -
 -------------------
 Temperature   298.150 Kelvin.  Pressure   1.00000 Atm.
 Atom     1 has atomic number  8 and mass  15.99491

 Molecular mass:   115.03952 amu.
 Principal axes and moments of inertia in atomic units:
                           1         2         3
     Eigenvalues --   540.629331571.230241964.31012
           X            0.99958   0.02840  -0.00580
           Y           -0.02841   0.99960  -0.00019
           Z            0.00579   0.00036   0.99998
 This molecule is an asymmetric top.
 Rotational symmetry number  1.
 Warning -- assumption of classical behavior for rotation
           may cause significant error
 Rotational temperatures (Kelvin)      0.16021     0.05512     0.04409
 Rotational constants (GHZ):           3.33822     1.14862     0.91877
    3 imaginary frequencies ignored.
 Zero-point vibrational energy     295025.5 (Joules/Mol)
                                   70.51280 (Kcal/Mol)
 Warning -- explicit consideration of  10 degrees of freedom as
           vibrations may cause significant error
 Vibrational temperatures:     13.94    62.91   198.70   264.67   287.59
          (Kelvin)            355.37   452.79   537.73   605.58   836.50
                              896.66  1119.59  1159.71  1174.05  1254.46
                             1291.29  1362.07  1598.29  1664.38  1765.67
                             1889.14  1964.66  2073.94  2096.89  2198.87
                             2211.23  2222.90  2758.63  3326.40  4472.00
                             4516.99  4586.38  4592.95  4622.24  5085.81
                             5445.85

 Zero-point correction=                           0.112369 (Hartree/Particle)
 Thermal correction to Energy=                    0.121119
 Thermal correction to Enthalpy=                  0.122063
 Thermal correction to Gibbs Free Energy=         0.075476
 Sum of electronic and zero-point Energies=           -419.852320
 Sum of electronic and thermal Energies=              -419.843571
 Sum of electronic and thermal Enthalpies=            -419.842626
 Sum of electronic and thermal Free Energies=         -419.889214

                     E (Thermal)             CV                S
                      KCal/Mol        Cal/Mol-Kelvin    Cal/Mol-Kelvin
 Total                   76.003             28.750             98.052
 Electronic               0.000              0.000              1.377
 Translational            0.889              2.981             40.136
 Rotational               0.889              2.981             28.902
 Vibrational             74.226             22.788             27.636
 Vibration     1          0.593              1.987              8.074
 Vibration     2          0.595              1.980              5.083
 Vibration     3          0.614              1.915              2.830
 Vibration     4          0.631              1.862              2.288
 Vibration     5          0.638              1.840              2.134
 Vibration     6          0.661              1.768              1.752
 Vibration     7          0.702              1.646              1.337
 Vibration     8          0.745              1.526              1.064
 Vibration     9          0.783              1.425              0.889
 Vibration    10          0.938              1.072              0.483

 Normal termination of Gaussian 16 at Fri Jun 20 14:13:46 2025.
