 Gaussian 16, Revision A.03,
 Gaussian 16:  ES64L-G16RevA.03 25-Dec-2016

 --------------------------
 # freq 6-311++g(d,p) m062x
 --------------------------

 -------------------
 Title Card Required
 -------------------
 Symbolic Z-matrix:
 Charge =  0 Multiplicity = 2

                         Standard orientation:
 ---------------------------------------------------------------------
 Center     Atomic      Atomic             Coordinates (Angstroms)
 Number     Number       Type             X           Y           Z
 ---------------------------------------------------------------------
      1          8           0        2.791207   -1.486912    0.024439
      2          1           0        1.859466   -1.694219   -0.163120
      3          6           0        2.540232    0.701813    0.262805
      4          1           0        3.592387    0.723527    0.425960
      5          6           0        1.353214    0.793992    0.092860
      6          6           0       -0.083357    0.784098   -0.123979
      7          8           0       -0.784773    1.754443   -0.099253
      8          8           0       -0.498575   -0.467196   -0.359384
      9          6           0       -1.916688   -0.635919   -0.576960
     10          6           0       -2.670288   -0.650339    0.737920
     11          1           0       -1.992765   -1.588907   -1.097423
     12          1           0       -2.264574    0.164644   -1.230485
     13          1           0       -3.726564   -0.852100    0.550142
     14          1           0       -2.280694   -1.431276    1.392602
     15          1           0       -2.588804    0.313784    1.240040
 ---------------------------------------------------------------------

 SCF Done:  E(UM062X) =  -420.207887522     A.U. after   23 cycles

 The electronic state is 2-A.
 Alpha  occ. eigenvalues --  -19.69441 -19.66615 -19.64188 -10.71583 -10.61485
 Alpha  occ. eigenvalues --  -10.58555 -10.57609 -10.54523  -1.26589  -1.17440
 Alpha  occ. eigenvalues --   -1.12429  -0.91589  -0.87874  -0.78956  -0.71463
 Alpha  occ. eigenvalues --   -0.65450  -0.62192  -0.59484  -0.57390  -0.54719
 Alpha  occ. eigenvalues --   -0.54109  -0.50295  -0.49656  -0.47691  -0.46187
 Alpha  occ. eigenvalues --   -0.43009  -0.42343  -0.39988  -0.39431  -0.37656
 Alpha  occ. eigenvalues --   -0.35323
 Alpha virt. eigenvalues --   -0.02300  -0.00753   0.00800   0.01329   0.01666
 Alpha virt. eigenvalues --    0.02887   0.04650   0.04983   0.05129   0.06273
 Alpha virt. eigenvalues --    0.06625   0.07065   0.08146   0.09001   0.10388

  Beta  occ. eigenvalues --  -19.69436 -19.65073 -19.64168 -10.71594 -10.61483
  Beta  occ. eigenvalues --  -10.58569 -10.57478 -10.54523  -1.26558  -1.17388
  Beta  occ. eigenvalues --   -1.05108  -0.91250  -0.87605  -0.78892  -0.71329
  Beta  occ. eigenvalues --   -0.65394  -0.61899  -0.59404  -0.57319  -0.54481
  Beta  occ. eigenvalues --   -0.51406  -0.50194  -0.47638  -0.46239  -0.42962
  Beta  occ. eigenvalues --   -0.40316  -0.39756  -0.39563  -0.37601  -0.36563
  Beta virt. eigenvalues --   -0.08490  -0.02257  -0.00626   0.01009   0.01366
  Beta virt. eigenvalues --    0.01818   0.02950   0.04946   0.05039   0.05514
  Beta virt. eigenvalues --    0.06637   0.06729   0.07111   0.08310   0.09135

 Mulliken charges and spin densities:
               1          2
     1  O   -0.284133   0.900641
     2  H    0.252249  -0.016580
     3  C   -0.498520  -0.059322
     4  H    0.216823   0.012444
     5  C    0.957955   0.145259
     6  C   -0.621289   0.014477
     7  O   -0.205218   0.003969
     8  O   -0.029739  -0.002449
     9  C   -0.300541   0.001456
    10  C   -0.395604   0.000037
    11  H    0.193328   0.000191
    12  H    0.197554  -0.000123
    13  H    0.167498   0.000076
    14  H    0.165379  -0.000130
    15  H    0.184259   0.000054
 Sum of Mulliken charges =  -0.00000   1.00000

 Dipole moment (field-independent basis, Debye):
    X=             -1.6649    Y=             -1.5218    Z=             -0.2329  Tot=              2.2676
 Quadrupole moment (field-independent basis, Debye-Ang):
   XX=            -42.9624   YY=            -52.0602   ZZ=            -47.4871
   XY=              8.5316   XZ=              1.5823   YZ=              1.0580

  Exact polarizability:  93.995  -4.045  71.919   2.988   1.466  50.193
 Approx polarizability: 104.389  -9.592  82.805   5.826   1.711  57.741

 ******    2 imaginary frequencies (negative Signs) ******

                      1                      2                      3
                      A                      A                      A
 Frequencies --    -63.2152               -36.3820                75.7816
 Red. masses --      6.0680                 6.5188                 3.3567
 Frc consts  --      0.0143                 0.0051                 0.0114
 IR Inten    --      5.4085                 0.8327                 1.3168

                      4                      5                      6
                      A                      A                      A
 Frequencies --    115.5799               176.6406               204.5487
 Red. masses --      3.5184                 4.9930                 2.8034
 Frc consts  --      0.0277                 0.0918                 0.0691
 IR Inten    --      1.3721                 7.3170                 0.4257

                      7                      8                      9
                      A                      A                      A
 Frequencies --    225.8618               237.5287               261.0877
 Red. masses --      1.1171                 1.6606                 4.0128
 Frc consts  --      0.0336                 0.0552                 0.1612
 IR Inten    --     92.3586                11.0258                 7.0688

                     10                     11                     12
                      A                      A                      A
 Frequencies --    337.7806               423.0585               572.7345
 Red. masses --      2.9243                 3.8684                 4.0620
 Frc consts  --      0.1966                 0.4079                 0.7850
 IR Inten    --      9.3530                 2.5358                 1.8815

                     13                     14                     15
                      A                      A                      A
 Frequencies --    603.6725               654.5705               776.3932
 Red. masses --      9.0215                 1.0713                 1.1496
 Frc consts  --      1.9370                 0.2704                 0.4083
 IR Inten    --      7.2842               147.4835                52.7133

                     16                     17                     18
                      A                      A                      A
 Frequencies --    778.3957               784.8296               802.2167
 Red. masses --      2.0687                 2.3967                 1.2392
 Frc consts  --      0.7385                 0.8698                 0.4699
 IR Inten    --      3.6874                58.4897                 9.2897

                     19                     20                     21
                      A                      A                      A
 Frequencies --    893.0671               929.7790              1074.4507
 Red. masses --      3.1529                 2.7852                 4.1664
 Frc consts  --      1.4816                 1.4186                 2.8339
 IR Inten    --     16.2546                 4.6929                23.3147

                     22                     23                     24
                      A                      A                      A
 Frequencies --   1127.7740              1203.1181              1268.1810
 Red. masses --      2.0732                 1.7794                 5.4108
 Frc consts  --      1.5536                 1.5176                 5.1271
 IR Inten    --     22.2743                 7.6688               593.3040

                     25                     26                     27
                      A                      A                      A
 Frequencies --   1346.5651              1402.2510              1431.4668
 Red. masses --      1.1620                 1.2568                 1.3576
 Frc consts  --      1.2414                 1.4561                 1.6391
 IR Inten    --     47.4168                16.9317                 8.5093

                     28                     29                     30
                      A                      A                      A
 Frequencies --   1493.5044              1502.8206              1514.8706
 Red. masses --      1.0405                 1.0622                 1.0808
 Frc consts  --      1.3674                 1.4134                 1.4613
 IR Inten    --     11.5672                 1.9641                17.1005

                     31                     32                     33
                      A                      A                      A
 Frequencies --   1850.2533              2233.3757              3075.6618
 Red. masses --     12.1022                 5.9139                 1.0354
 Frc consts  --     24.4104                17.3798                 5.7710
 IR Inten    --    373.9736                81.1641                 9.1817

                     34                     35                     36
                      A                      A                      A
 Frequencies --   3108.5304              3150.7589              3155.6662
 Red. masses --      1.0605                 1.1019                 1.1048
 Frc consts  --      6.0375                 6.4450                 6.4820
 IR Inten    --     16.9539                12.7058                 2.7950

                     37                     38                     39
                      A                      A                      A
 Frequencies --   3175.6932              3487.8728              3773.8372
 Red. masses --      1.1075                 1.1650                 1.0675
 Frc consts  --      6.5809                 8.3503                 8.9575
 IR Inten    --     12.5857                74.6823                28.2861

 - Thermochemistry -
 -------------------
 Temperature   298.150 Kelvin.  Pressure   1.00000 Atm.
 Atom     1 has atomic number  8 and mass  15.99491

 Molecular mass:   115.03952 amu.
 Principal axes and moments of inertia in atomic units:
                           1         2         3
     Eigenvalues --   528.462531569.899711951.13829
           X            0.99960   0.02764  -0.00575
           Y           -0.02764   0.99962  -0.00034
           Z            0.00574   0.00049   0.99998
 This molecule is an asymmetric top.
 Rotational symmetry number  1.
 Warning -- assumption of classical behavior for rotation
           may cause significant error
 Rotational temperatures (Kelvin)      0.16390     0.05517     0.04439
 Rotational constants (GHZ):           3.41508     1.14959     0.92497
    2 imaginary frequencies ignored.
 Zero-point vibrational energy     294461.9 (Joules/Mol)
                                   70.37807 (Kcal/Mol)
 Warning -- explicit consideration of  11 degrees of freedom as
           vibrations may cause significant error
 Vibrational temperatures:    109.03   166.29   254.15   294.30   324.96
          (Kelvin)            341.75   375.65   485.99   608.69   824.04
                              868.55   941.78  1117.06  1119.94  1129.19
                             1154.21  1284.92  1337.74  1545.89  1622.62
                             1731.02  1824.63  1937.41  2017.53  2059.56
                             2148.82  2162.22  2179.56  2662.10  3213.33
                             4425.19  4472.48  4533.24  4540.30  4569.11
                             5018.27  5429.71

 Zero-point correction=                           0.112155 (Hartree/Particle)
 Thermal correction to Energy=                    0.120804
 Thermal correction to Enthalpy=                  0.121749
 Thermal correction to Gibbs Free Energy=         0.077919
 Sum of electronic and zero-point Energies=           -420.095733
 Sum of electronic and thermal Energies=              -420.087083
 Sum of electronic and thermal Enthalpies=            -420.086139
 Sum of electronic and thermal Free Energies=         -420.129968

                     E (Thermal)             CV                S
                      KCal/Mol        Cal/Mol-Kelvin    Cal/Mol-Kelvin
 Total                   75.806             30.122             92.246
 Electronic               0.000              0.000              1.377
 Translational            0.889              2.981             40.136
 Rotational               0.889              2.981             28.872
 Vibrational             74.028             24.161             21.861
 Vibration     1          0.599              1.965              3.997
 Vibration     2          0.608              1.936              3.173
 Vibration     3          0.628              1.871              2.364
 Vibration     4          0.640              1.833              2.092
 Vibration     5          0.650              1.802              1.912
 Vibration     6          0.656              1.783              1.821
 Vibration     7          0.669              1.744              1.654
 Vibration     8          0.718              1.600              1.223
 Vibration     9          0.785              1.420              0.882
 Vibration    10          0.929              1.090              0.499
 Vibration    11          0.962              1.024              0.443

 1\1\GINC-AJ\Freq\UM062X\6-311++G(d,p)\C5H7O3(2)\AAYUSH\23-Jun-2025\0\\
 # freq 6-311++g(d,p) m062x\\Title Card Required\\0,2\O,2.791207,-1.486
 912,0.024439\H,1.859466,-1.694219,-0.16312\C,2.540232,0.701813,0.26280
 5\H,3.592387,0.723527,0.42596\C,1.353214,0.793992,0.09286\C,-0.083357,
 0.784098,-0.123979\O,-0.784773,1.754443,-0.099253\O,-0.498575,-0.46719
 6,-0.359384\C,-1.916688,-0.635919,-0.57696\C,-2.670288,-0.650339,0.737
 92\H,-1.992765,-1.588907,-1.097423\H,-2.264574,0.164644,-1.230485\H,-3
 .726564,-0.8521,0.550142\H,-2.280694,-1.431276,1.392602\H,-2.588804,0.

 Normal termination of Gaussian 16 at Mon Jun 23 06:14:56 2025.
