 Gaussian 16, Revision A.03,
 Gaussian 16:  ES64L-G16RevA.03 25-Dec-2016

 -------------------
 # freq 6-31+g m062x
 -------------------

 -------------------
 Title Card Required
 -------------------
 Symbolic Z-matrix:
 Charge =  0 Multiplicity = 2

                         Standard orientation:
 ---------------------------------------------------------------------
 Center     Atomic      Atomic             Coordinates (Angstroms)
 Number     Number       Type             X           Y           Z
 ---------------------------------------------------------------------
      1          8           0        2.770578   -1.298367    0.027472
      2          1           0        1.874432   -1.606079   -0.170306
      3          6           0        2.554327    0.383815    0.231980
      4          1           0        3.542279    0.764904    0.438064
      5          6           0        1.359921    0.811740    0.108865
      6          6           0       -0.078015    0.782569   -0.112098
      7          8           0       -0.775597    1.757887   -0.072152
      8          8           0       -0.498571   -0.460906   -0.366255
      9          6           0       -1.918648   -0.621794   -0.586776
     10          6           0       -2.672016   -0.653015    0.727724
     11          1           0       -1.996574   -1.566842   -1.121029
     12          1           0       -2.262825    0.189598   -1.228679
     13          1           0       -3.728857   -0.848542    0.536495
     14          1           0       -2.285292   -1.445110    1.370548
     15          1           0       -2.587848    0.303264    1.244220
 ---------------------------------------------------------------------

 SCF Done:  E(UM062X) =  -419.978898176     A.U. after   19 cycles

 The electronic state is 2-A.
 Alpha  occ. eigenvalues --  -19.72164 -19.67565 -19.67179 -10.74125 -10.65535
 Alpha  occ. eigenvalues --  -10.62706 -10.61658 -10.55516  -1.29251  -1.19984
 Alpha  occ. eigenvalues --   -1.12523  -0.93467  -0.89151  -0.79981  -0.73246
 Alpha  occ. eigenvalues --   -0.66071  -0.63299  -0.59842  -0.58157  -0.55341
 Alpha  occ. eigenvalues --   -0.53734  -0.50770  -0.48717  -0.47997  -0.46235
 Alpha  occ. eigenvalues --   -0.43437  -0.42935  -0.40108  -0.39514  -0.35811
 Alpha  occ. eigenvalues --   -0.32026
 Alpha virt. eigenvalues --   -0.03464   0.01261   0.02768   0.02992   0.03716
 Alpha virt. eigenvalues --    0.04543   0.06071   0.06147   0.07485   0.07740
 Alpha virt. eigenvalues --    0.08162   0.08376   0.09407   0.11168   0.11472

  Beta  occ. eigenvalues --  -19.72115 -19.67478 -19.66623 -10.74178 -10.65705
  Beta  occ. eigenvalues --  -10.62695 -10.60936 -10.55516  -1.29083  -1.19762
  Beta  occ. eigenvalues --   -1.10645  -0.91873  -0.88245  -0.79741  -0.72490
  Beta  occ. eigenvalues --   -0.65873  -0.62694  -0.59548  -0.57776  -0.55084
  Beta  occ. eigenvalues --   -0.52111  -0.50509  -0.48013  -0.46555  -0.43759
  Beta  occ. eigenvalues --   -0.43069  -0.42385  -0.39759  -0.38983  -0.34260
  Beta virt. eigenvalues --   -0.08949  -0.03341   0.01189   0.02503   0.02941
  Beta virt. eigenvalues --    0.03822   0.04567   0.06161   0.06607   0.07117
  Beta virt. eigenvalues --    0.07703   0.08231   0.08552   0.09524   0.11071

 Mulliken charges and spin densities:
               1          2
     1  O   -0.541977   0.282564
     2  H    0.427492  -0.006000
     3  C   -0.367936  -0.241635
     4  H    0.260654   0.036683
     5  C    0.472010   0.891731
     6  C    0.111741   0.007719
     7  O   -0.374753   0.020659
     8  O   -0.298164   0.002814
     9  C   -0.245210   0.001223
    10  C   -0.573719   0.003545
    11  H    0.223872   0.000509
    12  H    0.237012  -0.000281
    13  H    0.211574   0.000305
    14  H    0.220996   0.000064
    15  H    0.236409   0.000101
 Sum of Mulliken charges =  -0.00000   1.00000

 Dipole moment (field-independent basis, Debye):
    X=             -2.2076    Y=             -0.7465    Z=             -0.2294  Tot=              2.3417
 Quadrupole moment (field-independent basis, Debye-Ang):
   XX=            -46.4060   YY=            -53.7936   ZZ=            -47.6531
   XY=             11.5573   XZ=              1.7392   YZ=              1.0752

  Exact polarizability:  90.338  -8.450  73.358   3.063   1.899  46.244
 Approx polarizability:  95.394 -19.335  91.305   4.466   2.970  48.767

 ******    4 imaginary frequencies (negative Signs) ******

                      1                      2                      3
                      A                      A                      A
 Frequencies --   -477.2584              -331.0024               -78.6514
 Red. masses --     11.7814                 1.0633                 6.9256
 Frc consts  --      1.5811                 0.0686                 0.0252
 IR Inten    --     65.9845               125.0012                 0.0323

                      4                      5                      6
                      A                      A                      A
 Frequencies --     -5.3813                61.9170               154.3105
 Red. masses --      2.7863                 4.7206                 5.5639
 Frc consts  --      0.0000                 0.0107                 0.0781
 IR Inten    --      1.5397                 1.5218                12.3297

                      7                      8                      9
                      A                      A                      A
 Frequencies --    177.0912               291.2735               317.3080
 Red. masses --      1.1968                 2.7739                 3.3336
 Frc consts  --      0.0221                 0.1387                 0.1978
 IR Inten    --      3.4601                14.1324                25.4314

                     10                     11                     12
                      A                      A                      A
 Frequencies --    345.3053               419.9256               564.5313
 Red. masses --      5.1567                 3.8438                 5.8880
 Frc consts  --      0.3623                 0.3994                 1.1056
 IR Inten    --      2.5296                 1.8674                 7.9742

                     13                     14                     15
                      A                      A                      A
 Frequencies --    601.3741               749.9820               813.8051
 Red. masses --      5.2088                11.4419                 1.3364
 Frc consts  --      1.1099                 3.7918                 0.5215
 IR Inten    --     13.3092                28.6253                11.3132

                     16                     17                     18
                      A                      A                      A
 Frequencies --    840.4240               888.8140               937.6981
 Red. masses --      1.3972                 2.8507                 2.5426
 Frc consts  --      0.5814                 1.3269                 1.3172
 IR Inten    --     35.8733                20.7694                 4.5698

                     19                     20                     21
                      A                      A                      A
 Frequencies --    999.2267              1102.1941              1154.5088
 Red. masses --      1.1473                 3.9065                 1.9934
 Frc consts  --      0.6749                 2.7961                 1.5655
 IR Inten    --     56.3201                 7.1812                15.9244

                     22                     23                     24
                      A                      A                      A
 Frequencies --   1176.1280              1226.7465              1305.9905
 Red. masses --      1.1567                 1.7519                 3.5924
 Frc consts  --      0.9427                 1.5533                 3.6100
 IR Inten    --     18.4322                 5.3195               441.1065

                     25                     26                     27
                      A                      A                      A
 Frequencies --   1363.5611              1440.5800              1457.9711
 Red. masses --      1.3073                 1.3105                 1.2507
 Frc consts  --      1.4321                 1.6024                 1.5663
 IR Inten    --    109.9924                10.6521                19.6018

                     28                     29                     30
                      A                      A                      A
 Frequencies --   1528.6129              1537.6238              1545.5290
 Red. masses --      1.0415                 1.0665                 1.0727
 Frc consts  --      1.4338                 1.4856                 1.5097
 IR Inten    --     16.2949                 3.2707                21.5017

                     31                     32                     33
                      A                      A                      A
 Frequencies --   1882.7883              1924.2665              3107.8594
 Red. masses --     10.0727                 9.3558                 1.0352
 Frc consts  --     21.0376                20.4109                 5.8909
 IR Inten    --    171.7337               313.6418                11.5355

                     34                     35                     36
                      A                      A                      A
 Frequencies --   3140.2960              3187.9686              3192.3435
 Red. masses --      1.0599                 1.1006                 1.1026
 Frc consts  --      6.1582                 6.5903                 6.6202
 IR Inten    --     17.5941                12.6177                 5.2739

                     37                     38                     39
                      A                      A                      A
 Frequencies --   3212.9666              3334.1090              3843.7388
 Red. masses --      1.1057                 1.1119                 1.0676
 Frc consts  --      6.7251                 7.2823                 9.2931
 IR Inten    --     14.1184                11.5092                29.5043

 - Thermochemistry -
 -------------------
 Temperature   298.150 Kelvin.  Pressure   1.00000 Atm.
 Atom     1 has atomic number  8 and mass  15.99491

 Molecular mass:   115.03952 amu.
 Principal axes and moments of inertia in atomic units:
                           1         2         3
     Eigenvalues --   482.857111565.344001902.50880
           X            0.99961   0.02726  -0.00542
           Y           -0.02726   0.99963  -0.00011
           Z            0.00541   0.00025   0.99999
 This molecule is an asymmetric top.
 Rotational symmetry number  1.
 Warning -- assumption of classical behavior for rotation
           may cause significant error
 Rotational temperatures (Kelvin)      0.17938     0.05533     0.04553
 Rotational constants (GHZ):           3.73763     1.15294     0.94861
    4 imaginary frequencies ignored.
 Zero-point vibrational energy     298042.2 (Joules/Mol)
                                   71.23380 (Kcal/Mol)
 Warning -- explicit consideration of   9 degrees of freedom as
           vibrations may cause significant error
 Vibrational temperatures:     89.08   222.02   254.79   419.08   456.54
          (Kelvin)            496.82   604.18   812.23   865.24  1079.06
                             1170.88  1209.18  1278.81  1349.14  1437.66
                             1585.81  1661.08  1692.19  1765.01  1879.03
                             1961.86  2072.67  2097.70  2199.33  2212.30
                             2223.67  2708.91  2768.59  4471.52  4518.19
                             4586.78  4593.07  4622.74  4797.04  5530.28

 Zero-point correction=                           0.113518 (Hartree/Particle)
 Thermal correction to Energy=                    0.120722
 Thermal correction to Enthalpy=                  0.121666
 Thermal correction to Gibbs Free Energy=         0.080442
 Sum of electronic and zero-point Energies=           -419.865380
 Sum of electronic and thermal Energies=              -419.858176
 Sum of electronic and thermal Enthalpies=            -419.857232
 Sum of electronic and thermal Free Energies=         -419.898456

                     E (Thermal)             CV                S
                      KCal/Mol        Cal/Mol-Kelvin    Cal/Mol-Kelvin
 Total                   75.754             25.077             86.763
 Electronic               0.000              0.000              1.377
 Translational            0.889              2.981             40.136
 Rotational               0.889              2.981             28.754
 Vibrational             73.977             19.115             16.495
 Vibration     1          0.597              1.972              4.395
 Vibration     2          0.620              1.898              2.618
 Vibration     3          0.628              1.871              2.359
 Vibration     4          0.687              1.690              1.467
 Vibration     5          0.704              1.641              1.324
 Vibration     6          0.724              1.585              1.188
 Vibration     7          0.783              1.427              0.892
 Vibration     8          0.920              1.108              0.515
 Vibration     9          0.960              1.029              0.447

 Normal termination of Gaussian 16 at Fri Jun 20 14:19:15 2025.
