 Gaussian 16, Revision A.03,
 Gaussian 16:  ES64L-G16RevA.03 25-Dec-2016

 --------------------------
 # ccsd(t)/6-311++g(d,p) sp
 --------------------------

 -------------------
 Title Card Required
 -------------------
 Symbolic Z-matrix:
 Charge =  0 Multiplicity = 2

                         Standard orientation:
 ---------------------------------------------------------------------
 Center     Atomic      Atomic             Coordinates (Angstroms)
 Number     Number       Type             X           Y           Z
 ---------------------------------------------------------------------
      1          8           0        2.779992   -1.393454    0.025008
      2          1           0        1.866813   -1.661442   -0.168255
      3          6           0        2.544638    0.556602    0.249982
      4          1           0        3.584709    0.718639    0.431229
      5          6           0        1.356709    0.791713    0.099327
      6          6           0       -0.081523    0.784263   -0.118029
      7          8           0       -0.779422    1.757292   -0.085465
      8          8           0       -0.498249   -0.462994   -0.362596
      9          6           0       -1.917593   -0.628461   -0.581831
     10          6           0       -2.671140   -0.651458    0.732802
     11          1           0       -1.993535   -1.577660   -1.108966
     12          1           0       -2.263837    0.177163   -1.229922
     13          1           0       -3.727581   -0.850414    0.543026
     14          1           0       -2.282829   -1.437816    1.381653
     15          1           0       -2.588851    0.308817    1.242140
 ---------------------------------------------------------------------

 SCF Done:  E(UHF) =  -417.981804903     A.U. after   33 cycles
 E2 =    -0.1253407647D+01 EUMP2 =    -0.41923521254970D+03
 CCSD(T)= -0.41935467255D+03

 The electronic state is 2-A.
 Alpha  occ. eigenvalues --  -20.62413 -20.61555 -20.57241 -11.42032 -11.30605
 Alpha  occ. eigenvalues --  -11.27410 -11.26945 -11.23308  -1.49225  -1.39486
 Alpha  occ. eigenvalues --   -1.37228  -1.09829  -1.04616  -0.92778  -0.84646
 Alpha  occ. eigenvalues --   -0.77496  -0.73855  -0.70790  -0.67575  -0.65723
 Alpha  occ. eigenvalues --   -0.64506  -0.63739  -0.59564  -0.56452  -0.55035
 Alpha  occ. eigenvalues --   -0.54520  -0.51566  -0.49426  -0.48228  -0.43359
 Alpha  occ. eigenvalues --   -0.42331
 Alpha virt. eigenvalues --    0.03706   0.04766   0.05465   0.05986   0.07456
 Alpha virt. eigenvalues --    0.08894   0.08964   0.09207   0.11360   0.12271
 Alpha virt. eigenvalues --    0.12727   0.13588   0.14668   0.15172   0.16922

  Beta  occ. eigenvalues --  -20.62369 -20.57871 -20.56754 -11.42428 -11.30590
  Beta  occ. eigenvalues --  -11.29335 -11.24696 -11.23308  -1.48910  -1.38655
  Beta  occ. eigenvalues --   -1.24122  -1.07578  -1.04577  -0.93429  -0.84365
  Beta  occ. eigenvalues --   -0.77274  -0.73494  -0.70173  -0.67145  -0.64091
  Beta  occ. eigenvalues --   -0.62134  -0.59097  -0.55484  -0.54889  -0.51469
  Beta  occ. eigenvalues --   -0.50950  -0.48436  -0.47064  -0.44729  -0.42553
  Beta virt. eigenvalues --    0.03683   0.04683   0.05368   0.05646   0.07114
  Beta virt. eigenvalues --    0.07474   0.08579   0.08937   0.10174   0.11853
  Beta virt. eigenvalues --    0.12638   0.13361   0.13803   0.14202   0.15022

 Mulliken charges and spin densities:
               1          2
     1  O   -0.248360   0.872934
     2  H    0.263117  -0.029399
     3  C   -2.260458  -0.972981
     4  H    0.205748   0.078184
     5  C    2.099381   0.987304
     6  C    0.062634  -0.032178
     7  O   -0.275093   0.097864
     8  O   -0.125142  -0.005498
     9  C   -0.177146   0.001638
    10  C   -0.346020   0.001625
    11  H    0.167355   0.000215
    12  H    0.180681  -0.000204
    13  H    0.135931   0.000262
    14  H    0.143525  -0.000067
    15  H    0.173846   0.000302
 Sum of Mulliken charges =  -0.00000   1.00000

 Dipole moment (field-independent basis, Debye):
    X=             -1.3844    Y=             -1.8281    Z=             -0.2775  Tot=              2.3099
 Quadrupole moment (field-independent basis, Debye-Ang):
   XX=            -43.1008   YY=            -52.3817   ZZ=            -47.3581
   XY=              8.2923   XZ=              1.6916   YZ=              1.0393

 874\PMP3-0=-419.2818773\MP4SDQ=-419.2931015\CCSD=-419.3004455\CCSD(T)=
 Normal termination of Gaussian 16 at Tue Aug  5 16:09:32 2025.
