 Gaussian 16, Revision A.03,
 Gaussian 16:  ES64L-G16RevA.03 25-Dec-2016

 --------------------------
 # freq 6-311++g(d,p) m062x
 --------------------------

 -------------------
 Title Card Required
 -------------------
 Symbolic Z-matrix:
 Charge =  0 Multiplicity = 2

                         Standard orientation:
 ---------------------------------------------------------------------
 Center     Atomic      Atomic             Coordinates (Angstroms)
 Number     Number       Type             X           Y           Z
 ---------------------------------------------------------------------
      1          8           0        2.794343   -1.516447    0.024481
      2          1           0        1.857322   -1.701872   -0.161033
      3          6           0        2.539685    0.739948    0.265540
      4          1           0        3.592275    0.748071    0.426723
      5          6           0        1.352438    0.799012    0.091510
      6          6           0       -0.084119    0.783785   -0.125933
      7          8           0       -0.786964    1.753156   -0.103696
      8          8           0       -0.498204   -0.468559   -0.358313
      9          6           0       -1.916419   -0.638390   -0.575412
     10          6           0       -2.670055   -0.649894    0.739519
     11          1           0       -1.992236   -1.592611   -1.093643
     12          1           0       -2.264567    0.160540   -1.230771
     13          1           0       -3.726298   -0.852261    0.552199
     14          1           0       -2.280348   -1.429240    1.396029
     15          1           0       -2.588729    0.315407    1.239379
 ---------------------------------------------------------------------

 SCF Done:  E(UM062X) =  -420.209125261     A.U. after   23 cycles

 The electronic state is 2-A.
 Alpha  occ. eigenvalues --  -19.69435 -19.66879 -19.64164 -10.71560 -10.61482
 Alpha  occ. eigenvalues --  -10.58356 -10.57500 -10.54520  -1.26569  -1.17414
 Alpha  occ. eigenvalues --   -1.12594  -0.91501  -0.87824  -0.78924  -0.71414
 Alpha  occ. eigenvalues --   -0.65425  -0.62060  -0.59464  -0.57367  -0.54788
 Alpha  occ. eigenvalues --   -0.54252  -0.50284  -0.49657  -0.47678  -0.46188
 Alpha  occ. eigenvalues --   -0.43003  -0.42422  -0.40001  -0.39443  -0.37696
 Alpha  occ. eigenvalues --   -0.35619
 Alpha virt. eigenvalues --   -0.02273  -0.00761   0.00796   0.01330   0.01668
 Alpha virt. eigenvalues --    0.02903   0.04639   0.04912   0.05037   0.06294
 Alpha virt. eigenvalues --    0.06626   0.07064   0.08120   0.09026   0.10397

  Beta  occ. eigenvalues --  -19.69432 -19.65318 -19.64148 -10.71570 -10.61481
  Beta  occ. eigenvalues --  -10.58361 -10.57393 -10.54520  -1.26545  -1.17372
  Beta  occ. eigenvalues --   -1.05040  -0.91225  -0.87594  -0.78869  -0.71304
  Beta  occ. eigenvalues --   -0.65381  -0.61812  -0.59397  -0.57310  -0.54469
  Beta  occ. eigenvalues --   -0.51554  -0.50202  -0.47634  -0.46231  -0.42961
  Beta  occ. eigenvalues --   -0.40314  -0.39677  -0.39542  -0.37479  -0.36761
  Beta virt. eigenvalues --   -0.08407  -0.02233  -0.00629   0.00990   0.01367
  Beta virt. eigenvalues --    0.01821   0.02957   0.04930   0.05023   0.05344
  Beta virt. eigenvalues --    0.06609   0.06703   0.07107   0.08267   0.09168

 Mulliken charges and spin densities:
               1          2
     1  O   -0.281050   0.921864
     2  H    0.251650  -0.017318
     3  C   -0.474581  -0.047246
     4  H    0.217927   0.010423
     5  C    0.926326   0.118475
     6  C   -0.619864   0.011666
     7  O   -0.204528   0.003073
     8  O   -0.027823  -0.002306
     9  C   -0.300192   0.001431
    10  C   -0.396088  -0.000065
    11  H    0.193321   0.000155
    12  H    0.197735  -0.000132
    13  H    0.167447   0.000065
    14  H    0.165357  -0.000123
    15  H    0.184363   0.000037
 Sum of Mulliken charges =  -0.00000   1.00000

 Dipole moment (field-independent basis, Debye):
    X=             -1.6543    Y=             -1.5558    Z=             -0.2332  Tot=              2.2829
 Quadrupole moment (field-independent basis, Debye-Ang):
   XX=            -42.9454   YY=            -52.0419   ZZ=            -47.5029
   XY=              8.5148   XZ=              1.5592   YZ=              1.0779

  Exact polarizability:  93.615  -2.617  70.023   3.123   1.355  50.198
 Approx polarizability: 104.277  -8.064  81.051   6.021   1.669  57.714

 ******    2 imaginary frequencies (negative Signs) ******

                      1                      2                      3
                      A                      A                      A
 Frequencies --    -55.5512               -35.9250                76.5593
 Red. masses --      6.1103                 6.5870                 3.3766
 Frc consts  --      0.0111                 0.0050                 0.0117
 IR Inten    --      5.2254                 1.0030                 1.4830

                      4                      5                      6
                      A                      A                      A
 Frequencies --    115.6169               177.0583               219.9149
 Red. masses --      3.5271                 3.4250                 1.1080
 Frc consts  --      0.0278                 0.0633                 0.0316
 IR Inten    --      1.5173                 4.5266                91.6121

                      7                      8                      9
                      A                      A                      A
 Frequencies --    226.9374               249.6556               262.5682
 Red. masses --      1.5191                 4.3975                 4.0530
 Frc consts  --      0.0461                 0.1615                 0.1646
 IR Inten    --     14.3882                 1.5973                 4.4727

                     10                     11                     12
                      A                      A                      A
 Frequencies --    338.3531               422.9575               569.6620
 Red. masses --      2.9321                 3.8632                 3.4375
 Frc consts  --      0.1978                 0.4072                 0.6572
 IR Inten    --      9.3032                 2.5751                 6.5925

                     13                     14                     15
                      A                      A                      A
 Frequencies --    605.3567               619.7170               767.5333
 Red. masses --      7.5054                 1.1421                 1.1631
 Frc consts  --      1.6205                 0.2584                 0.4037
 IR Inten    --      8.6797               148.6325                51.6168

                     16                     17                     18
                      A                      A                      A
 Frequencies --    778.6692               784.7452               802.0265
 Red. masses --      1.9428                 2.6690                 1.2444
 Frc consts  --      0.6941                 0.9684                 0.4716
 IR Inten    --      2.5137                56.9841                 8.0476

                     19                     20                     21
                      A                      A                      A
 Frequencies --    893.2093               929.4668              1074.2640
 Red. masses --      3.1558                 2.7875                 4.1666
 Frc consts  --      1.4834                 1.4189                 2.8330
 IR Inten    --     16.1499                 4.5299                23.9359

                     22                     23                     24
                      A                      A                      A
 Frequencies --   1127.7017              1203.1052              1269.4971
 Red. masses --      2.0730                 1.7790                 5.3553
 Frc consts  --      1.5532                 1.5171                 5.0851
 IR Inten    --     22.3673                 7.1207               597.1913

                     25                     26                     27
                      A                      A                      A
 Frequencies --   1346.5711              1402.2199              1431.4166
 Red. masses --      1.1636                 1.2577                 1.3583
 Frc consts  --      1.2431                 1.4570                 1.6397
 IR Inten    --     49.1357                17.3395                 8.5929

                     28                     29                     30
                      A                      A                      A
 Frequencies --   1493.4388              1502.7455              1514.7828
 Red. masses --      1.0405                 1.0623                 1.0807
 Frc consts  --      1.3673                 1.4134                 1.4611
 IR Inten    --     11.3785                 2.0568                17.1104

                     31                     32                     33
                      A                      A                      A
 Frequencies --   1850.3422              2244.2513              3075.7275
 Red. masses --     12.1042                 5.8615                 1.0354
 Frc consts  --     24.4169                17.3940                 5.7713
 IR Inten    --    367.5319                81.3638                 9.2150

                     34                     35                     36
                      A                      A                      A
 Frequencies --   3108.6947              3150.7923              3155.7990
 Red. masses --      1.0605                 1.1019                 1.1048
 Frc consts  --      6.0382                 6.4449                 6.4827
 IR Inten    --     16.9964                12.8290                 2.6977

                     37                     38                     39
                      A                      A                      A
 Frequencies --   3175.8307              3490.5311              3770.3613
 Red. masses --      1.1075                 1.1669                 1.0675
 Frc consts  --      6.5815                 8.3768                 8.9407
 IR Inten    --     12.7272                74.0533                28.2309

 - Thermochemistry -
 -------------------
 Temperature   298.150 Kelvin.  Pressure   1.00000 Atm.
 Atom     1 has atomic number  8 and mass  15.99491

 Molecular mass:   115.03952 amu.
 Principal axes and moments of inertia in atomic units:
                           1         2         3
     Eigenvalues --   536.470991570.855951959.87763
           X            0.99959   0.02811  -0.00578
           Y           -0.02811   0.99960  -0.00025
           Z            0.00577   0.00041   0.99998
 This molecule is an asymmetric top.
 Rotational symmetry number  1.
 Warning -- assumption of classical behavior for rotation
           may cause significant error
 Rotational temperatures (Kelvin)      0.16145     0.05514     0.04419
 Rotational constants (GHZ):           3.36410     1.14889     0.92084
    2 imaginary frequencies ignored.
 Zero-point vibrational energy     294449.3 (Joules/Mol)
                                   70.37507 (Kcal/Mol)
 Warning -- explicit consideration of  12 degrees of freedom as
           vibrations may cause significant error
 Vibrational temperatures:    110.15   166.35   254.75   316.41   326.51
          (Kelvin)            359.20   377.78   486.81   608.54   819.62
                              870.97   891.63  1104.31  1120.33  1129.07
                             1153.94  1285.13  1337.30  1545.63  1622.51
                             1731.00  1826.52  1937.42  2017.48  2059.49
                             2148.73  2162.12  2179.43  2662.23  3228.98
                             4425.29  4472.72  4533.29  4540.49  4569.31
                             5022.10  5424.71

 Zero-point correction=                           0.112150 (Hartree/Particle)
 Thermal correction to Energy=                    0.120773
 Thermal correction to Enthalpy=                  0.121717
 Thermal correction to Gibbs Free Energy=         0.077975
 Sum of electronic and zero-point Energies=           -420.096975
 Sum of electronic and thermal Energies=              -420.088352
 Sum of electronic and thermal Enthalpies=            -420.087408
 Sum of electronic and thermal Free Energies=         -420.131150

                     E (Thermal)             CV                S
                      KCal/Mol        Cal/Mol-Kelvin    Cal/Mol-Kelvin
 Total                   75.786             30.163             92.063
 Electronic               0.000              0.000              1.377
 Translational            0.889              2.981             40.136
 Rotational               0.889              2.981             28.892
 Vibrational             74.009             24.202             21.658
 Vibration     1          0.599              1.965              3.977
 Vibration     2          0.608              1.936              3.172
 Vibration     3          0.628              1.871              2.359
 Vibration     4          0.647              1.811              1.960
 Vibration     5          0.651              1.800              1.903
 Vibration     6          0.662              1.763              1.733
 Vibration     7          0.670              1.741              1.645
 Vibration     8          0.719              1.599              1.220
 Vibration     9          0.785              1.420              0.882
 Vibration    10          0.926              1.097              0.505
 Vibration    11          0.964              1.020              0.441
 Vibration    12          0.980              0.990              0.417

 1\1\GINC-AJ\Freq\UM062X\6-311++G(d,p)\C5H7O3(2)\AAYUSH\23-Jun-2025\0\\
 # freq 6-311++g(d,p) m062x\\Title Card Required\\0,2\O,2.794343,-1.516
 447,0.024481\H,1.857322,-1.701872,-0.161033\C,2.539685,0.739948,0.2655
 4\H,3.592275,0.748071,0.426723\C,1.352438,0.799012,0.09151\C,-0.084119
 ,0.783785,-0.125933\O,-0.786964,1.753156,-0.103696\O,-0.498204,-0.4685
 59,-0.358313\C,-1.916419,-0.63839,-0.575412\C,-2.670055,-0.649894,0.73
 9519\H,-1.992236,-1.592611,-1.093643\H,-2.264567,0.16054,-1.230771\H,-
 3.726298,-0.852261,0.552199\H,-2.280348,-1.42924,1.396029\H,-2.588729,

 Normal termination of Gaussian 16 at Mon Jun 23 06:50:42 2025.
