 Gaussian 16, Revision A.03,
 Gaussian 16:  ES64L-G16RevA.03 25-Dec-2016

 --------------------------
 # ccsd(t)/6-311++g(d,p) sp
 --------------------------

 -------------------
 Title Card Required
 -------------------
 Symbolic Z-matrix:
 Charge =  0 Multiplicity = 2

                         Standard orientation:
 ---------------------------------------------------------------------
 Center     Atomic      Atomic             Coordinates (Angstroms)
 Number     Number       Type             X           Y           Z
 ---------------------------------------------------------------------
      1          8           0        2.775180   -1.346114    0.025886
      2          1           0        1.869897   -1.632413   -0.169625
      3          6           0        2.550323    0.469835    0.241340
      4          1           0        3.568701    0.747332    0.436224
      5          6           0        1.357237    0.800160    0.103675
      6          6           0       -0.080469    0.783367   -0.115127
      7          8           0       -0.777309    1.757893   -0.078626
      8          8           0       -0.498246   -0.461600   -0.364350
      9          6           0       -1.918277   -0.624997   -0.584299
     10          6           0       -2.671592   -0.652191    0.730309
     11          1           0       -1.994748   -1.572083   -1.115021
     12          1           0       -2.263365    0.183540   -1.229320
     13          1           0       -3.728212   -0.849353    0.539676
     14          1           0       -2.284126   -1.441528    1.376011
     15          1           0       -2.588470    0.306028    1.243383
 ---------------------------------------------------------------------

 SCF Done:  E(UHF) =  -417.982307130     A.U. after   30 cycles
 E2 =    -0.1253578741D+01 EUMP2 =    -0.41923588587083D+03
 CCSD(T)= -0.41936064660D+03

 The electronic state is 2-A.
 Alpha  occ. eigenvalues --  -20.62500 -20.60643 -20.57455 -11.42062 -11.30675
 Alpha  occ. eigenvalues --  -11.28957 -11.27945 -11.23363  -1.49385  -1.39691
 Alpha  occ. eigenvalues --   -1.36099  -1.10467  -1.04755  -0.92833  -0.84998
 Alpha  occ. eigenvalues --   -0.77676  -0.73873  -0.70924  -0.67736  -0.65100
 Alpha  occ. eigenvalues --   -0.64154  -0.62455  -0.59683  -0.56660  -0.55098
 Alpha  occ. eigenvalues --   -0.53689  -0.51643  -0.49586  -0.48445  -0.43695
 Alpha  occ. eigenvalues --   -0.42771
 Alpha virt. eigenvalues --    0.03719   0.04830   0.05452   0.05986   0.07425
 Alpha virt. eigenvalues --    0.08870   0.08940   0.09193   0.11280   0.12198
 Alpha virt. eigenvalues --    0.12669   0.13561   0.14719   0.15109   0.16937

  Beta  occ. eigenvalues --  -20.62439 -20.57541 -20.56859 -11.42539 -11.31299
  Beta  occ. eigenvalues --  -11.30654 -11.25065 -11.23363  -1.48979  -1.38666
  Beta  occ. eigenvalues --   -1.25704  -1.07377  -1.04499  -0.93538  -0.84500
  Beta  occ. eigenvalues --   -0.77368  -0.73413  -0.70190  -0.67199  -0.64147
  Beta  occ. eigenvalues --   -0.61789  -0.59102  -0.55498  -0.54938  -0.51767
  Beta  occ. eigenvalues --   -0.51322  -0.48449  -0.47039  -0.46506  -0.42242
  Beta virt. eigenvalues --    0.03708   0.04781   0.05207   0.05529   0.06767
  Beta virt. eigenvalues --    0.07438   0.08332   0.08900   0.09964   0.11715
  Beta virt. eigenvalues --    0.12511   0.13446   0.13722   0.14165   0.15052

 Mulliken charges and spin densities:
               1          2
     1  O   -0.272251   0.731455
     2  H    0.262390  -0.023840
     3  C   -1.834690  -1.124574
     4  H    0.206950   0.086870
     5  C    1.798111   1.236434
     6  C   -0.041834  -0.027899
     7  O   -0.276940   0.120697
     8  O   -0.125412  -0.004821
     9  C   -0.171968   0.002997
    10  C   -0.345901   0.001869
    11  H    0.167404   0.000405
    12  H    0.180964  -0.000308
    13  H    0.135613   0.000356
    14  H    0.144037  -0.000080
    15  H    0.173527   0.000437
 Sum of Mulliken charges =  -0.00000   1.00000

 Dipole moment (field-independent basis, Debye):
    X=             -1.5750    Y=             -1.4148    Z=             -0.2542  Tot=              2.1323
 Quadrupole moment (field-independent basis, Debye-Ang):
   XX=            -44.1564   YY=            -52.6838   ZZ=            -47.2881
   XY=              9.4342   XZ=              1.7460   YZ=              1.0521

 P3-0=-419.2888212\MP4SDQ=-419.2956153\CCSD=-419.3055332\CCSD(T)=-419.3
 Normal termination of Gaussian 16 at Tue Aug  5 14:43:04 2025.
