 Gaussian 16, Revision A.03,
 Gaussian 16:  ES64L-G16RevA.03 25-Dec-2016

 -------------------
 # freq 6-31+g m062x
 -------------------

 -------------------
 Title Card Required
 -------------------
 Symbolic Z-matrix:
 Charge =  0 Multiplicity = 2

                         Standard orientation:
 ---------------------------------------------------------------------
 Center     Atomic      Atomic             Coordinates (Angstroms)
 Number     Number       Type             X           Y           Z
 ---------------------------------------------------------------------
      1          8           0        2.782904   -1.418440    0.024748
      2          1           0        1.865160   -1.673450   -0.167375
      3          6           0        2.542551    0.599457    0.254046
      4          1           0        3.589043    0.708751    0.428782
      5          6           0        1.355940    0.790101    0.097321
      6          6           0       -0.081888    0.784501   -0.119575
      7          8           0       -0.780739    1.756712   -0.089150
      8          8           0       -0.498381   -0.464010   -0.361722
      9          6           0       -1.917216   -0.630442   -0.580519
     10          6           0       -2.670878   -0.651198    0.734143
     11          1           0       -1.993178   -1.580709   -1.105820
     12          1           0       -2.264066    0.173726   -1.230129
     13          1           0       -3.727246   -0.851067    0.544900
     14          1           0       -2.282121   -1.436000    1.384638
     15          1           0       -2.588925    0.310153    1.241496
 ---------------------------------------------------------------------

 SCF Done:  E(UM062X) =  -419.959113579     A.U. after   23 cycles

 The electronic state is 2-A.
 Alpha  occ. eigenvalues --  -19.72046 -19.68137 -19.67538 -10.74154 -10.62642
 Alpha  occ. eigenvalues --  -10.61239 -10.60031 -10.55469  -1.29159  -1.19920
 Alpha  occ. eigenvalues --   -1.12680  -0.92785  -0.88894  -0.79732  -0.72411
 Alpha  occ. eigenvalues --   -0.65831  -0.62801  -0.59698  -0.58001  -0.55181
 Alpha  occ. eigenvalues --   -0.52994  -0.50658  -0.49477  -0.48079  -0.46350
 Alpha  occ. eigenvalues --   -0.43229  -0.41931  -0.40056  -0.39454  -0.37595
 Alpha  occ. eigenvalues --   -0.34372
 Alpha virt. eigenvalues --   -0.02653   0.01439   0.02758   0.03040   0.03810
 Alpha virt. eigenvalues --    0.04309   0.05531   0.06289   0.07144   0.07762
 Alpha virt. eigenvalues --    0.08184   0.08490   0.08782   0.10991   0.12015

  Beta  occ. eigenvalues --  -19.72032 -19.67500 -19.66648 -10.74178 -10.62639
  Beta  occ. eigenvalues --  -10.61310 -10.59782 -10.55469  -1.29100  -1.19834
  Beta  occ. eigenvalues --   -1.06656  -0.92194  -0.88541  -0.79624  -0.72155
  Beta  occ. eigenvalues --   -0.65759  -0.62432  -0.59585  -0.57861  -0.55066
  Beta  occ. eigenvalues --   -0.50773  -0.50113  -0.47993  -0.46440  -0.43163
  Beta  occ. eigenvalues --   -0.40582  -0.40079  -0.39612  -0.38344  -0.35740
  Beta virt. eigenvalues --   -0.09316  -0.02648   0.01477   0.02891   0.03079
  Beta virt. eigenvalues --    0.03994   0.04467   0.06094   0.06449   0.07254
  Beta virt. eigenvalues --    0.07909   0.08155   0.08643   0.09041   0.11166

 Mulliken charges and spin densities:
               1          2
     1  O   -0.485206   0.817905
     2  H    0.422920  -0.028947
     3  C   -0.162531  -0.175000
     4  H    0.318508   0.016301
     5  C    0.534203   0.343413
     6  C   -0.285544   0.017397
     7  O   -0.365164   0.010131
     8  O   -0.274551  -0.002136
     9  C   -0.262199  -0.000590
    10  C   -0.569545   0.001159
    11  H    0.223084   0.000249
    12  H    0.236484  -0.000011
    13  H    0.211665   0.000086
    14  H    0.220742   0.000013
    15  H    0.237136   0.000027
 Sum of Mulliken charges =  -0.00000   1.00000

 Dipole moment (field-independent basis, Debye):
    X=             -2.0199    Y=             -1.2195    Z=             -0.2590  Tot=              2.3737
 Quadrupole moment (field-independent basis, Debye-Ang):
   XX=            -44.6886   YY=            -52.9764   ZZ=            -47.6365
   XY=              9.9953   XZ=              1.6378   YZ=              1.0992

  Exact polarizability:  91.246  -9.390  76.516   3.165   1.980  46.048
 Approx polarizability:  99.407 -16.536  84.468   5.734   2.181  48.143

 ******    4 imaginary frequencies (negative Signs) ******

                      1                      2                      3
                      A                      A                      A
 Frequencies --   -442.0017              -414.9504              -116.5085
 Red. masses --     12.4007                 1.0694                 7.9531
 Frc consts  --      1.4274                 0.1085                 0.0636
 IR Inten    --     37.2378               146.8004                 1.9901

                      4                      5                      6
                      A                      A                      A
 Frequencies --    -92.1672                23.4026                48.5052
 Red. masses --      5.4932                 3.0513                 3.0450
 Frc consts  --      0.0275                 0.0010                 0.0042
 IR Inten    --      2.3827                 6.0572                 5.3963

                      7                      8                      9
                      A                      A                      A
 Frequencies --    167.5690               207.7237               234.6075
 Red. masses --      1.5146                 2.9297                 4.0518
 Frc consts  --      0.0251                 0.0745                 0.1314
 IR Inten    --      5.4271                 4.4177                 1.6476

                     10                     11                     12
                      A                      A                      A
 Frequencies --    312.5417               416.2255               571.9587
 Red. masses --      2.9943                 3.7939                 2.8390
 Frc consts  --      0.1723                 0.3872                 0.5472
 IR Inten    --     11.4966                 4.2873                25.1653

                     13                     14                     15
                      A                      A                      A
 Frequencies --    597.6155               621.8361               769.2942
 Red. masses --      4.6097                 1.4918                 4.0417
 Frc consts  --      0.9700                 0.3399                 1.4093
 IR Inten    --     37.9244               141.9185                60.4253

                     16                     17                     18
                      A                      A                      A
 Frequencies --    813.8510               823.3876               825.8610
 Red. masses --      1.2447                 1.2263                 1.4621
 Frc consts  --      0.4857                 0.4898                 0.5875
 IR Inten    --      2.7103                48.3562                28.3443

                     19                     20                     21
                      A                      A                      A
 Frequencies --    896.3049               945.6985              1108.7229
 Red. masses --      3.1848                 2.6315                 4.2457
 Frc consts  --      1.5075                 1.3866                 3.0750
 IR Inten    --     20.6733                 4.9123                 5.8842

                     22                     23                     24
                      A                      A                      A
 Frequencies --   1156.2719              1226.9643              1307.9514
 Red. masses --      2.0506                 1.7595                 3.5158
 Frc consts  --      1.6153                 1.5606                 3.5438
 IR Inten    --     18.0052                 9.3157               467.0990

                     25                     26                     27
                      A                      A                      A
 Frequencies --   1364.3516              1441.2361              1457.8141
 Red. masses --      1.3204                 1.3161                 1.2524
 Frc consts  --      1.4481                 1.6107                 1.5682
 IR Inten    --    119.6013                14.7183                18.7525

                     28                     29                     30
                      A                      A                      A
 Frequencies --   1528.5028              1537.2240              1545.2929
 Red. masses --      1.0415                 1.0675                 1.0722
 Frc consts  --      1.4336                 1.4863                 1.5085
 IR Inten    --     16.0247                 3.7692                22.5262

                     31                     32                     33
                      A                      A                      A
 Frequencies --   1915.2128              2223.4408              3108.1746
 Red. masses --     12.3023                 6.0722                 1.0352
 Frc consts  --     26.5872                17.6867                 5.8921
 IR Inten    --    351.6635                88.6350                11.6765

                     34                     35                     36
                      A                      A                      A
 Frequencies --   3139.6628              3188.0598              3192.2701
 Red. masses --      1.0599                 1.1008                 1.1024
 Frc consts  --      6.1559                 6.5922                 6.6190
 IR Inten    --     18.0332                11.8698                 6.2829

                     37                     38                     39
                      A                      A                      A
 Frequencies --   3212.7669              3503.0991              3802.9523
 Red. masses --      1.1055                 1.1590                 1.0676
 Frc consts  --      6.7233                 8.3796                 9.0971
 IR Inten    --     14.4146                67.2906                14.2290

 - Thermochemistry -
 -------------------
 Temperature   298.150 Kelvin.  Pressure   1.00000 Atm.
 Atom     1 has atomic number  8 and mass  15.99491

 Molecular mass:   115.03952 amu.
 Principal axes and moments of inertia in atomic units:
                           1         2         3
     Eigenvalues --   510.556011567.643361931.54267
           X            0.99962   0.02708  -0.00564
           Y           -0.02708   0.99963  -0.00034
           Z            0.00563   0.00050   0.99998
 This molecule is an asymmetric top.
 Rotational symmetry number  1.
 Warning -- assumption of classical behavior for rotation
           may cause significant error
 Rotational temperatures (Kelvin)      0.16965     0.05525     0.04484
 Rotational constants (GHZ):           3.53485     1.15124     0.93435
    4 imaginary frequencies ignored.
 Zero-point vibrational energy     294498.8 (Joules/Mol)
                                   70.38690 (Kcal/Mol)
 Warning -- explicit consideration of   9 degrees of freedom as
           vibrations may cause significant error
 Vibrational temperatures:     33.67    69.79   241.09   298.87   337.55
          (Kelvin)            449.68   598.86   822.92   859.84   894.68
                             1106.84  1170.95  1184.67  1188.23  1289.58
                             1360.65  1595.21  1663.62  1765.33  1881.85
                             1963.00  2073.62  2097.47  2199.17  2211.72
                             2223.33  2755.56  3199.04  4471.97  4517.27
                             4586.91  4592.96  4622.45  5040.18  5471.60

 Zero-point correction=                           0.112169 (Hartree/Particle)
 Thermal correction to Energy=                    0.120096
 Thermal correction to Enthalpy=                  0.121040
 Thermal correction to Gibbs Free Energy=         0.076924
 Sum of electronic and zero-point Energies=           -419.846945
 Sum of electronic and thermal Energies=              -419.839018
 Sum of electronic and thermal Enthalpies=            -419.838074
 Sum of electronic and thermal Free Energies=         -419.882190

                     E (Thermal)             CV                S
                      KCal/Mol        Cal/Mol-Kelvin    Cal/Mol-Kelvin
 Total                   75.361             26.479             92.851
 Electronic               0.000              0.000              1.377
 Translational            0.889              2.981             40.136
 Rotational               0.889              2.981             28.826
 Vibrational             73.584             20.518             22.511
 Vibration     1          0.593              1.985              6.322
 Vibration     2          0.595              1.978              4.877
 Vibration     3          0.624              1.882              2.463
 Vibration     4          0.641              1.829              2.064
 Vibration     5          0.654              1.788              1.843
 Vibration     6          0.701              1.650              1.349
 Vibration     7          0.779              1.435              0.905
 Vibration     8          0.928              1.092              0.500
 Vibration     9          0.956              1.037              0.454

 Normal termination of Gaussian 16 at Fri Jun 20 14:20:04 2025.
