 Gaussian 16, Revision A.03,
 Gaussian 16:  ES64L-G16RevA.03 25-Dec-2016

 --------------------------
 # ccsd(t)/6-311++g(d,p) sp
 --------------------------

 -------------------
 Title Card Required
 -------------------
 Symbolic Z-matrix:
 Charge =  0 Multiplicity = 2

                         Standard orientation:
 ---------------------------------------------------------------------
 Center     Atomic      Atomic             Coordinates (Angstroms)
 Number     Number       Type             X           Y           Z
 ---------------------------------------------------------------------
      1          8           0        2.786166   -1.444803    0.024554
      2          1           0        1.862963   -1.682822   -0.165941
      3          6           0        2.541211    0.641399    0.257829
      4          1           0        3.591348    0.706964    0.426972
      5          6           0        1.354834    0.790291    0.095413
      6          6           0       -0.082338    0.784488   -0.121237
      7          8           0       -0.782195    1.755936   -0.093021
      8          8           0       -0.498542   -0.465216   -0.360826
      9          6           0       -1.916936   -0.632520   -0.579148
     10          6           0       -2.670624   -0.650926    0.735583
     11          1           0       -1.993025   -1.583816   -1.102642
     12          1           0       -2.264282    0.170270   -1.230224
     13          1           0       -3.726948   -0.851586    0.546911
     14          1           0       -2.281491   -1.434229    1.387685
     15          1           0       -2.588881    0.311487    1.240945
 ---------------------------------------------------------------------

 SCF Done:  E(UHF) =  -417.986713345     A.U. after   33 cycles
 E2 =    -0.1256892926D+01 EUMP2 =    -0.41924360627160D+03
 CCSD(T)= -0.41935513598D+03

 The electronic state is 2-A.
 Alpha  occ. eigenvalues --  -20.62397 -20.62083 -20.57122 -11.42073 -11.30577
 Alpha  occ. eigenvalues --  -11.26871 -11.26390 -11.23284  -1.49136  -1.39344
 Alpha  occ. eigenvalues --   -1.37768  -1.09371  -1.04553  -0.92860  -0.84518
 Alpha  occ. eigenvalues --   -0.77399  -0.73790  -0.70701  -0.67480  -0.66484
 Alpha  occ. eigenvalues --   -0.64760  -0.64134  -0.59481  -0.56298  -0.55025
 Alpha  occ. eigenvalues --   -0.54930  -0.51520  -0.49320  -0.48059  -0.43124
 Alpha  occ. eigenvalues --   -0.42132
 Alpha virt. eigenvalues --    0.03693   0.04699   0.05469   0.05985   0.07474
 Alpha virt. eigenvalues --    0.08854   0.08922   0.09204   0.11347   0.12292
 Alpha virt. eigenvalues --    0.12742   0.13592   0.14592   0.15202   0.16624

  Beta  occ. eigenvalues --  -20.62368 -20.58129 -20.56749 -11.42373 -11.30566
  Beta  occ. eigenvalues --  -11.28267 -11.24750 -11.23284  -1.48906  -1.38713
  Beta  occ. eigenvalues --   -1.23226  -1.07782  -1.04573  -0.93375  -0.84357
  Beta  occ. eigenvalues --   -0.77246  -0.73520  -0.70217  -0.67155  -0.64108
  Beta  occ. eigenvalues --   -0.62381  -0.59128  -0.55542  -0.54887  -0.51420
  Beta  occ. eigenvalues --   -0.50626  -0.48553  -0.47182  -0.43797  -0.42667
  Beta virt. eigenvalues --    0.03666   0.04633   0.05407   0.05733   0.07376
  Beta virt. eigenvalues --    0.07571   0.08605   0.08957   0.10406   0.11968
  Beta virt. eigenvalues --    0.12703   0.13098   0.13832   0.14284   0.15071

 Mulliken charges and spin densities:
               1          2
     1  O   -0.246525   0.942012
     2  H    0.262061  -0.032789
     3  C   -2.675232  -0.759502
     4  H    0.197416   0.061738
     5  C    2.461333   0.742703
     6  C    0.124125  -0.026487
     7  O   -0.273706   0.074396
     8  O   -0.119054  -0.004527
     9  C   -0.184509   0.000848
    10  C   -0.347989   0.001260
    11  H    0.167451   0.000132
    12  H    0.180759  -0.000099
    13  H    0.136391   0.000174
    14  H    0.143398  -0.000052
    15  H    0.174081   0.000193
 Sum of Mulliken charges =  -0.00000   1.00000

 Dipole moment (field-independent basis, Debye):
    X=             -1.2857    Y=             -2.0484    Z=             -0.2863  Tot=              2.4354
 Quadrupole moment (field-independent basis, Debye-Ang):
   XX=            -42.5409   YY=            -52.3224   ZZ=            -47.4191
   XY=              7.7468   XZ=              1.6564   YZ=              1.0423

 Normal termination of Gaussian 16 at Wed Aug  6 03:09:28 2025.
