 Gaussian 16, Revision A.03,
 Gaussian 16:  ES64L-G16RevA.03 25-Dec-2016

 --------------------------
 # freq 6-311++g(d,p) m062x
 --------------------------

 -------------------
 Title Card Required
 -------------------
 Symbolic Z-matrix:
 Charge =  0 Multiplicity = 2

                         Standard orientation:
 ---------------------------------------------------------------------
 Center     Atomic      Atomic             Coordinates (Angstroms)
 Number     Number       Type             X           Y           Z
 ---------------------------------------------------------------------
      1          8           0        2.797090   -1.546730    0.024586
      2          1           0        1.855245   -1.709571   -0.158878
      3          6           0        2.538813    0.776337    0.267901
      4          1           0        3.591620    0.781765    0.428519
      5          6           0        1.351770    0.805876    0.090336
      6          6           0       -0.084905    0.783738   -0.127829
      7          8           0       -0.789867    1.751653   -0.108308
      8          8           0       -0.497198   -0.469833   -0.357065
      9          6           0       -1.915625   -0.641153   -0.573799
     10          6           0       -2.669653   -0.649626    0.740997
     11          1           0       -1.990831   -1.596746   -1.089574
     12          1           0       -2.264073    0.155894   -1.231252
     13          1           0       -3.725794   -0.852654    0.553785
     14          1           0       -2.280056   -1.427326    1.399521
     15          1           0       -2.588711    0.316891    1.238545
 ---------------------------------------------------------------------

 SCF Done:  E(UM062X) =  -420.210114517     A.U. after   23 cycles

 The electronic state is 2-A.
 Alpha  occ. eigenvalues --  -19.69439 -19.67090 -19.64150 -10.71552 -10.61485
 Alpha  occ. eigenvalues --  -10.58230 -10.57439 -10.54522  -1.26559  -1.17397
 Alpha  occ. eigenvalues --   -1.12710  -0.91435  -0.87791  -0.78899  -0.71382
 Alpha  occ. eigenvalues --   -0.65410  -0.61950  -0.59453  -0.57354  -0.54875
 Alpha  occ. eigenvalues --   -0.54327  -0.50281  -0.49648  -0.47672  -0.46191
 Alpha  occ. eigenvalues --   -0.43002  -0.42479  -0.40024  -0.39461  -0.37730
 Alpha  occ. eigenvalues --   -0.35854
 Alpha virt. eigenvalues --   -0.02261  -0.00768   0.00792   0.01330   0.01664
 Alpha virt. eigenvalues --    0.02912   0.04624   0.04774   0.05018   0.06299
 Alpha virt. eigenvalues --    0.06630   0.07065   0.08096   0.09047   0.10399

  Beta  occ. eigenvalues --  -19.69437 -19.65516 -19.64137 -10.71560 -10.61484
  Beta  occ. eigenvalues --  -10.58230 -10.57349 -10.54522  -1.26540  -1.17363
  Beta  occ. eigenvalues --   -1.04989  -0.91205  -0.87594  -0.78853  -0.71292
  Beta  occ. eigenvalues --   -0.65375  -0.61744  -0.59395  -0.57307  -0.54461
  Beta  occ. eigenvalues --   -0.51667  -0.50211  -0.47635  -0.46227  -0.42964
  Beta  occ. eigenvalues --   -0.40321  -0.39627  -0.39511  -0.37393  -0.36924
  Beta virt. eigenvalues --   -0.08395  -0.02223  -0.00632   0.00970   0.01367
  Beta virt. eigenvalues --    0.01820   0.02961   0.04878   0.05007   0.05208
  Beta virt. eigenvalues --    0.06563   0.06707   0.07105   0.08228   0.09196

 Mulliken charges and spin densities:
               1          2
     1  O   -0.278543   0.937788
     2  H    0.251162  -0.018021
     3  C   -0.462075  -0.038773
     4  H    0.218098   0.008872
     5  C    0.909202   0.099269
     6  C   -0.619018   0.009323
     7  O   -0.204289   0.002448
     8  O   -0.026857  -0.002138
     9  C   -0.299798   0.001410
    10  C   -0.396414  -0.000135
    11  H    0.193338   0.000127
    12  H    0.197968  -0.000135
    13  H    0.167419   0.000057
    14  H    0.165358  -0.000117
    15  H    0.184451   0.000025
 Sum of Mulliken charges =  -0.00000   1.00000

 Dipole moment (field-independent basis, Debye):
    X=             -1.6524    Y=             -1.5614    Z=             -0.2308  Tot=              2.2850
 Quadrupole moment (field-independent basis, Debye-Ang):
   XX=            -42.9626   YY=            -52.0329   ZZ=            -47.5156
   XY=              8.5929   XZ=              1.5434   YZ=              1.1046

  Exact polarizability:  93.361  -1.476  68.638   3.235   1.277  50.203
 Approx polarizability: 104.196  -6.799  79.715   6.183   1.644  57.682

 ******    2 imaginary frequencies (negative Signs) ******

                      1                      2                      3
                      A                      A                      A
 Frequencies --    -46.2034               -33.8773                77.5841
 Red. masses --      6.1402                 6.6517                 3.4077
 Frc consts  --      0.0077                 0.0045                 0.0121
 IR Inten    --      5.0859                 1.2426                 1.6162

                      4                      5                      6
                      A                      A                      A
 Frequencies --    115.6608               172.2544               209.5014
 Red. masses --      3.5043                 3.5408                 1.0726
 Frc consts  --      0.0276                 0.0619                 0.0277
 IR Inten    --      1.8786                 3.5883               104.6597

                      7                      8                      9
                      A                      A                      A
 Frequencies --    226.0595               249.0365               263.8379
 Red. masses --      1.5191                 4.2786                 4.1395
 Frc consts  --      0.0457                 0.1563                 0.1698
 IR Inten    --      4.1092                 1.5051                 3.3122

                     10                     11                     12
                      A                      A                      A
 Frequencies --    338.9059               422.7805               563.5748
 Red. masses --      2.9322                 3.8627                 2.2103
 Frc consts  --      0.1984                 0.4068                 0.4136
 IR Inten    --      9.1998                 2.6362                33.9016

                     13                     14                     15
                      A                      A                      A
 Frequencies --    592.1178               607.8710               758.5241
 Red. masses --      1.4075                 6.8568                 1.1998
 Frc consts  --      0.2908                 1.4928                 0.4067
 IR Inten    --    119.4659                18.2355                47.5470

                     16                     17                     18
                      A                      A                      A
 Frequencies --    778.9685               784.8898               801.8660
 Red. masses --      1.8857                 2.7620                 1.2479
 Frc consts  --      0.6742                 1.0025                 0.4728
 IR Inten    --      3.2096                56.5273                 7.3878

                     19                     20                     21
                      A                      A                      A
 Frequencies --    893.2788               928.9614              1073.7316
 Red. masses --      3.1550                 2.7962                 4.1616
 Frc consts  --      1.4833                 1.4217                 2.8268
 IR Inten    --     16.0538                 4.4443                24.6834

                     22                     23                     24
                      A                      A                      A
 Frequencies --   1127.5493              1203.0343              1270.3837
 Red. masses --      2.0719                 1.7788                 5.3073
 Frc consts  --      1.5520                 1.5168                 5.0465
 IR Inten    --     22.4555                 6.7549               600.4592

                     25                     26                     27
                      A                      A                      A
 Frequencies --   1346.5199              1402.1712              1431.3243
 Red. masses --      1.1648                 1.2585                 1.3586
 Frc consts  --      1.2443                 1.4578                 1.6399
 IR Inten    --     50.4505                17.6839                 8.6700

                     28                     29                     30
                      A                      A                      A
 Frequencies --   1493.3670              1502.6624              1514.6799
 Red. masses --      1.0405                 1.0625                 1.0806
 Frc consts  --      1.3672                 1.4135                 1.4607
 IR Inten    --     11.2300                 2.1445                17.1206

                     31                     32                     33
                      A                      A                      A
 Frequencies --   1850.1508              2251.0467              3075.7966
 Red. masses --     12.1055                 5.8251                 1.0355
 Frc consts  --     24.4145                17.3908                 5.7716
 IR Inten    --    362.4757                81.3549                 9.2354

                     34                     35                     36
                      A                      A                      A
 Frequencies --   3108.9386              3150.8291              3155.9661
 Red. masses --      1.0605                 1.1018                 1.1048
 Frc consts  --      6.0391                 6.4448                 6.4835
 IR Inten    --     16.9949                12.9806                 2.5520

                     37                     38                     39
                      A                      A                      A
 Frequencies --   3176.0223              3490.7107              3768.0702
 Red. masses --      1.1076                 1.1682                 1.0674
 Frc consts  --      6.5824                 8.3870                 8.9297
 IR Inten    --     12.8136                73.2491                28.4701

 - Thermochemistry -
 -------------------
 Temperature   298.150 Kelvin.  Pressure   1.00000 Atm.
 Atom     1 has atomic number  8 and mass  15.99491

 Molecular mass:   115.03952 amu.
 Principal axes and moments of inertia in atomic units:
                           1         2         3
     Eigenvalues --   544.883571571.485541968.73368
           X            0.99957   0.02873  -0.00580
           Y           -0.02873   0.99959  -0.00012
           Z            0.00580   0.00029   0.99998
 This molecule is an asymmetric top.
 Rotational symmetry number  1.
 Warning -- assumption of classical behavior for rotation
           may cause significant error
 Rotational temperatures (Kelvin)      0.15896     0.05512     0.04399
 Rotational constants (GHZ):           3.31216     1.14843     0.91670
    2 imaginary frequencies ignored.
 Zero-point vibrational energy     294153.5 (Joules/Mol)
                                   70.30438 (Kcal/Mol)
 Warning -- explicit consideration of  12 degrees of freedom as
           vibrations may cause significant error
 Vibrational temperatures:    111.63   166.41   247.84   301.43   325.25
          (Kelvin)            358.31   379.60   487.61   608.29   810.86
                              851.93   874.59  1091.35  1120.76  1129.28
                             1153.71  1285.23  1336.57  1544.86  1622.29
                             1730.90  1827.80  1937.34  2017.41  2059.36
                             2148.62  2162.00  2179.29  2661.95  3238.75
                             4425.39  4473.07  4533.34  4540.73  4569.59
                             5022.35  5421.41

 Zero-point correction=                           0.112037 (Hartree/Particle)
 Thermal correction to Energy=                    0.120702
 Thermal correction to Enthalpy=                  0.121647
 Thermal correction to Gibbs Free Energy=         0.077811
 Sum of electronic and zero-point Energies=           -420.098077
 Sum of electronic and thermal Energies=              -420.089412
 Sum of electronic and thermal Enthalpies=            -420.088468
 Sum of electronic and thermal Free Energies=         -420.132304

                     E (Thermal)             CV                S
                      KCal/Mol        Cal/Mol-Kelvin    Cal/Mol-Kelvin
 Total                   75.742             30.266             92.260
 Electronic               0.000              0.000              1.377
 Translational            0.889              2.981             40.136
 Rotational               0.889              2.981             28.912
 Vibrational             73.964             24.304             21.835
 Vibration     1          0.599              1.964              3.951
 Vibration     2          0.608              1.936              3.172
 Vibration     3          0.626              1.877              2.411
 Vibration     4          0.642              1.826              2.048
 Vibration     5          0.650              1.801              1.910
 Vibration     6          0.662              1.764              1.737
 Vibration     7          0.670              1.739              1.636
 Vibration     8          0.719              1.598              1.217
 Vibration     9          0.785              1.421              0.883
 Vibration    10          0.919              1.110              0.517
 Vibration    11          0.950              1.049              0.463
 Vibration    12          0.967              1.015              0.436

 1\1\GINC-AJ\Freq\UM062X\6-311++G(d,p)\C5H7O3(2)\AAYUSH\23-Jun-2025\0\\
 # freq 6-311++g(d,p) m062x\\Title Card Required\\0,2\O,2.79709,-1.5467
 3,0.024586\H,1.855245,-1.709571,-0.158878\C,2.538813,0.776337,0.267901
 \H,3.59162,0.781765,0.428519\C,1.35177,0.805876,0.090336\C,-0.084905,0
 .783738,-0.127829\O,-0.789867,1.751653,-0.108308\O,-0.497198,-0.469833
 ,-0.357065\C,-1.915625,-0.641153,-0.573799\C,-2.669653,-0.649626,0.740
 997\H,-1.990831,-1.596746,-1.089574\H,-2.264073,0.155894,-1.231252\H,-
 3.725794,-0.852654,0.553785\H,-2.280056,-1.427326,1.399521\H,-2.588711

 Normal termination of Gaussian 16 at Mon Jun 23 06:53:05 2025.
