 Gaussian 16, Revision A.03,
 Gaussian 16:  ES64L-G16RevA.03 25-Dec-2016

 --------------------------
 # freq 6-311++g(d,p) m062x
 --------------------------

 -------------------
 Title Card Required
 -------------------
 Symbolic Z-matrix:
 Charge =  0 Multiplicity = 2

                         Standard orientation:
 ---------------------------------------------------------------------
 Center     Atomic      Atomic             Coordinates (Angstroms)
 Number     Number       Type             X           Y           Z
 ---------------------------------------------------------------------
      1          8           0        2.794343   -1.516447    0.024481
      2          1           0        1.857322   -1.701872   -0.161033
      3          6           0        2.539685    0.739948    0.265540
      4          1           0        3.592275    0.748071    0.426723
      5          6           0        1.352438    0.799012    0.091510
      6          6           0       -0.084119    0.783785   -0.125933
      7          8           0       -0.786964    1.753156   -0.103696
      8          8           0       -0.498204   -0.468559   -0.358313
      9          6           0       -1.916419   -0.638390   -0.575412
     10          6           0       -2.670055   -0.649894    0.739519
     11          1           0       -1.992236   -1.592611   -1.093643
     12          1           0       -2.264567    0.160540   -1.230771
     13          1           0       -3.726298   -0.852261    0.552199
     14          1           0       -2.280348   -1.429240    1.396029
     15          1           0       -2.588729    0.315407    1.239379
 ---------------------------------------------------------------------

 SCF Done:  E(UM062X) =  -420.209125267     A.U. after   23 cycles

 The electronic state is 2-A.
 Alpha  occ. eigenvalues --  -19.69435 -19.66879 -19.64164 -10.71560 -10.61482
 Alpha  occ. eigenvalues --  -10.58356 -10.57500 -10.54520  -1.26569  -1.17414
 Alpha  occ. eigenvalues --   -1.12594  -0.91501  -0.87824  -0.78924  -0.71414
 Alpha  occ. eigenvalues --   -0.65425  -0.62060  -0.59464  -0.57367  -0.54788
 Alpha  occ. eigenvalues --   -0.54252  -0.50284  -0.49657  -0.47678  -0.46188
 Alpha  occ. eigenvalues --   -0.43003  -0.42422  -0.40001  -0.39443  -0.37696
 Alpha  occ. eigenvalues --   -0.35619
 Alpha virt. eigenvalues --   -0.02273  -0.00761   0.00796   0.01330   0.01668
 Alpha virt. eigenvalues --    0.02903   0.04639   0.04912   0.05037   0.06294
 Alpha virt. eigenvalues --    0.06626   0.07064   0.08120   0.09026   0.10397

  Beta  occ. eigenvalues --  -19.69432 -19.65318 -19.64148 -10.71570 -10.61481
  Beta  occ. eigenvalues --  -10.58361 -10.57393 -10.54520  -1.26545  -1.17372
  Beta  occ. eigenvalues --   -1.05040  -0.91225  -0.87594  -0.78869  -0.71304
  Beta  occ. eigenvalues --   -0.65381  -0.61812  -0.59397  -0.57310  -0.54469
  Beta  occ. eigenvalues --   -0.51554  -0.50202  -0.47634  -0.46231  -0.42961
  Beta  occ. eigenvalues --   -0.40314  -0.39677  -0.39542  -0.37479  -0.36761
  Beta virt. eigenvalues --   -0.08407  -0.02233  -0.00629   0.00990   0.01367
  Beta virt. eigenvalues --    0.01821   0.02957   0.04930   0.05023   0.05344
  Beta virt. eigenvalues --    0.06609   0.06703   0.07107   0.08267   0.09168

 Mulliken charges and spin densities:
               1          2
     1  O   -0.281050   0.921864
     2  H    0.251650  -0.017318
     3  C   -0.474579  -0.047246
     4  H    0.217927   0.010423
     5  C    0.926324   0.118475
     6  C   -0.619865   0.011666
     7  O   -0.204528   0.003073
     8  O   -0.027823  -0.002306
     9  C   -0.300192   0.001431
    10  C   -0.396088  -0.000065
    11  H    0.193321   0.000155
    12  H    0.197735  -0.000132
    13  H    0.167447   0.000065
    14  H    0.165357  -0.000123
    15  H    0.184363   0.000037
 Sum of Mulliken charges =  -0.00000   1.00000

 Dipole moment (field-independent basis, Debye):
    X=             -1.6543    Y=             -1.5558    Z=             -0.2332  Tot=              2.2829
 Quadrupole moment (field-independent basis, Debye-Ang):
   XX=            -42.9454   YY=            -52.0419   ZZ=            -47.5029
   XY=              8.5148   XZ=              1.5591   YZ=              1.0779

  Exact polarizability:  93.615  -2.617  70.023   3.123   1.355  50.198
 Approx polarizability: 104.277  -8.064  81.051   6.021   1.669  57.714

 ******    2 imaginary frequencies (negative Signs) ******

                      1                      2                      3
                      A                      A                      A
 Frequencies --    -55.5513               -35.9244                76.5595
 Red. masses --      6.1102                 6.5871                 3.3766
 Frc consts  --      0.0111                 0.0050                 0.0117
 IR Inten    --      5.2252                 1.0030                 1.4831

                      4                      5                      6
                      A                      A                      A
 Frequencies --    115.6171               177.0592               219.9263
 Red. masses --      3.5272                 3.4254                 1.1080
 Frc consts  --      0.0278                 0.0633                 0.0316
 IR Inten    --      1.5170                 4.5267                91.5883

                      7                      8                      9
                      A                      A                      A
 Frequencies --    226.9429               249.6553               262.5668
 Red. masses --      1.5190                 4.3969                 4.0528
 Frc consts  --      0.0461                 0.1615                 0.1646
 IR Inten    --     14.4107                 1.5985                 4.4732

                     10                     11                     12
                      A                      A                      A
 Frequencies --    338.3531               422.9578               569.6624
 Red. masses --      2.9320                 3.8632                 3.4376
 Frc consts  --      0.1978                 0.4072                 0.6573
 IR Inten    --      9.3032                 2.5751                 6.5913

                     13                     14                     15
                      A                      A                      A
 Frequencies --    605.3564               619.7204               767.5380
 Red. masses --      7.5060                 1.1420                 1.1631
 Frc consts  --      1.6206                 0.2584                 0.4037
 IR Inten    --      8.6785               148.6347                51.6166

                     16                     17                     18
                      A                      A                      A
 Frequencies --    778.6719               784.7468               802.0266
 Red. masses --      1.9437                 2.6674                 1.2444
 Frc consts  --      0.6944                 0.9678                 0.4716
 IR Inten    --      2.5057                56.9923                 8.0480

                     19                     20                     21
                      A                      A                      A
 Frequencies --    893.2100               929.4671              1074.2648
 Red. masses --      3.1558                 2.7875                 4.1666
 Frc consts  --      1.4834                 1.4188                 2.8330
 IR Inten    --     16.1501                 4.5296                23.9350

                     22                     23                     24
                      A                      A                      A
 Frequencies --   1127.7024              1203.1054              1269.4969
 Red. masses --      2.0730                 1.7790                 5.3553
 Frc consts  --      1.5532                 1.5171                 5.0850
 IR Inten    --     22.3672                 7.1209               597.1921

                     25                     26                     27
                      A                      A                      A
 Frequencies --   1346.5713              1402.2206              1431.4168
 Red. masses --      1.1636                 1.2577                 1.3583
 Frc consts  --      1.2431                 1.4570                 1.6397
 IR Inten    --     49.1366                17.3389                 8.5931

                     28                     29                     30
                      A                      A                      A
 Frequencies --   1493.4393              1502.7455              1514.7829
 Red. masses --      1.0405                 1.0623                 1.0807
 Frc consts  --      1.3673                 1.4134                 1.4611
 IR Inten    --     11.3785                 2.0571                17.1101

                     31                     32                     33
                      A                      A                      A
 Frequencies --   1850.3428              2244.2542              3075.7234
 Red. masses --     12.1042                 5.8614                 1.0354
 Frc consts  --     24.4169                17.3939                 5.7713
 IR Inten    --    367.5320                81.3636                 9.2153

                     34                     35                     36
                      A                      A                      A
 Frequencies --   3108.6952              3150.7877              3155.7976
 Red. masses --      1.0605                 1.1019                 1.1048
 Frc consts  --      6.0382                 6.4449                 6.4827
 IR Inten    --     16.9953                12.8358                 2.6918

                     37                     38                     39
                      A                      A                      A
 Frequencies --   3175.8314              3490.5251              3770.3564
 Red. masses --      1.1075                 1.1669                 1.0675
 Frc consts  --      6.5815                 8.3767                 8.9407
 IR Inten    --     12.7273                74.0530                28.2309

 - Thermochemistry -
 -------------------
 Temperature   298.150 Kelvin.  Pressure   1.00000 Atm.
 Atom     1 has atomic number  8 and mass  15.99491

 Molecular mass:   115.03952 amu.
 Principal axes and moments of inertia in atomic units:
                           1         2         3
     Eigenvalues --   536.471141570.855811959.87760
           X            0.99959   0.02811  -0.00578
           Y           -0.02811   0.99960  -0.00025
           Z            0.00577   0.00041   0.99998
 This molecule is an asymmetric top.
 Rotational symmetry number  1.
 Warning -- assumption of classical behavior for rotation
           may cause significant error
 Rotational temperatures (Kelvin)      0.16145     0.05514     0.04419
 Rotational constants (GHZ):           3.36410     1.14889     0.92084
    2 imaginary frequencies ignored.
 Zero-point vibrational energy     294449.4 (Joules/Mol)
                                   70.37510 (Kcal/Mol)
 Warning -- explicit consideration of  12 degrees of freedom as
           vibrations may cause significant error
 Vibrational temperatures:    110.15   166.35   254.75   316.42   326.52
          (Kelvin)            359.20   377.78   486.81   608.54   819.62
                              870.97   891.64  1104.32  1120.34  1129.08
                             1153.94  1285.13  1337.30  1545.63  1622.51
                             1731.00  1826.52  1937.42  2017.48  2059.49
                             2148.73  2162.12  2179.43  2662.23  3228.98
                             4425.28  4472.72  4533.28  4540.49  4569.31
                             5022.09  5424.70

 Zero-point correction=                           0.112150 (Hartree/Particle)
 Thermal correction to Energy=                    0.120773
 Thermal correction to Enthalpy=                  0.121717
 Thermal correction to Gibbs Free Energy=         0.077975
 Sum of electronic and zero-point Energies=           -420.096975
 Sum of electronic and thermal Energies=              -420.088352
 Sum of electronic and thermal Enthalpies=            -420.087408
 Sum of electronic and thermal Free Energies=         -420.131150

                     E (Thermal)             CV                S
                      KCal/Mol        Cal/Mol-Kelvin    Cal/Mol-Kelvin
 Total                   75.786             30.163             92.063
 Electronic               0.000              0.000              1.377
 Translational            0.889              2.981             40.136
 Rotational               0.889              2.981             28.892
 Vibrational             74.009             24.202             21.658
 Vibration     1          0.599              1.965              3.977
 Vibration     2          0.608              1.936              3.172
 Vibration     3          0.628              1.871              2.359
 Vibration     4          0.647              1.811              1.960
 Vibration     5          0.651              1.800              1.903
 Vibration     6          0.662              1.763              1.733
 Vibration     7          0.670              1.741              1.645
 Vibration     8          0.719              1.599              1.220
 Vibration     9          0.785              1.420              0.882
 Vibration    10          0.926              1.097              0.505
 Vibration    11          0.964              1.020              0.441
 Vibration    12          0.980              0.990              0.417

 1\1\GINC-AJ\Freq\UM062X\6-311++G(d,p)\C5H7O3(2)\AAYUSH\16-Aug-2025\0\\
 # freq 6-311++g(d,p) m062x\\Title Card Required\\0,2\O,2.727561,-1.559
 496,0.02038\H,1.790196,-1.741441,-0.166836\C,2.477238,0.695132,0.28166
 8\H,3.529832,0.699778,0.442967\C,1.290119,0.758045,0.108119\C,-0.14645
 1,0.747541,-0.109521\O,-0.847427,1.718027,-0.078618\O,-0.562935,-0.501
 866,-0.353151\C,-1.98146,-0.667007,-0.571833\C,-2.735202,-0.688858,0.7
 42906\H,-2.059083,-1.61639,-1.098611\H,-2.328025,0.138443,-1.220011\H,
 -3.791822,-0.887498,0.553727\H,-2.347041,-1.474815,1.392414\H,-2.65204

 Normal termination of Gaussian 16 at Sat Aug 16 18:44:41 2025.
