 Gaussian 16, Revision A.03,
 Gaussian 16:  ES64L-G16RevA.03 25-Dec-2016

 --------------------------
 # freq 6-311++g(d,p) m062x
 --------------------------

 -------------------
 Title Card Required
 -------------------
 Symbolic Z-matrix:
 Charge =  0 Multiplicity = 2

                         Standard orientation:
 ---------------------------------------------------------------------
 Center     Atomic      Atomic             Coordinates (Angstroms)
 Number     Number       Type             X           Y           Z
 ---------------------------------------------------------------------
      1          8           0        2.787854   -1.458517    0.024490
      2          1           0        1.861777   -1.686726   -0.165057
      3          6           0        2.540798    0.661910    0.259592
      4          1           0        3.591963    0.709729    0.426363
      5          6           0        1.354240    0.791074    0.094516
      6          6           0       -0.082643    0.784395   -0.122122
      7          8           0       -0.782991    1.755486   -0.095040
      8          8           0       -0.498595   -0.465859   -0.360362
      9          6           0       -1.916837   -0.633622   -0.578436
     10          6           0       -2.670504   -0.650756    0.736341
     11          1           0       -1.992955   -1.585464   -1.100959
     12          1           0       -2.264391    0.168446   -1.230297
     13          1           0       -3.726810   -0.851804    0.547973
     14          1           0       -2.281194   -1.433278    1.389286
     15          1           0       -2.588858    0.312215    1.240649
 ---------------------------------------------------------------------

 SCF Done:  E(UM062X) =  -420.206517067     A.U. after   23 cycles

 The electronic state is 2-A.
 Alpha  occ. eigenvalues --  -19.69466 -19.66269 -19.64233 -10.71631 -10.61501
 Alpha  occ. eigenvalues --  -10.58881 -10.57806 -10.54535  -1.26629  -1.17484
 Alpha  occ. eigenvalues --   -1.12178  -0.91713  -0.87953  -0.79005  -0.71543
 Alpha  occ. eigenvalues --   -0.65491  -0.62336  -0.59520  -0.57430  -0.54689
 Alpha  occ. eigenvalues --   -0.53861  -0.50319  -0.49626  -0.47717  -0.46193
 Alpha  occ. eigenvalues --   -0.43027  -0.42222  -0.39996  -0.39437  -0.37607
 Alpha  occ. eigenvalues --   -0.34950
 Alpha virt. eigenvalues --   -0.02354  -0.00745   0.00780   0.01306   0.01646
 Alpha virt. eigenvalues --    0.02857   0.04646   0.04980   0.05242   0.06126
 Alpha virt. eigenvalues --    0.06560   0.07051   0.08131   0.08941   0.10243

  Beta  occ. eigenvalues --  -19.69458 -19.64759 -19.64207 -10.71646 -10.61499
  Beta  occ. eigenvalues --  -10.58910 -10.57643 -10.54535  -1.26589  -1.17417
  Beta  occ. eigenvalues --   -1.05203  -0.91286  -0.87634  -0.78927  -0.71375
  Beta  occ. eigenvalues --   -0.65423  -0.62000  -0.59423  -0.57342  -0.54504
  Beta  occ. eigenvalues --   -0.51214  -0.50185  -0.47652  -0.46257  -0.42975
  Beta  occ. eigenvalues --   -0.40337  -0.39851  -0.39595  -0.37770  -0.36308
  Beta virt. eigenvalues --   -0.08701  -0.02309  -0.00627   0.00987   0.01350
  Beta virt. eigenvalues --    0.01798   0.02931   0.04928   0.05045   0.05626
  Beta virt. eigenvalues --    0.06493   0.06812   0.07108   0.08314   0.09063

 Mulliken charges and spin densities:
               1          2
     1  O   -0.288537   0.870902
     2  H    0.252056  -0.015643
     3  C   -2.206730  -0.127271
     4  H    0.194017   0.015143
     5  C    2.149763   0.180348
     6  C   -0.079245   0.072148
     7  O   -0.206419   0.005169
     8  O   -0.032030  -0.002608
     9  C   -0.300799   0.001551
    10  C   -0.394289   0.000176
    11  H    0.198764   0.000107
    12  H    0.196771  -0.000102
    13  H    0.167006   0.000095
    14  H    0.165684  -0.000124
    15  H    0.183986   0.000109
 Sum of Mulliken charges =  -0.00000   1.00000

 Dipole moment (field-independent basis, Debye):
    X=             -1.6942    Y=             -1.4447    Z=             -0.2294  Tot=              2.2383
 Quadrupole moment (field-independent basis, Debye-Ang):
   XX=            -43.0430   YY=            -52.0970   ZZ=            -47.4672
   XY=              8.6835   XZ=              1.6151   YZ=              1.0454

  Exact polarizability:  94.645  -5.892  74.647   2.820   1.631  50.223
 Approx polarizability: 104.613 -11.437  85.225   5.589   1.790  57.807

 ******    3 imaginary frequencies (negative Signs) ******

                      1                      2                      3
                      A                      A                      A
 Frequencies --   -135.7048               -65.3882               -22.5457
 Red. masses --     12.7118                 6.0182                 6.4154
 Frc consts  --      0.1379                 0.0152                 0.0019
 IR Inten    --     14.1760                 5.5555                 1.5382

                      4                      5                      6
                      A                      A                      A
 Frequencies --     76.2102               115.4484               193.2872
 Red. masses --      3.3556                 3.4862                 2.3074
 Frc consts  --      0.0115                 0.0274                 0.0508
 IR Inten    --      1.2418                 1.3681                 3.7384

                      7                      8                      9
                      A                      A                      A
 Frequencies --    225.5763               237.4134               262.6532
 Red. masses --      1.1214                 1.5840                 3.9737
 Frc consts  --      0.0336                 0.0526                 0.1615
 IR Inten    --     89.8804                11.1843                 8.1841

                     10                     11                     12
                      A                      A                      A
 Frequencies --    337.3565               423.0368               574.0964
 Red. masses --      2.9273                 3.8810                 4.3904
 Frc consts  --      0.1963                 0.4092                 0.8526
 IR Inten    --      9.2196                 2.4590                 1.1532

                     13                     14                     15
                      A                      A                      A
 Frequencies --    600.8936               694.5644               778.5366
 Red. masses --      8.9414                 1.0644                 2.4767
 Frc consts  --      1.9022                 0.3025                 0.8845
 IR Inten    --      7.4836               145.3755                 0.7622

                     16                     17                     18
                      A                      A                      A
 Frequencies --    784.3551               789.9429               802.6527
 Red. masses --      1.9403                 1.1589                 1.2269
 Frc consts  --      0.7033                 0.4261                 0.4657
 IR Inten    --     56.3024                54.9205                14.2829

                     19                     20                     21
                      A                      A                      A
 Frequencies --    892.7916               929.6758              1074.0469
 Red. masses --      3.1443                 2.7908                 4.1555
 Frc consts  --      1.4766                 1.4212                 2.8244
 IR Inten    --     16.3160                 4.8950                22.7873

                     22                     23                     24
                      A                      A                      A
 Frequencies --   1127.7233              1203.0416              1266.2067
 Red. masses --      2.0721                 1.7802                 5.4704
 Frc consts  --      1.5526                 1.5180                 5.1675
 IR Inten    --     22.1339                 8.5396               588.9079

                     25                     26                     27
                      A                      A                      A
 Frequencies --   1346.4001              1402.2202              1431.4244
 Red. masses --      1.1600                 1.2558                 1.3566
 Frc consts  --      1.2390                 1.4547                 1.6377
 IR Inten    --     45.3392                16.4491                 8.4477

                     28                     29                     30
                      A                      A                      A
 Frequencies --   1493.5663              1502.8466              1514.8761
 Red. masses --      1.0404                 1.0622                 1.0806
 Frc consts  --      1.3675                 1.4134                 1.4611
 IR Inten    --     11.8443                 1.8921                17.1630

                     31                     32                     33
                      A                      A                      A
 Frequencies --   1849.6480              2214.5302              3075.6307
 Red. masses --     12.0969                 5.9958                 1.0354
 Frc consts  --     24.3839                17.3245                 5.7709
 IR Inten    --    382.4528                81.4753                 9.1300

                     34                     35                     36
                      A                      A                      A
 Frequencies --   3108.4947              3150.7888              3155.6181
 Red. masses --      1.0605                 1.1019                 1.1048
 Frc consts  --      6.0375                 6.4451                 6.4818
 IR Inten    --     16.8765                12.6582                 2.7741

                     37                     38                     39
                      A                      A                      A
 Frequencies --   3175.6945              3480.3346              3778.5350
 Red. masses --      1.1076                 1.1620                 1.0676
 Frc consts  --      6.5810                 8.2925                 8.9803
 IR Inten    --     12.3498                75.3315                28.9040

 - Thermochemistry -
 -------------------
 Temperature   298.150 Kelvin.  Pressure   1.00000 Atm.
 Atom     1 has atomic number  8 and mass  15.99491

 Molecular mass:   115.03952 amu.
 Principal axes and moments of inertia in atomic units:
                           1         2         3
     Eigenvalues --   520.926401568.888881942.82422
           X            0.99961   0.02731  -0.00571
           Y           -0.02731   0.99963  -0.00037
           Z            0.00570   0.00053   0.99998
 This molecule is an asymmetric top.
 Rotational symmetry number  1.
 Warning -- assumption of classical behavior for rotation
           may cause significant error
 Rotational temperatures (Kelvin)      0.16627     0.05521     0.04458
 Rotational constants (GHZ):           3.46448     1.15033     0.92893
    3 imaginary frequencies ignored.
 Zero-point vibrational energy     293504.5 (Joules/Mol)
                                   70.14926 (Kcal/Mol)
 Warning -- explicit consideration of  10 degrees of freedom as
           vibrations may cause significant error
 Vibrational temperatures:    109.65   166.10   278.10   324.55   341.58
          (Kelvin)            377.90   485.38   608.66   826.00   864.55
                              999.32  1120.14  1128.51  1136.55  1154.84
                             1284.53  1337.60  1545.31  1622.54  1730.91
                             1821.79  1937.17  2017.48  2059.50  2148.91
                             2162.26  2179.57  2661.23  3186.21  4425.15
                             4472.43  4533.28  4540.23  4569.12  5007.43
                             5436.47

 Zero-point correction=                           0.111790 (Hartree/Particle)
 Thermal correction to Energy=                    0.119837
 Thermal correction to Enthalpy=                  0.120781
 Thermal correction to Gibbs Free Energy=         0.078070
 Sum of electronic and zero-point Energies=           -420.094727
 Sum of electronic and thermal Energies=              -420.086680
 Sum of electronic and thermal Enthalpies=            -420.085736
 Sum of electronic and thermal Free Energies=         -420.128447

                     E (Thermal)             CV                S
                      KCal/Mol        Cal/Mol-Kelvin    Cal/Mol-Kelvin
 Total                   75.199             28.169             89.893
 Electronic               0.000              0.000              1.377
 Translational            0.889              2.981             40.136
 Rotational               0.889              2.981             28.853
 Vibrational             73.421             22.208             19.527
 Vibration     1          0.599              1.965              3.986
 Vibration     2          0.608              1.937              3.175
 Vibration     3          0.635              1.849              2.196
 Vibration     4          0.650              1.802              1.914
 Vibration     5          0.656              1.783              1.822
 Vibration     6          0.670              1.741              1.644
 Vibration     7          0.718              1.601              1.225
 Vibration     8          0.785              1.420              0.882
 Vibration     9          0.930              1.087              0.496
 Vibration    10          0.959              1.030              0.448

 1\1\GINC-AJ\Freq\UM062X\6-311++G(d,p)\C5H7O3(2)\AAYUSH\23-Jun-2025\0\\
 # freq 6-311++g(d,p) m062x\\Title Card Required\\0,2\O,2.787854,-1.458
 517,0.02449\H,1.861777,-1.686726,-0.165057\C,2.540798,0.66191,0.259592
 \H,3.591963,0.709729,0.426363\C,1.35424,0.791074,0.094516\C,-0.082643,
 0.784395,-0.122122\O,-0.782991,1.755486,-0.09504\O,-0.498595,-0.465859
 ,-0.360362\C,-1.916837,-0.633622,-0.578436\C,-2.670504,-0.650756,0.736
 341\H,-1.992955,-1.585464,-1.100959\H,-2.264391,0.168446,-1.230297\H,-
 3.72681,-0.851804,0.547973\H,-2.281194,-1.433278,1.389286\H,-2.588858,

 Normal termination of Gaussian 16 at Mon Jun 23 06:41:06 2025.
