 Gaussian 16, Revision A.03,
 Gaussian 16:  ES64L-G16RevA.03 25-Dec-2016

 -------------------
 # freq 6-31+g m062x
 -------------------

 -------------------
 Title Card Required
 -------------------
 Symbolic Z-matrix:
 Charge =  0 Multiplicity = 2

                         Standard orientation:
 ---------------------------------------------------------------------
 Center     Atomic      Atomic             Coordinates (Angstroms)
 Number     Number       Type             X           Y           Z
 ---------------------------------------------------------------------
      1          8           0        2.771787   -1.310514    0.027003
      2          1           0        1.873132   -1.612156   -0.170153
      3          6           0        2.553685    0.405159    0.234390
      4          1           0        3.549563    0.762504    0.437951
      5          6           0        1.358869    0.808827    0.107487
      6          6           0       -0.078796    0.782715   -0.112886
      7          8           0       -0.776007    1.757935   -0.073754
      8          8           0       -0.498477   -0.461034   -0.365764
      9          6           0       -1.918583   -0.622604   -0.586147
     10          6           0       -2.671905   -0.652817    0.728392
     11          1           0       -1.996066   -1.568165   -1.119508
     12          1           0       -2.262970    0.188069   -1.228846
     13          1           0       -3.728687   -0.848750    0.537296
     14          1           0       -2.284997   -1.444230    1.371922
     15          1           0       -2.588026    0.303945    1.244047
 ---------------------------------------------------------------------

 SCF Done:  E(UM062X) =  -419.974525550     A.U. after   19 cycles

 The electronic state is 2-A.
 Alpha  occ. eigenvalues --  -19.72221 -19.67660 -19.66998 -10.74238 -10.65347
 Alpha  occ. eigenvalues --  -10.62742 -10.61702 -10.55544  -1.29336  -1.20074
 Alpha  occ. eigenvalues --   -1.12088  -0.93567  -0.89227  -0.80045  -0.73248
 Alpha  occ. eigenvalues --   -0.66098  -0.63291  -0.59905  -0.58222  -0.55376
 Alpha  occ. eigenvalues --   -0.53384  -0.50810  -0.48711  -0.48047  -0.46264
 Alpha  occ. eigenvalues --   -0.43400  -0.42712  -0.40183  -0.39584  -0.35982
 Alpha  occ. eigenvalues --   -0.32032
 Alpha virt. eigenvalues --   -0.03474   0.01270   0.02789   0.02990   0.03677
 Alpha virt. eigenvalues --    0.04497   0.05956   0.06147   0.07409   0.07691
 Alpha virt. eigenvalues --    0.08128   0.08366   0.09259   0.11074   0.11501

  Beta  occ. eigenvalues --  -19.72174 -19.67574 -19.66352 -10.74292 -10.65522
  Beta  occ. eigenvalues --  -10.62732 -10.61021 -10.55544  -1.29175  -1.19858
  Beta  occ. eigenvalues --   -1.09901  -0.91997  -0.88391  -0.79817  -0.72536
  Beta  occ. eigenvalues --   -0.65913  -0.62711  -0.59623  -0.57860  -0.55124
  Beta  occ. eigenvalues --   -0.51703  -0.50534  -0.48053  -0.46567  -0.43422
  Beta  occ. eigenvalues --   -0.42867  -0.42007  -0.39819  -0.39059  -0.34375
  Beta virt. eigenvalues --   -0.09235  -0.03377   0.01219   0.02546   0.02935
  Beta virt. eigenvalues --    0.03833   0.04523   0.06153   0.06607   0.07061
  Beta virt. eigenvalues --    0.07680   0.08205   0.08542   0.09446   0.11076

 Mulliken charges and spin densities:
               1          2
     1  O   -0.542389   0.331794
     2  H    0.425199  -0.007929
     3  C   -0.340323  -0.260773
     4  H    0.263762   0.036312
     5  C    0.481841   0.859637
     6  C    0.070542   0.013232
     7  O   -0.373311   0.020663
     8  O   -0.295351   0.002192
     9  C   -0.247374   0.000722
    10  C   -0.573236   0.003454
    11  H    0.224231   0.000496
    12  H    0.237025  -0.000246
    13  H    0.211765   0.000289
    14  H    0.221290   0.000060
    15  H    0.236329   0.000097
 Sum of Mulliken charges =  -0.00000   1.00000

 Dipole moment (field-independent basis, Debye):
    X=             -2.2535    Y=             -0.6731    Z=             -0.2238  Tot=              2.3625
 Quadrupole moment (field-independent basis, Debye-Ang):
   XX=            -46.3638   YY=            -53.7797   ZZ=            -47.6443
   XY=             11.7242   XZ=              1.7620   YZ=              1.0885

  Exact polarizability:  90.507  -8.872  74.420   3.037   1.973  46.216
 Approx polarizability:  95.891 -19.723  92.312   4.515   3.024  48.699

 ******    4 imaginary frequencies (negative Signs) ******

                      1                      2                      3
                      A                      A                      A
 Frequencies --   -573.1946              -349.2923               -81.8591
 Red. masses --     11.9689                 1.0621                 6.9943
 Frc consts  --      2.3169                 0.0763                 0.0276
 IR Inten    --     38.4359               127.9684                 0.0370

                      4                      5                      6
                      A                      A                      A
 Frequencies --    -23.7075                55.7636               151.9251
 Red. masses --      3.0305                 4.2138                 5.4311
 Frc consts  --      0.0010                 0.0077                 0.0739
 IR Inten    --      1.5010                 1.5364                12.3280

                      7                      8                      9
                      A                      A                      A
 Frequencies --    176.6502               288.6919               303.6308
 Red. masses --      1.1975                 2.7998                 3.4159
 Frc consts  --      0.0220                 0.1375                 0.1855
 IR Inten    --      3.2438                13.6924                21.4061

                     10                     11                     12
                      A                      A                      A
 Frequencies --    338.6969               418.0372               558.7946
 Red. masses --      4.9955                 3.8527                 6.1097
 Frc consts  --      0.3376                 0.3967                 1.1240
 IR Inten    --      2.5020                 2.2071                 8.7619

                     13                     14                     15
                      A                      A                      A
 Frequencies --    598.9289               751.0333               813.8793
 Red. masses --      5.1185                11.4340                 1.3340
 Frc consts  --      1.0818                 3.7999                 0.5206
 IR Inten    --     11.6073                28.1319                12.7903

                     16                     17                     18
                      A                      A                      A
 Frequencies --    829.3363               888.7165               935.5861
 Red. masses --      1.3900                 2.8109                 2.3004
 Frc consts  --      0.5633                 1.3080                 1.1864
 IR Inten    --     36.7451                25.2163                14.1194

                     19                     20                     21
                      A                      A                      A
 Frequencies --    967.7701              1101.9270              1141.6975
 Red. masses --      1.2097                 3.6842                 1.1641
 Frc consts  --      0.6675                 2.6357                 0.8940
 IR Inten    --     57.4598                 6.2257                 8.7171

                     22                     23                     24
                      A                      A                      A
 Frequencies --   1155.0359              1226.5191              1305.6188
 Red. masses --      2.0115                 1.7553                 3.6304
 Frc consts  --      1.5811                 1.5558                 3.6462
 IR Inten    --     20.1674                 6.9851               443.5998

                     25                     26                     27
                      A                      A                      A
 Frequencies --   1363.5518              1440.6275              1458.0374
 Red. masses --      1.3070                 1.3109                 1.2504
 Frc consts  --      1.4318                 1.6030                 1.5662
 IR Inten    --    109.2809                10.9224                19.4992

                     28                     29                     30
                      A                      A                      A
 Frequencies --   1528.6362              1537.6086              1545.5185
 Red. masses --      1.0414                 1.0664                 1.0728
 Frc consts  --      1.4338                 1.4854                 1.5099
 IR Inten    --     16.3561                 3.2397                21.6773

                     31                     32                     33
                      A                      A                      A
 Frequencies --   1890.4083              1941.7488              3107.9757
 Red. masses --     10.8860                 8.4285                 1.0352
 Frc consts  --     22.9208                18.7235                 5.8913
 IR Inten    --    235.3889               235.8377                11.4342

                     34                     35                     36
                      A                      A                      A
 Frequencies --   3140.4038              3188.2030              3192.4439
 Red. masses --      1.0599                 1.1006                 1.1026
 Frc consts  --      6.1589                 6.5911                 6.6206
 IR Inten    --     17.4513                12.6004                 5.1669

                     37                     38                     39
                      A                      A                      A
 Frequencies --   3213.1347              3352.3664              3841.4871
 Red. masses --      1.1057                 1.1155                 1.0677
 Frc consts  --      6.7259                 7.3864                 9.2831
 IR Inten    --     13.9741                15.0940                29.3110

 - Thermochemistry -
 -------------------
 Temperature   298.150 Kelvin.  Pressure   1.00000 Atm.
 Atom     1 has atomic number  8 and mass  15.99491

 Molecular mass:   115.03952 amu.
 Principal axes and moments of inertia in atomic units:
                           1         2         3
     Eigenvalues --   485.354001565.672031905.23809
           X            0.99961   0.02728  -0.00543
           Y           -0.02728   0.99963  -0.00011
           Z            0.00542   0.00026   0.99999
 This molecule is an asymmetric top.
 Rotational symmetry number  1.
 Warning -- assumption of classical behavior for rotation
           may cause significant error
 Rotational temperatures (Kelvin)      0.17846     0.05532     0.04546
 Rotational constants (GHZ):           3.71840     1.15269     0.94725
    4 imaginary frequencies ignored.
 Zero-point vibrational energy     297573.4 (Joules/Mol)
                                   71.12175 (Kcal/Mol)
 Warning -- explicit consideration of   9 degrees of freedom as
           vibrations may cause significant error
 Vibrational temperatures:     80.23   218.59   254.16   415.36   436.86
          (Kelvin)            487.31   601.46   803.98   861.73  1080.57
                             1170.99  1193.23  1278.66  1346.10  1392.41
                             1585.43  1642.65  1661.84  1764.69  1878.49
                             1961.85  2072.74  2097.79  2199.37  2212.28
                             2223.66  2719.88  2793.74  4471.68  4518.34
                             4587.11  4593.21  4622.98  4823.31  5527.04

 Zero-point correction=                           0.113340 (Hartree/Particle)
 Thermal correction to Energy=                    0.120605
 Thermal correction to Enthalpy=                  0.121549
 Thermal correction to Gibbs Free Energy=         0.080128
 Sum of electronic and zero-point Energies=           -419.861186
 Sum of electronic and thermal Energies=              -419.853920
 Sum of electronic and thermal Enthalpies=            -419.852976
 Sum of electronic and thermal Free Energies=         -419.894398

                     E (Thermal)             CV                S
                      KCal/Mol        Cal/Mol-Kelvin    Cal/Mol-Kelvin
 Total                   75.681             25.226             87.179
 Electronic               0.000              0.000              1.377
 Translational            0.889              2.981             40.136
 Rotational               0.889              2.981             28.761
 Vibrational             73.903             19.265             16.904
 Vibration     1          0.596              1.975              4.602
 Vibration     2          0.619              1.901              2.648
 Vibration     3          0.628              1.871              2.364
 Vibration     4          0.685              1.695              1.482
 Vibration     5          0.695              1.667              1.397
 Vibration     6          0.719              1.598              1.218
 Vibration     7          0.781              1.431              0.899
 Vibration     8          0.914              1.120              0.526
 Vibration     9          0.957              1.034              0.452

 Normal termination of Gaussian 16 at Fri Jun 20 14:16:07 2025.
