 Gaussian 16, Revision A.03,
 Gaussian 16:  ES64L-G16RevA.03 25-Dec-2016

 --------------------------
 # freq 6-311++g(d,p) m062x
 --------------------------

 -------------------
 Title Card Required
 -------------------
 Symbolic Z-matrix:
 Charge =  0 Multiplicity = 2

                         Standard orientation:
 ---------------------------------------------------------------------
 Center     Atomic      Atomic             Coordinates (Angstroms)
 Number     Number       Type             X           Y           Z
 ---------------------------------------------------------------------
      1          8           0        2.777459   -1.369534    0.025377
      2          1           0        1.868246   -1.647121   -0.169150
      3          6           0        2.547331    0.513261    0.245740
      4          1           0        3.578297    0.732756    0.433960
      5          6           0        1.357055    0.795164    0.101428
      6          6           0       -0.081133    0.783875   -0.116565
      7          8           0       -0.778300    1.757684   -0.081972
      8          8           0       -0.498182   -0.462184   -0.363457
      9          6           0       -1.917973   -0.626652   -0.583079
     10          6           0       -2.671378   -0.651804    0.731544
     11          1           0       -1.994053   -1.574766   -1.112053
     12          1           0       -2.263603    0.180458   -1.229617
     13          1           0       -3.727905   -0.849828    0.541288
     14          1           0       -2.283514   -1.439706    1.378760
     15          1           0       -2.588691    0.307411    1.242819
 ---------------------------------------------------------------------

 SCF Done:  E(UM062X) =  -420.206920890     A.U. after   21 cycles

 The electronic state is 2-A.
 Alpha  occ. eigenvalues --  -19.69752 -19.64596 -19.64361 -10.72023 -10.61917
 Alpha  occ. eigenvalues --  -10.61688 -10.59499 -10.54673  -1.26987  -1.17851
 Alpha  occ. eigenvalues --   -1.10391  -0.92613  -0.88496  -0.79408  -0.72209
 Alpha  occ. eigenvalues --   -0.65823  -0.62895  -0.59850  -0.57787  -0.54908
 Alpha  occ. eigenvalues --   -0.52414  -0.50546  -0.49103  -0.47936  -0.46254
 Alpha  occ. eigenvalues --   -0.43225  -0.41787  -0.40263  -0.39680  -0.36918
 Alpha  occ. eigenvalues --   -0.32867
 Alpha virt. eigenvalues --   -0.03008  -0.00729   0.00776   0.01254   0.01589
 Alpha virt. eigenvalues --    0.02686   0.04574   0.04935   0.05501   0.05918
 Alpha virt. eigenvalues --    0.06628   0.06999   0.08134   0.08777   0.10053

  Beta  occ. eigenvalues --  -19.69724 -19.64535 -19.63242 -10.72059 -10.62047
  Beta  occ. eigenvalues --  -10.61681 -10.59091 -10.54673  -1.26876  -1.17681
  Beta  occ. eigenvalues --   -1.06153  -0.91454  -0.87858  -0.79265  -0.71796
  Beta  occ. eigenvalues --   -0.65678  -0.62401  -0.59621  -0.57567  -0.54690
  Beta  occ. eigenvalues --   -0.50720  -0.49989  -0.47814  -0.46419  -0.43135
  Beta  occ. eigenvalues --   -0.40992  -0.40586  -0.39924  -0.38867  -0.34901
  Beta virt. eigenvalues --   -0.09953  -0.02924  -0.00659   0.00941   0.01291
  Beta virt. eigenvalues --    0.01762   0.02839   0.04898   0.05050   0.05812
  Beta virt. eigenvalues --    0.06278   0.06968   0.07374   0.08427   0.08882

 Mulliken charges and spin densities:
               1          2
     1  O   -0.323366   0.604731
     2  H    0.246656  -0.009126
     3  C   -1.678217  -0.264818
     4  H    0.203102   0.027898
     5  C    1.701933   0.488762
     6  C   -0.131531   0.135111
     7  O   -0.210103   0.014138
     8  O   -0.037427  -0.001146
     9  C   -0.293405   0.002296
    10  C   -0.392073   0.001679
    11  H    0.200383   0.000223
    12  H    0.196950  -0.000148
    13  H    0.167473   0.000278
    14  H    0.166487  -0.000181
    15  H    0.183135   0.000302
 Sum of Mulliken charges =  -0.00000   1.00000

 Dipole moment (field-independent basis, Debye):
    X=             -2.0243    Y=             -0.7393    Z=             -0.1837  Tot=              2.1629
 Quadrupole moment (field-independent basis, Debye-Ang):
   XX=            -44.2902   YY=            -52.5854   ZZ=            -47.3999
   XY=             10.6158   XZ=              1.7989   YZ=              1.0725

  Exact polarizability:  96.132 -10.696  81.798   2.314   2.165  50.188
 Approx polarizability: 104.098 -18.052  97.218   4.480   2.581  58.029

 ******    1 imaginary frequencies (negative Signs) ******

                      1                      2                      3
                      A                      A                      A
 Frequencies --   -790.6754                63.5981                84.1605
 Red. masses --     10.5178                 3.8913                 5.8961
 Frc consts  --      3.8741                 0.0093                 0.0246
 IR Inten    --     52.4764                 0.1671                 1.9802

                      4                      5                      6
                      A                      A                      A
 Frequencies --    111.9946               130.7843               214.5031
 Red. masses --      4.1874                 3.7501                 1.3124
 Frc consts  --      0.0309                 0.0378                 0.0356
 IR Inten    --      3.4877                 2.6599                 3.1190

                      7                      8                      9
                      A                      A                      A
 Frequencies --    240.1782               274.1165               281.3878
 Red. masses --      1.2537                 3.2762                 2.6456
 Frc consts  --      0.0426                 0.1450                 0.1234
 IR Inten    --     65.4849                 4.8110                38.7351

                     10                     11                     12
                      A                      A                      A
 Frequencies --    339.3913               422.1708               560.7298
 Red. masses --      3.2051                 3.9520                 5.8788
 Frc consts  --      0.2175                 0.4150                 1.0891
 IR Inten    --      7.0254                 1.8324                 4.4203

                     13                     14                     15
                      A                      A                      A
 Frequencies --    592.6973               769.7546               786.8213
 Red. masses --      5.9748                 2.8823                 1.9991
 Frc consts  --      1.2366                 1.0062                 0.7292
 IR Inten    --      6.8120                 0.1794                56.0411

                     16                     17                     18
                      A                      A                      A
 Frequencies --    801.1301               855.8166               887.8169
 Red. masses --      1.2493                 1.1358                 2.9508
 Frc consts  --      0.4724                 0.4901                 1.3704
 IR Inten    --     10.5312               153.0565                15.6364

                     19                     20                     21
                      A                      A                      A
 Frequencies --    923.5508               973.4701              1068.6276
 Red. masses --      2.3573                 1.1639                 4.0201
 Frc consts  --      1.1846                 0.6499                 2.7048
 IR Inten    --      3.8862                 8.4700                23.9118

                     22                     23                     24
                      A                      A                      A
 Frequencies --   1127.0030              1202.4526              1259.2803
 Red. masses --      2.0607                 1.7817                 5.6128
 Frc consts  --      1.5421                 1.5178                 5.2442
 IR Inten    --     21.2328                11.1520               562.0085

                     25                     26                     27
                      A                      A                      A
 Frequencies --   1345.5206              1402.0730              1431.1450
 Red. masses --      1.1544                 1.2522                 1.3516
 Frc consts  --      1.2313                 1.4503                 1.6310
 IR Inten    --     39.0592                14.2031                 8.5342

                     28                     29                     30
                      A                      A                      A
 Frequencies --   1493.7369              1503.1054              1515.0289
 Red. masses --      1.0403                 1.0620                 1.0803
 Frc consts  --      1.3676                 1.4137                 1.4610
 IR Inten    --     12.6380                 1.5248                16.7256

                     31                     32                     33
                      A                      A                      A
 Frequencies --   1840.7868              2018.8940              3075.7149
 Red. masses --     11.9586                 6.7570                 1.0354
 Frc consts  --     23.8746                16.2268                 5.7710
 IR Inten    --    389.0710               102.4989                 8.6831

                     34                     35                     36
                      A                      A                      A
 Frequencies --   3109.3110              3151.3438              3155.8952
 Red. masses --      1.0606                 1.1017                 1.1048
 Frc consts  --      6.0413                 6.4462                 6.4831
 IR Inten    --     15.9887                12.6892                 2.2207

                     37                     38                     39
                      A                      A                      A
 Frequencies --   3176.5505              3400.3053              3802.8421
 Red. masses --      1.1077                 1.1349                 1.0680
 Frc consts  --      6.5856                 7.7309                 9.1001
 IR Inten    --     11.2636                51.0864                42.6771

 - Thermochemistry -
 -------------------
 Temperature   298.150 Kelvin.  Pressure   1.00000 Atm.
 Atom     1 has atomic number  8 and mass  15.99491

 Molecular mass:   115.03952 amu.
 Principal axes and moments of inertia in atomic units:
                           1         2         3
     Eigenvalues --   498.465931566.702441918.91240
           X            0.99962   0.02716  -0.00553
           Y           -0.02716   0.99963  -0.00023
           Z            0.00552   0.00038   0.99998
 This molecule is an asymmetric top.
 Rotational symmetry number  1.
 Warning -- assumption of classical behavior for rotation
           may cause significant error
 Rotational temperatures (Kelvin)      0.17376     0.05528     0.04514
 Rotational constants (GHZ):           3.62059     1.15194     0.94050
    1 imaginary frequencies ignored.
 Zero-point vibrational energy     295439.9 (Joules/Mol)
                                   70.61182 (Kcal/Mol)
 Warning -- explicit consideration of  12 degrees of freedom as
           vibrations may cause significant error
 Vibrational temperatures:     91.50   121.09   161.14   188.17   308.62
          (Kelvin)            345.56   394.39   404.85   488.31   607.41
                              806.77   852.76  1107.51  1132.06  1152.65
                             1231.33  1277.37  1328.78  1400.61  1537.52
                             1621.51  1730.06  1811.82  1935.90  2017.27
                             2059.10  2149.15  2162.63  2179.79  2648.48
                             2904.74  4425.27  4473.61  4534.08  4540.63
                             4570.35  4892.28  5471.44

 Zero-point correction=                           0.112527 (Hartree/Particle)
 Thermal correction to Energy=                    0.121844
 Thermal correction to Enthalpy=                  0.122788
 Thermal correction to Gibbs Free Energy=         0.077131
 Sum of electronic and zero-point Energies=           -420.094394
 Sum of electronic and thermal Energies=              -420.085077
 Sum of electronic and thermal Enthalpies=            -420.084133
 Sum of electronic and thermal Free Energies=         -420.129790

                     E (Thermal)             CV                S
                      KCal/Mol        Cal/Mol-Kelvin    Cal/Mol-Kelvin
 Total                   76.458             31.465             96.094
 Electronic               0.000              0.000              1.377
 Translational            0.889              2.981             40.136
 Rotational               0.889              2.981             28.795
 Vibrational             74.681             25.503             25.786
 Vibration     1          0.597              1.972              4.342
 Vibration     2          0.601              1.960              3.791
 Vibration     3          0.607              1.940              3.234
 Vibration     4          0.612              1.923              2.934
 Vibration     5          0.644              1.819              2.005
 Vibration     6          0.657              1.779              1.802
 Vibration     7          0.676              1.721              1.570
 Vibration     8          0.681              1.708              1.525
 Vibration     9          0.719              1.597              1.215
 Vibration    10          0.785              1.422              0.885
 Vibration    11          0.916              1.116              0.522
 Vibration    12          0.950              1.047              0.462

 1\1\GINC-AJ\Freq\UM062X\6-311++G(d,p)\C5H7O3(2)\AAYUSH\16-Aug-2025\0\\
 # freq 6-311++g(d,p) m062x\\Title Card Required\\0,2\O,2.714712,-1.404
 295,0.039002\H,1.805724,-1.683179,-0.15472\C,2.483095,0.478968,0.25373
 2\H,3.513882,0.699836,0.441324\C,1.292601,0.7595,0.108546\C,-0.145571,
 0.746427,-0.109452\O,-0.843506,1.719786,-0.077788\O,-0.561631,-0.50069
 2,-0.352632\C,-1.981285,-0.666934,-0.5718\C,-2.734709,-0.688752,0.7428
 71\H,-2.056602,-1.616684,-1.097941\H,-2.327531,0.137968,-1.220757\H,-3
 .791074,-0.888176,0.553179\H,-2.346244,-1.474411,1.392449\H,-2.652793,

 Normal termination of Gaussian 16 at Sat Aug 16 19:09:37 2025.
