 Gaussian 16, Revision A.03,
 Gaussian 16:  ES64L-G16RevA.03 25-Dec-2016

 -------------------
 # freq 6-31+g m062x
 -------------------

 -------------------
 Title Card Required
 -------------------
 Symbolic Z-matrix:
 Charge =  0 Multiplicity = 2

                         Standard orientation:
 ---------------------------------------------------------------------
 Center     Atomic      Atomic             Coordinates (Angstroms)
 Number     Number       Type             X           Y           Z
 ---------------------------------------------------------------------
      1          8           0        2.769299   -1.286047    0.027989
      2          1           0        1.875870   -1.600405   -0.170449
      3          6           0        2.554678    0.362616    0.229523
      4          1           0        3.534702    0.765778    0.437958
      5          6           0        1.361249    0.814572    0.110287
      6          6           0       -0.077108    0.782472   -0.111284
      7          8           0       -0.775190    1.757810   -0.070556
      8          8           0       -0.498664   -0.460800   -0.366756
      9          6           0       -1.918696   -0.620967   -0.587412
     10          6           0       -2.672133   -0.653200    0.727040
     11          1           0       -1.997116   -1.565498   -1.122568
     12          1           0       -2.262668    0.191150   -1.228506
     13          1           0       -3.729038   -0.848318    0.535688
     14          1           0       -2.285596   -1.445972    1.369167
     15          1           0       -2.587657    0.302599    1.244369
 ---------------------------------------------------------------------

 SCF Done:  E(UM062X) =  -419.983490728     A.U. after   19 cycles

 The electronic state is 2-A.
 Alpha  occ. eigenvalues --  -19.72097 -19.67453 -19.67404 -10.73996 -10.65661
 Alpha  occ. eigenvalues --  -10.62663 -10.61581 -10.55483  -1.29149  -1.19876
 Alpha  occ. eigenvalues --   -1.13064  -0.93338  -0.89059  -0.79902  -0.73231
 Alpha  occ. eigenvalues --   -0.66039  -0.63336  -0.59767  -0.58080  -0.55306
 Alpha  occ. eigenvalues --   -0.54099  -0.50722  -0.48741  -0.47947  -0.46207
 Alpha  occ. eigenvalues --   -0.43603  -0.43063  -0.40021  -0.39427  -0.35635
 Alpha  occ. eigenvalues --   -0.32059
 Alpha virt. eigenvalues --   -0.03427   0.01251   0.02744   0.02998   0.03753
 Alpha virt. eigenvalues --    0.04588   0.06144   0.06174   0.07549   0.07803
 Alpha virt. eigenvalues --    0.08201   0.08389   0.09562   0.11259   0.11453

  Beta  occ. eigenvalues --  -19.72045 -19.67366 -19.66928 -10.74048 -10.65824
  Beta  occ. eigenvalues --  -10.62651 -10.60822 -10.55483  -1.28975  -1.19649
  Beta  occ. eigenvalues --   -1.11458  -0.91741  -0.88082  -0.79652  -0.72432
  Beta  occ. eigenvalues --   -0.65828  -0.62714  -0.59461  -0.57681  -0.55046
  Beta  occ. eigenvalues --   -0.52531  -0.50464  -0.47968  -0.46550  -0.44254
  Beta  occ. eigenvalues --   -0.43163  -0.42758  -0.39686  -0.38886  -0.34115
  Beta virt. eigenvalues --   -0.08655  -0.03280   0.01160   0.02468   0.02952
  Beta virt. eigenvalues --    0.03814   0.04615   0.06170   0.06609   0.07184
  Beta virt. eigenvalues --    0.07732   0.08258   0.08564   0.09606   0.11064

 Mulliken charges and spin densities:
               1          2
     1  O   -0.540763   0.238276
     2  H    0.430041  -0.004307
     3  C   -0.394365  -0.220025
     4  H    0.257877   0.036871
     5  C    0.462981   0.918169
     6  C    0.150089   0.001106
     7  O   -0.376439   0.020511
     8  O   -0.301075   0.003374
     9  C   -0.243091   0.001734
    10  C   -0.574216   0.003597
    11  H    0.223449   0.000518
    12  H    0.236992  -0.000316
    13  H    0.211352   0.000319
    14  H    0.220651   0.000068
    15  H    0.236518   0.000104
 Sum of Mulliken charges =  -0.00000   1.00000

 Dipole moment (field-independent basis, Debye):
    X=             -2.1492    Y=             -0.8407    Z=             -0.2365  Tot=              2.3199
 Quadrupole moment (field-independent basis, Debye-Ang):
   XX=            -46.4116   YY=            -53.7930   ZZ=            -47.6621
   XY=             11.3314   XZ=              1.7116   YZ=              1.0598

  Exact polarizability:  90.225  -8.112  72.401   3.085   1.827  46.275
 Approx polarizability:  94.983 -18.996  90.232   4.425   2.898  48.834

 ******    3 imaginary frequencies (negative Signs) ******

                      1                      2                      3
                      A                      A                      A
 Frequencies --   -357.2461              -308.7280               -74.8704
 Red. masses --     10.8266                 1.0720                 6.8363
 Frc consts  --      0.8141                 0.0602                 0.0226
 IR Inten    --     91.2061               121.1495                 0.0499

                      4                      5                      6
                      A                      A                      A
 Frequencies --     24.2890                70.3811               156.6267
 Red. masses --      2.5813                 5.2755                 5.6618
 Frc consts  --      0.0009                 0.0154                 0.0818
 IR Inten    --      1.8673                 1.9111                12.7925

                      7                      8                      9
                      A                      A                      A
 Frequencies --    177.7992               293.3882               329.9551
 Red. masses --      1.1989                 2.7575                 3.3520
 Frc consts  --      0.0223                 0.1398                 0.2150
 IR Inten    --      3.9836                15.3620                28.5467

                     10                     11                     12
                      A                      A                      A
 Frequencies --    351.8554               422.0847               571.8814
 Red. masses --      5.0683                 3.8323                 5.5887
 Frc consts  --      0.3697                 0.4023                 1.0769
 IR Inten    --      3.8593                 1.5065                 6.5017

                     13                     14                     15
                      A                      A                      A
 Frequencies --    604.6448               749.4329               813.6709
 Red. masses --      5.3915                11.4598                 1.3394
 Frc consts  --      1.1613                 3.7922                 0.5225
 IR Inten    --     15.5922                29.6193                10.1971

                     16                     17                     18
                      A                      A                      A
 Frequencies --    852.1661               888.7050               938.2706
 Red. masses --      1.4038                 2.8606                 2.5826
 Frc consts  --      0.6006                 1.3311                 1.3396
 IR Inten    --     34.6976                18.2048                 2.3582

                     19                     20                     21
                      A                      A                      A
 Frequencies --   1031.3603              1102.3167              1154.5927
 Red. masses --      1.1397                 3.9754                 2.0126
 Frc consts  --      0.7143                 2.8461                 1.5807
 IR Inten    --     49.3601                 7.5820                16.8269

                     22                     23                     24
                      A                      A                      A
 Frequencies --   1205.8446              1227.8016              1306.6101
 Red. masses --      1.1799                 1.7056                 3.5015
 Frc consts  --      1.0109                 1.5149                 3.5220
 IR Inten    --     28.7383                 1.4741               436.2362

                     25                     26                     27
                      A                      A                      A
 Frequencies --   1363.5328              1440.5171              1457.8884
 Red. masses --      1.3068                 1.3100                 1.2509
 Frc consts  --      1.4315                 1.6016                 1.5665
 IR Inten    --    110.5664                10.3818                19.7142

                     28                     29                     30
                      A                      A                      A
 Frequencies --   1528.5811              1537.6321              1545.5357
 Red. masses --      1.0415                 1.0667                 1.0725
 Frc consts  --      1.4338                 1.4859                 1.5094
 IR Inten    --     16.2347                 3.3151                21.3200

                     31                     32                     33
                      A                      A                      A
 Frequencies --   1871.4775              1911.7299              3107.7293
 Red. masses --      9.3075                10.5615                 1.0352
 Frc consts  --     19.2066                22.7419                 5.8904
 IR Inten    --    117.4290               383.0962                11.6566

                     34                     35                     36
                      A                      A                      A
 Frequencies --   3140.1695              3187.6973              3192.2266
 Red. masses --      1.0598                 1.1006                 1.1026
 Frc consts  --      6.1574                 6.5894                 6.6197
 IR Inten    --     17.7694                12.6341                 5.4103

                     37                     38                     39
                      A                      A                      A
 Frequencies --   3212.7718              3317.3064              3845.2480
 Red. masses --      1.1057                 1.1085                 1.0675
 Frc consts  --      6.7242                 7.1874                 9.2993
 IR Inten    --     14.2699                 8.6722                29.9611

 - Thermochemistry -
 -------------------
 Temperature   298.150 Kelvin.  Pressure   1.00000 Atm.
 Atom     1 has atomic number  8 and mass  15.99491

 Molecular mass:   115.03952 amu.
 Principal axes and moments of inertia in atomic units:
                           1         2         3
     Eigenvalues --   480.383691564.954481899.74246
           X            0.99961   0.02722  -0.00541
           Y           -0.02722   0.99963  -0.00011
           Z            0.00540   0.00026   0.99999
 This molecule is an asymmetric top.
 Rotational symmetry number  1.
 Warning -- assumption of classical behavior for rotation
           may cause significant error
 Rotational temperatures (Kelvin)      0.18030     0.05535     0.04559
 Rotational constants (GHZ):           3.75687     1.15322     0.94999
    3 imaginary frequencies ignored.
 Zero-point vibrational energy     298670.0 (Joules/Mol)
                                   71.38384 (Kcal/Mol)
 Warning -- explicit consideration of  10 degrees of freedom as
           vibrations may cause significant error
 Vibrational temperatures:     34.95   101.26   225.35   255.81   422.12
          (Kelvin)            474.73   506.24   607.29   822.81   869.95
                             1078.27  1170.69  1226.08  1278.65  1349.96
                             1483.90  1585.99  1661.20  1734.94  1766.53
                             1879.92  1961.82  2072.58  2097.58  2199.29
                             2212.31  2223.68  2692.64  2750.55  4471.33
                             4518.00  4586.39  4592.90  4622.46  4772.86
                             5532.45

 Zero-point correction=                           0.113757 (Hartree/Particle)
 Thermal correction to Energy=                    0.121786
 Thermal correction to Enthalpy=                  0.122730
 Thermal correction to Gibbs Free Energy=         0.078752
 Sum of electronic and zero-point Energies=           -419.869733
 Sum of electronic and thermal Energies=              -419.861704
 Sum of electronic and thermal Enthalpies=            -419.860760
 Sum of electronic and thermal Free Energies=         -419.904738

                     E (Thermal)             CV                S
                      KCal/Mol        Cal/Mol-Kelvin    Cal/Mol-Kelvin
 Total                   76.422             26.914             92.560
 Electronic               0.000              0.000              1.377
 Translational            0.889              2.981             40.136
 Rotational               0.889              2.981             28.748
 Vibrational             74.645             20.952             22.299
 Vibration     1          0.593              1.985              6.248
 Vibration     2          0.598              1.968              4.143
 Vibration     3          0.620              1.895              2.590
 Vibration     4          0.628              1.870              2.351
 Vibration     5          0.688              1.686              1.454
 Vibration     6          0.713              1.616              1.260
 Vibration     7          0.728              1.571              1.158
 Vibration     8          0.784              1.422              0.885
 Vibration     9          0.928              1.092              0.501
 Vibration    10          0.963              1.022              0.442

 Normal termination of Gaussian 16 at Fri Jun 20 14:22:23 2025.
