 Gaussian 16, Revision A.03,
 Gaussian 16:  ES64L-G16RevA.03 25-Dec-2016

 -------------------
 # freq 6-31+g m062x
 -------------------

 -------------------
 Title Card Required
 -------------------
 Symbolic Z-matrix:
 Charge =  0 Multiplicity = 2

                         Standard orientation:
 ---------------------------------------------------------------------
 Center     Atomic      Atomic             Coordinates (Angstroms)
 Number     Number       Type             X           Y           Z
 ---------------------------------------------------------------------
      1          8           0        2.776302   -1.357817    0.025610
      2          1           0        1.869020   -1.639699   -0.169408
      3          6           0        2.548857    0.491533    0.243562
      4          1           0        3.573863    0.740294    0.435190
      5          6           0        1.357100    0.797527    0.102524
      6          6           0       -0.080840    0.783624   -0.115848
      7          8           0       -0.777790    1.757809   -0.080285
      8          8           0       -0.498201   -0.461868   -0.363900
      9          6           0       -1.918136   -0.625812   -0.583689
     10          6           0       -2.671487   -0.651991    0.730928
     11          1           0       -1.994380   -1.573410   -1.113540
     12          1           0       -2.263485    0.182014   -1.229471
     13          1           0       -3.728059   -0.849579    0.540475
     14          1           0       -2.283826   -1.440618    1.377379
     15          1           0       -2.588588    0.306722    1.243113
 ---------------------------------------------------------------------

 SCF Done:  E(UM062X) =  -419.961547310     A.U. after   20 cycles

 The electronic state is 2-A.
 Alpha  occ. eigenvalues --  -19.72284 -19.67805 -19.66925 -10.74440 -10.63817
 Alpha  occ. eigenvalues --  -10.62789 -10.61362 -10.55577  -1.29450  -1.20203
 Alpha  occ. eigenvalues --   -1.11532  -0.93531  -0.89287  -0.80076  -0.73027
 Alpha  occ. eigenvalues --   -0.66089  -0.63243  -0.59967  -0.58290  -0.55398
 Alpha  occ. eigenvalues --   -0.52478  -0.50833  -0.48953  -0.48211  -0.46381
 Alpha  occ. eigenvalues --   -0.43396  -0.41965  -0.40285  -0.39670  -0.36760
 Alpha  occ. eigenvalues --   -0.32639
 Alpha virt. eigenvalues --   -0.03229   0.01328   0.02837   0.03008   0.03586
 Alpha virt. eigenvalues --    0.04325   0.05550   0.06186   0.07159   0.07654
 Alpha virt. eigenvalues --    0.08052   0.08376   0.08886   0.10849   0.11718

  Beta  occ. eigenvalues --  -19.72251 -19.67735 -19.65842 -10.74485 -10.63977
  Beta  occ. eigenvalues --  -10.62782 -10.60880 -10.55577  -1.29330  -1.20036
  Beta  occ. eigenvalues --   -1.07714  -0.92324  -0.88712  -0.79898  -0.72533
  Beta  occ. eigenvalues --   -0.65961  -0.62786  -0.59755  -0.58022  -0.55203
  Beta  occ. eigenvalues --   -0.50898  -0.50116  -0.48110  -0.46580  -0.43297
  Beta  occ. eigenvalues --   -0.41282  -0.40874  -0.39870  -0.39037  -0.34732
  Beta virt. eigenvalues --   -0.10085  -0.03222   0.01348   0.02760   0.02967
  Beta virt. eigenvalues --    0.03901   0.04421   0.06155   0.06562   0.07051
  Beta virt. eigenvalues --    0.07697   0.08122   0.08551   0.09211   0.11084

 Mulliken charges and spin densities:
               1          2
     1  O   -0.527260   0.570276
     2  H    0.419743  -0.018146
     3  C   -0.235324  -0.275249
     4  H    0.281180   0.030902
     5  C    0.525124   0.657028
     6  C   -0.113051   0.015306
     7  O   -0.369929   0.017921
     8  O   -0.285126  -0.000506
     9  C   -0.255773  -0.000747
    10  C   -0.571482   0.002603
    11  H    0.224699   0.000409
    12  H    0.236977  -0.000105
    13  H    0.212096   0.000204
    14  H    0.221738   0.000038
    15  H    0.236389   0.000068
 Sum of Mulliken charges =  -0.00000   1.00000

 Dipole moment (field-independent basis, Debye):
    X=             -2.2721    Y=             -0.6833    Z=             -0.2230  Tot=              2.3831
 Quadrupole moment (field-independent basis, Debye-Ang):
   XX=            -45.7563   YY=            -53.5276   ZZ=            -47.6212
   XY=             11.5505   XZ=              1.7799   YZ=              1.1124

  Exact polarizability:  91.693 -11.141  79.196   2.925   2.240  46.146
 Approx polarizability:  98.506 -20.794  93.444   4.882   2.895  48.424

 ******    4 imaginary frequencies (negative Signs) ******

                      1                      2                      3
                      A                      A                      A
 Frequencies --   -812.4435              -394.5060               -92.2268
 Red. masses --     10.8989                 1.0640                 7.3615
 Frc consts  --      4.2386                 0.0976                 0.0369
 IR Inten    --     26.8583               135.9690                 0.1951

                      4                      5                      6
                      A                      A                      A
 Frequencies --    -55.7465                38.0847               126.2533
 Red. masses --      4.4742                 2.9613                 4.4064
 Frc consts  --      0.0082                 0.0025                 0.0414
 IR Inten    --      1.6315                 1.7122                15.1591

                      7                      8                      9
                      A                      A                      A
 Frequencies --    175.2002               250.3077               264.1433
 Red. masses --      1.2210                 3.6319                 4.0133
 Frc consts  --      0.0221                 0.1341                 0.1650
 IR Inten    --      3.0985                 8.5054                 6.8160

                     10                     11                     12
                      A                      A                      A
 Frequencies --    316.3919               414.8009               560.7322
 Red. masses --      3.4183                 3.8434                 6.3033
 Frc consts  --      0.2016                 0.3896                 1.1677
 IR Inten    --      7.8125                 3.2144                 6.8568

                     13                     14                     15
                      A                      A                      A
 Frequencies --    592.5943               759.5141               805.4802
 Red. masses --      5.2697                 9.6474                 1.3609
 Frc consts  --      1.0903                 3.2789                 0.5202
 IR Inten    --      9.2970                37.0665                57.1921

                     16                     17                     18
                      A                      A                      A
 Frequencies --    806.8473               824.9531               892.4230
 Red. masses --      1.3140                 1.1748                 2.8014
 Frc consts  --      0.5040                 0.4711                 1.3145
 IR Inten    --    102.3255                61.8490                10.0761

                     19                     20                     21
                      A                      A                      A
 Frequencies --    941.3163               977.9049              1104.6264
 Red. masses --      2.2650                 1.1865                 4.1957
 Frc consts  --      1.1825                 0.6685                 3.0164
 IR Inten    --      2.3691                 1.6474                 6.8412

                     22                     23                     24
                      A                      A                      A
 Frequencies --   1155.1520              1226.5152              1305.0208
 Red. masses --      2.0302                 1.7549                 3.6678
 Frc consts  --      1.5961                 1.5554                 3.6804
 IR Inten    --     18.1171                 9.7279               455.9971

                     25                     26                     27
                      A                      A                      A
 Frequencies --   1363.4396              1440.7816              1458.1164
 Red. masses --      1.3029                 1.3117                 1.2502
 Frc consts  --      1.4271                 1.6043                 1.5661
 IR Inten    --    107.2688                12.2476                19.1534

                     28                     29                     30
                      A                      A                      A
 Frequencies --   1528.6380              1537.4803              1545.4384
 Red. masses --      1.0414                 1.0664                 1.0728
 Frc consts  --      1.4338                 1.4853                 1.5097
 IR Inten    --     16.5125                 3.2931                22.2800

                     31                     32                     33
                      A                      A                      A
 Frequencies --   1905.8451              2043.2268              3108.2473
 Red. masses --     12.0595                 6.8698                 1.0352
 Frc consts  --     25.8080                16.8978                 5.8923
 IR Inten    --    340.4673               106.1615                11.2962

                     34                     35                     36
                      A                      A                      A
 Frequencies --   3140.4530              3188.6326              3192.6043
 Red. masses --      1.0600                 1.1005                 1.1025
 Frc consts  --      6.1595                 6.5928                 6.6212
 IR Inten    --     17.2936                12.4698                 5.1577

                     37                     38                     39
                      A                      A                      A
 Frequencies --   3213.3894              3425.8851              3824.7219
 Red. masses --      1.1057                 1.1330                 1.0679
 Frc consts  --      6.7269                 7.8350                 9.2037
 IR Inten    --     13.6555                40.0623                26.2634

 - Thermochemistry -
 -------------------
 Temperature   298.150 Kelvin.  Pressure   1.00000 Atm.
 Atom     1 has atomic number  8 and mass  15.99491

 Molecular mass:   115.03952 amu.
 Principal axes and moments of inertia in atomic units:
                           1         2         3
     Eigenvalues --   495.721591566.541361916.10053
           X            0.99961   0.02720  -0.00550
           Y           -0.02720   0.99963  -0.00019
           Z            0.00550   0.00034   0.99998
 This molecule is an asymmetric top.
 Rotational symmetry number  1.
 Warning -- assumption of classical behavior for rotation
           may cause significant error
 Rotational temperatures (Kelvin)      0.17472     0.05529     0.04520
 Rotational constants (GHZ):           3.64063     1.15205     0.94188
    4 imaginary frequencies ignored.
 Zero-point vibrational energy     295807.6 (Joules/Mol)
                                   70.69970 (Kcal/Mol)
 Warning -- explicit consideration of   9 degrees of freedom as
           vibrations may cause significant error
 Vibrational temperatures:     54.80   181.65   252.07   360.14   380.04
          (Kelvin)            455.22   596.81   806.77   852.61  1092.77
                             1158.91  1160.87  1186.92  1284.00  1354.34
                             1406.99  1589.31  1662.01  1764.68  1877.63
                             1961.69  2072.96  2097.90  2199.37  2212.09
                             2223.54  2742.09  2939.75  4472.07  4518.41
                             4587.73  4593.45  4623.35  4929.08  5502.92

 Zero-point correction=                           0.112667 (Hartree/Particle)
 Thermal correction to Energy=                    0.120204
 Thermal correction to Enthalpy=                  0.121148
 Thermal correction to Gibbs Free Energy=         0.078822
 Sum of electronic and zero-point Energies=           -419.848880
 Sum of electronic and thermal Energies=              -419.841343
 Sum of electronic and thermal Enthalpies=            -419.840399
 Sum of electronic and thermal Free Energies=         -419.882725

                     E (Thermal)             CV                S
                      KCal/Mol        Cal/Mol-Kelvin    Cal/Mol-Kelvin
 Total                   75.429             25.828             89.083
 Electronic               0.000              0.000              1.377
 Translational            0.889              2.981             40.136
 Rotational               0.889              2.981             28.788
 Vibrational             73.652             19.866             18.782
 Vibration     1          0.594              1.982              5.356
 Vibration     2          0.611              1.927              3.002
 Vibration     3          0.627              1.873              2.379
 Vibration     4          0.663              1.762              1.728
 Vibration     5          0.671              1.739              1.634
 Vibration     6          0.703              1.642              1.329
 Vibration     7          0.778              1.438              0.910
 Vibration     8          0.916              1.116              0.522
 Vibration     9          0.950              1.048              0.463

 Normal termination of Gaussian 16 at Fri Jun 20 14:17:41 2025.
