 Gaussian 16, Revision A.03,
 Gaussian 16:  ES64L-G16RevA.03 25-Dec-2016

 --------------------------
 # ccsd(t)/6-311++g(d,p) sp
 --------------------------

 -------------------
 Title Card Required
 -------------------
 Symbolic Z-matrix:
 Charge =  0 Multiplicity = 2

                         Standard orientation:
 ---------------------------------------------------------------------
 Center     Atomic      Atomic             Coordinates (Angstroms)
 Number     Number       Type             X           Y           Z
 ---------------------------------------------------------------------
      1          8           0        2.782904   -1.418440    0.024748
      2          1           0        1.865160   -1.673450   -0.167375
      3          6           0        2.542551    0.599457    0.254046
      4          1           0        3.589043    0.708751    0.428782
      5          6           0        1.355940    0.790101    0.097321
      6          6           0       -0.081888    0.784501   -0.119575
      7          8           0       -0.780739    1.756712   -0.089150
      8          8           0       -0.498381   -0.464010   -0.361722
      9          6           0       -1.917216   -0.630442   -0.580519
     10          6           0       -2.670878   -0.651198    0.734143
     11          1           0       -1.993178   -1.580709   -1.105820
     12          1           0       -2.264066    0.173726   -1.230129
     13          1           0       -3.727246   -0.851067    0.544900
     14          1           0       -2.282121   -1.436000    1.384638
     15          1           0       -2.588925    0.310153    1.241496
 ---------------------------------------------------------------------

 SCF Done:  E(UHF) =  -417.983962927     A.U. after   34 cycles
 E2 =    -0.1255136314D+01 EUMP2 =    -0.41923909924097D+03
 CCSD(T)= -0.41935443295D+03

 The electronic state is 2-A.
 Alpha  occ. eigenvalues --  -20.62394 -20.61862 -20.57167 -11.42042 -11.30584
 Alpha  occ. eigenvalues --  -11.27051 -11.26601 -11.23291  -1.49168  -1.39402
 Alpha  occ. eigenvalues --   -1.37566  -1.09572  -1.04574  -0.92807  -0.84558
 Alpha  occ. eigenvalues --   -0.77437  -0.73840  -0.70737  -0.67516  -0.66142
 Alpha  occ. eigenvalues --   -0.64618  -0.64021  -0.59514  -0.56364  -0.55014
 Alpha  occ. eigenvalues --   -0.54784  -0.51536  -0.49361  -0.48131  -0.43221
 Alpha  occ. eigenvalues --   -0.42188
 Alpha virt. eigenvalues --    0.03700   0.04729   0.05468   0.05986   0.07467
 Alpha virt. eigenvalues --    0.08904   0.08928   0.09204   0.11365   0.12287
 Alpha virt. eigenvalues --    0.12741   0.13599   0.14628   0.15191   0.16795

  Beta  occ. eigenvalues --  -20.62358 -20.58015 -20.56739 -11.42390 -11.30571
  Beta  occ. eigenvalues --  -11.28700 -11.24674 -11.23290  -1.48896  -1.38674
  Beta  occ. eigenvalues --   -1.23617  -1.07681  -1.04577  -0.93392  -0.84346
  Beta  occ. eigenvalues --   -0.77251  -0.73522  -0.70186  -0.67140  -0.64092
  Beta  occ. eigenvalues --   -0.62275  -0.59106  -0.55504  -0.54882  -0.51432
  Beta  occ. eigenvalues --   -0.50777  -0.48484  -0.47116  -0.44172  -0.42622
  Beta virt. eigenvalues --    0.03673   0.04650   0.05395   0.05699   0.07278
  Beta virt. eigenvalues --    0.07504   0.08616   0.08950   0.10294   0.11915
  Beta virt. eigenvalues --    0.12677   0.13249   0.13829   0.14237   0.15040

 Mulliken charges and spin densities:
               1          2
     1  O   -0.245943   0.913619
     2  H    0.262884  -0.031305
     3  C   -2.473909  -0.864896
     4  H    0.202476   0.070425
     5  C    2.271890   0.858410
     6  C    0.105937  -0.029886
     7  O   -0.274364   0.085722
     8  O   -0.122887  -0.005140
     9  C   -0.180781   0.001191
    10  C   -0.346899   0.001447
    11  H    0.167393   0.000164
    12  H    0.180667  -0.000149
    13  H    0.136146   0.000215
    14  H    0.143418  -0.000060
    15  H    0.173973   0.000243
 Sum of Mulliken charges =  -0.00000   1.00000

 Dipole moment (field-independent basis, Debye):
    X=             -1.3200    Y=             -1.9655    Z=             -0.2838  Tot=              2.3846
 Quadrupole moment (field-independent basis, Debye-Ang):
   XX=            -42.7487   YY=            -52.3268   ZZ=            -47.3901
   XY=              7.9353   XZ=              1.6715   YZ=              1.0379

 0=-419.2812843\MP4SDQ=-419.2953652\CCSD=-419.3007563\CCSD(T)=-419.3544
 Normal termination of Gaussian 16 at Tue Aug  5 17:37:22 2025.
