 Gaussian 16, Revision A.03,
 Gaussian 16:  ES64L-G16RevA.03 25-Dec-2016

 --------------------------
 # ccsd(t)/6-311++g(d,p) sp
 --------------------------

 -------------------
 Title Card Required
 -------------------
 Symbolic Z-matrix:
 Charge =  0 Multiplicity = 2

                         Standard orientation:
 ---------------------------------------------------------------------
 Center     Atomic      Atomic             Coordinates (Angstroms)
 Number     Number       Type             X           Y           Z
 ---------------------------------------------------------------------
      1          8           0        2.789544   -1.472563    0.024453
      2          1           0        1.860605   -1.690498   -0.164111
      3          6           0        2.540496    0.682059    0.261252
      4          1           0        3.592243    0.715318    0.426019
      5          6           0        1.353689    0.792293    0.093661
      6          6           0       -0.082989    0.784257   -0.123039
      7          8           0       -0.783842    1.754991   -0.097119
      8          8           0       -0.498614   -0.466522   -0.359883
      9          6           0       -1.916760   -0.634754   -0.577707
     10          6           0       -2.670393   -0.650556    0.737124
     11          1           0       -1.992878   -1.587159   -1.099218
     12          1           0       -2.264491    0.166573   -1.230384
     13          1           0       -3.726684   -0.851969    0.549057
     14          1           0       -2.280928   -1.432287    1.390928
     15          1           0       -2.588832    0.312987    1.240348
 ---------------------------------------------------------------------

 SCF Done:  E(UHF) =  -417.989521521     A.U. after   32 cycles
 E2 =    -0.1258284426D+01 EUMP2 =    -0.41924780594648D+03
 CCSD(T)= -0.41935625679D+03

 The electronic state is 2-A.
 Alpha  occ. eigenvalues --  -20.62419 -20.62238 -20.57099 -11.42118 -11.30584
 Alpha  occ. eigenvalues --  -11.26806 -11.26283 -11.23288  -1.49129  -1.39310
 Alpha  occ. eigenvalues --   -1.37870  -1.09215  -1.04550  -0.92921  -0.84508
 Alpha  occ. eigenvalues --   -0.77381  -0.73709  -0.70683  -0.67465  -0.66735
 Alpha  occ. eigenvalues --   -0.64887  -0.64179  -0.59465  -0.56250  -0.55079
 Alpha  occ. eigenvalues --   -0.54968  -0.51517  -0.49301  -0.48011  -0.43061
 Alpha  occ. eigenvalues --   -0.42145
 Alpha virt. eigenvalues --    0.03688   0.04680   0.05467   0.05982   0.07476
 Alpha virt. eigenvalues --    0.08772   0.08929   0.09209   0.11310   0.12288
 Alpha virt. eigenvalues --    0.12735   0.13561   0.14567   0.15204   0.16474

  Beta  occ. eigenvalues --  -20.62396 -20.58217 -20.56775 -11.42376 -11.30576
  Beta  occ. eigenvalues --  -11.27984 -11.24888 -11.23288  -1.48933  -1.38765
  Beta  occ. eigenvalues --   -1.22921  -1.07874  -1.04573  -0.93368  -0.84386
  Beta  occ. eigenvalues --   -0.77256  -0.73495  -0.70260  -0.67184  -0.64132
  Beta  occ. eigenvalues --   -0.62461  -0.59159  -0.55590  -0.54901  -0.51426
  Beta  occ. eigenvalues --   -0.50495  -0.48632  -0.47256  -0.43551  -0.42701
  Beta virt. eigenvalues --    0.03661   0.04631   0.05411   0.05750   0.07406
  Beta virt. eigenvalues --    0.07669   0.08565   0.08958   0.10498   0.12011
  Beta virt. eigenvalues --    0.12713   0.12931   0.13813   0.14336   0.15106

 Mulliken charges and spin densities:
               1          2
     1  O   -0.248153   0.962116
     2  H    0.260731  -0.033939
     3  C   -2.850013  -0.666928
     4  H    0.192475   0.053155
     5  C    2.652020   0.645934
     6  C    0.114456  -0.022839
     7  O   -0.273319   0.064362
     8  O   -0.114255  -0.003830
     9  C   -0.187700   0.000584
    10  C   -0.348953   0.001087
    11  H    0.167502   0.000109
    12  H    0.180963  -0.000060
    13  H    0.136654   0.000141
    14  H    0.143410  -0.000045
    15  H    0.174181   0.000153
 Sum of Mulliken charges =  -0.00000   1.00000

 Dipole moment (field-independent basis, Debye):
    X=             -1.2776    Y=             -2.0859    Z=             -0.2860  Tot=              2.4628
 Quadrupole moment (field-independent basis, Debye-Ang):
   XX=            -42.4499   YY=            -52.3487   ZZ=            -47.4443
   XY=              7.7044   XZ=              1.6446   YZ=              1.0545

 1\PMP3-0=-419.283255\MP4SDQ=-419.3012356\CCSD=-419.3034159\CCSD(T)=-41
 Normal termination of Gaussian 16 at Wed Aug 27 01:41:32 2025.
