 Gaussian 16, Revision A.03,
 Gaussian 16:  ES64L-G16RevA.03 25-Dec-2016

 --------------------------
 # freq 6-311++g(d,p) m062x
 --------------------------

 -------------------
 Title Card Required
 -------------------
 Symbolic Z-matrix:
 Charge =  0 Multiplicity = 2

                         Standard orientation:
 ---------------------------------------------------------------------
 Center     Atomic      Atomic             Coordinates (Angstroms)
 Number     Number       Type             X           Y           Z
 ---------------------------------------------------------------------
      1          8           0        2.792806   -1.501595    0.024453
      2          1           0        1.858355   -1.698032   -0.162081
      3          6           0        2.539983    0.721053    0.264203
      4          1           0        3.592346    0.734699    0.426217
      5          6           0        1.352809    0.796358    0.092197
      6          6           0       -0.083741    0.783898   -0.124986
      7          8           0       -0.785785    1.753821   -0.101454
      8          8           0       -0.498457   -0.467887   -0.358862
      9          6           0       -1.916596   -0.637132   -0.576193
     10          6           0       -2.670180   -0.650097    0.738731
     11          1           0       -1.992553   -1.590720   -1.095562
     12          1           0       -2.264600    0.162643   -1.230607
     13          1           0       -3.726449   -0.852137    0.551206
     14          1           0       -2.280509   -1.430246    1.394306
     15          1           0       -2.588753    0.314610    1.239725
 ---------------------------------------------------------------------

 SCF Done:  E(UM062X) =  -420.208534896     A.U. after   23 cycles

 The electronic state is 2-A.
 Alpha  occ. eigenvalues --  -19.69437 -19.66755 -19.64174 -10.71569 -10.61482
 Alpha  occ. eigenvalues --  -10.58443 -10.57546 -10.54521  -1.26578  -1.17426
 Alpha  occ. eigenvalues --   -1.12519  -0.91542  -0.87846  -0.78939  -0.71436
 Alpha  occ. eigenvalues --   -0.65437  -0.62124  -0.59473  -0.57377  -0.54750
 Alpha  occ. eigenvalues --   -0.54191  -0.50289  -0.49659  -0.47683  -0.46187
 Alpha  occ. eigenvalues --   -0.43005  -0.42386  -0.39992  -0.39436  -0.37677
 Alpha  occ. eigenvalues --   -0.35479
 Alpha virt. eigenvalues --   -0.02284  -0.00758   0.00798   0.01330   0.01668
 Alpha virt. eigenvalues --    0.02896   0.04645   0.04962   0.05070   0.06286
 Alpha virt. eigenvalues --    0.06625   0.07064   0.08133   0.09014   0.10394

  Beta  occ. eigenvalues --  -19.69433 -19.65202 -19.64156 -10.71580 -10.61481
  Beta  occ. eigenvalues --  -10.58452 -10.57428 -10.54521  -1.26551  -1.17379
  Beta  occ. eigenvalues --   -1.05071  -0.91237  -0.87598  -0.78879  -0.71315
  Beta  occ. eigenvalues --   -0.65387  -0.61854  -0.59400  -0.57314  -0.54474
  Beta  occ. eigenvalues --   -0.51485  -0.50198  -0.47636  -0.46234  -0.42961
  Beta  occ. eigenvalues --   -0.40314  -0.39713  -0.39553  -0.37535  -0.36667
  Beta virt. eigenvalues --   -0.08437  -0.02242  -0.00628   0.01000   0.01367
  Beta virt. eigenvalues --    0.01820   0.02954   0.04941   0.05031   0.05428
  Beta virt. eigenvalues --    0.06629   0.06708   0.07109   0.08288   0.09152

 Mulliken charges and spin densities:
               1          2
     1  O   -0.282492   0.912065
     2  H    0.251955  -0.016957
     3  C   -0.485010  -0.052825
     4  H    0.217433   0.011365
     5  C    0.940247   0.130744
     6  C   -0.620549   0.013050
     7  O   -0.204821   0.003483
     8  O   -0.028656  -0.002381
     9  C   -0.300350   0.001443
    10  C   -0.395857  -0.000019
    11  H    0.193321   0.000172
    12  H    0.197633  -0.000128
    13  H    0.167472   0.000070
    14  H    0.165361  -0.000126
    15  H    0.184314   0.000045
 Sum of Mulliken charges =  -0.00000   1.00000

 Dipole moment (field-independent basis, Debye):
    X=             -1.6584    Y=             -1.5431    Z=             -0.2335  Tot=              2.2772
 Quadrupole moment (field-independent basis, Debye-Ang):
   XX=            -42.9492   YY=            -52.0495   ZZ=            -47.4953
   XY=              8.5099   XZ=              1.5696   YZ=              1.0671

  Exact polarizability:  93.783  -3.289  70.891   3.058   1.405  50.195
 Approx polarizability: 104.326  -8.795  81.865   5.926   1.687  57.727

 ******    2 imaginary frequencies (negative Signs) ******

                      1                      2                      3
                      A                      A                      A
 Frequencies --    -59.8300               -36.4499                76.0787
 Red. masses --      6.0892                 6.5524                 3.3651
 Frc consts  --      0.0128                 0.0051                 0.0115
 IR Inten    --      5.3094                 0.9145                 1.4053

                      4                      5                      6
                      A                      A                      A
 Frequencies --    115.5904               178.9135               221.4364
 Red. masses --      3.5274                 3.5162                 1.7098
 Frc consts  --      0.0278                 0.0663                 0.0494
 IR Inten    --      1.4136                 5.3231                16.2997

                      7                      8                      9
                      A                      A                      A
 Frequencies --    225.1717               242.4607               261.6174
 Red. masses --      1.2155                 2.6607                 4.0409
 Frc consts  --      0.0363                 0.0922                 0.1630
 IR Inten    --     85.3670                 4.1335                 5.7783

                     10                     11                     12
                      A                      A                      A
 Frequencies --    338.0475               423.0108               571.4085
 Red. masses --      2.9281                 3.8651                 3.8153
 Frc consts  --      0.1971                 0.4075                 0.7340
 IR Inten    --      9.3475                 2.5542                 3.2160

                     13                     14                     15
                      A                      A                      A
 Frequencies --    604.6734               636.4634               771.7300
 Red. masses --      8.8087                 1.0875                 1.1464
 Frc consts  --      1.8976                 0.2596                 0.4023
 IR Inten    --      7.1865               149.7512                53.6165

                     16                     17                     18
                      A                      A                      A
 Frequencies --    778.3480               784.6486               802.1067
 Red. masses --      1.9600                 2.6477                 1.2421
 Frc consts  --      0.6996                 0.9604                 0.4708
 IR Inten    --      2.3049                57.1596                 8.5310

                     19                     20                     21
                      A                      A                      A
 Frequencies --    893.1589               929.6508              1074.4173
 Red. masses --      3.1549                 2.7856                 4.1674
 Frc consts  --      1.4828                 1.4184                 2.8344
 IR Inten    --     16.2060                 4.6038                23.6083

                     22                     23                     24
                      A                      A                      A
 Frequencies --   1127.7522              1203.1212              1268.9521
 Red. masses --      2.0732                 1.7792                 5.3785
 Frc consts  --      1.5536                 1.5173                 5.1027
 IR Inten    --     22.3229                 7.3661               595.2188

                     25                     26                     27
                      A                      A                      A
 Frequencies --   1346.5894              1402.2404              1431.4493
 Red. masses --      1.1629                 1.2573                 1.3580
 Frc consts  --      1.2425                 1.4566                 1.6395
 IR Inten    --     48.4012                17.1628                 8.5502

                     28                     29                     30
                      A                      A                      A
 Frequencies --   1493.4703              1502.7827              1514.8273
 Red. masses --      1.0405                 1.0623                 1.0808
 Frc consts  --      1.3674                 1.4134                 1.4612
 IR Inten    --     11.4654                 2.0151                17.1091

                     31                     32                     33
                      A                      A                      A
 Frequencies --   1850.3227              2239.4912              3075.6948
 Red. masses --     12.1033                 5.8859                 1.0354
 Frc consts  --     24.4147                17.3926                 5.7711
 IR Inten    --    370.5423                81.2537                 9.2008

                     34                     35                     36
                      A                      A                      A
 Frequencies --   3108.6216              3150.7817              3155.7390
 Red. masses --      1.0605                 1.1019                 1.1048
 Frc consts  --      6.0379                 6.4449                 6.4824
 IR Inten    --     16.9759                12.7947                 2.7239

                     37                     38                     39
                      A                      A                      A
 Frequencies --   3175.7784              3490.0156              3771.8352
 Red. masses --      1.1075                 1.1660                 1.0675
 Frc consts  --      6.5813                 8.3678                 8.9479
 IR Inten    --     12.6635                74.3703                28.2119

 - Thermochemistry -
 -------------------
 Temperature   298.150 Kelvin.  Pressure   1.00000 Atm.
 Atom     1 has atomic number  8 and mass  15.99491

 Molecular mass:   115.03952 amu.
 Principal axes and moments of inertia in atomic units:
                           1         2         3
     Eigenvalues --   532.419371570.397801955.47699
           X            0.99960   0.02786  -0.00577
           Y           -0.02786   0.99961  -0.00030
           Z            0.00576   0.00046   0.99998
 This molecule is an asymmetric top.
 Rotational symmetry number  1.
 Warning -- assumption of classical behavior for rotation
           may cause significant error
 Rotational temperatures (Kelvin)      0.16268     0.05515     0.04429
 Rotational constants (GHZ):           3.38970     1.14923     0.92292
    2 imaginary frequencies ignored.
 Zero-point vibrational energy     294511.0 (Joules/Mol)
                                   70.38982 (Kcal/Mol)
 Warning -- explicit consideration of  11 degrees of freedom as
           vibrations may cause significant error
 Vibrational temperatures:    109.46   166.31   257.42   318.60   323.97
          (Kelvin)            348.85   376.41   486.37   608.62   822.13
                              869.99   915.73  1110.35  1119.87  1128.93
                             1154.05  1285.06  1337.56  1545.85  1622.58
                             1731.02  1825.74  1937.44  2017.51  2059.54
                             2148.77  2162.17  2179.50  2662.20  3222.13
                             4425.24  4472.61  4533.27  4540.40  4569.24
                             5021.35  5426.83

 Zero-point correction=                           0.112173 (Hartree/Particle)
 Thermal correction to Energy=                    0.120796
 Thermal correction to Enthalpy=                  0.121741
 Thermal correction to Gibbs Free Energy=         0.077992
 Sum of electronic and zero-point Energies=           -420.096362
 Sum of electronic and thermal Energies=              -420.087739
 Sum of electronic and thermal Enthalpies=            -420.086794
 Sum of electronic and thermal Free Energies=         -420.130543

                     E (Thermal)             CV                S
                      KCal/Mol        Cal/Mol-Kelvin    Cal/Mol-Kelvin
 Total                   75.801             30.132             92.076
 Electronic               0.000              0.000              1.377
 Translational            0.889              2.981             40.136
 Rotational               0.889              2.981             28.882
 Vibrational             74.023             24.170             21.681
 Vibration     1          0.599              1.965              3.990
 Vibration     2          0.608              1.936              3.173
 Vibration     3          0.629              1.868              2.340
 Vibration     4          0.648              1.808              1.947
 Vibration     5          0.650              1.803              1.917
 Vibration     6          0.659              1.775              1.785
 Vibration     7          0.669              1.743              1.651
 Vibration     8          0.718              1.599              1.221
 Vibration     9          0.785              1.420              0.882
 Vibration    10          0.928              1.093              0.502
 Vibration    11          0.963              1.022              0.442

 1\1\GINC-AJ\Freq\UM062X\6-311++G(d,p)\C5H7O3(2)\AAYUSH\16-Aug-2025\0\\
 # freq 6-311++g(d,p) m062x\\Title Card Required\\0,2\O,2.72639,-1.5440
 89,0.022244\H,1.791614,-1.737467,-0.165852\C,2.47736,0.677054,0.279285
 \H,3.529736,0.687636,0.441443\C,1.290326,0.755729,0.107823\C,-0.146232
 ,0.747421,-0.109509\O,-0.846615,1.718332,-0.078453\O,-0.563077,-0.5017
 93,-0.353143\C,-1.981492,-0.666912,-0.571842\C,-2.735168,-0.688826,0.7
 4291\H,-2.059054,-1.616295,-1.098625\H,-2.328091,0.13853,-1.220022\H,-
 3.791772,-0.88759,0.553775\H,-2.346869,-1.474722,1.392406\H,-2.652117,

 Normal termination of Gaussian 16 at Sat Aug 16 18:46:56 2025.
