 Gaussian 16, Revision A.03,
 Gaussian 16:  ES64L-G16RevA.03 25-Dec-2016

 --------------------------
 # freq 6-311++g(d,p) m062x
 --------------------------

 -------------------
 Title Card Required
 -------------------
 Symbolic Z-matrix:
 Charge =  0 Multiplicity = 2

                         Standard orientation:
 ---------------------------------------------------------------------
 Center     Atomic      Atomic             Coordinates (Angstroms)
 Number     Number       Type             X           Y           Z
 ---------------------------------------------------------------------
      1          8           0        2.772944   -1.322504    0.026582
      2          1           0        1.871949   -1.618595   -0.169990
      3          6           0        2.552783    0.426625    0.236754
      4          1           0        3.556461    0.758670    0.437612
      5          6           0        1.358084    0.805886    0.106160
      6          6           0       -0.079459    0.782902   -0.113652
      7          8           0       -0.776424    1.757954   -0.075365
      8          8           0       -0.498389   -0.461189   -0.365283
      9          6           0       -1.918501   -0.623402   -0.585526
     10          6           0       -2.671799   -0.652609    0.729044
     11          1           0       -1.995591   -1.569472   -1.118000
     12          1           0       -2.263109    0.186556   -1.229009
     13          1           0       -3.728525   -0.848947    0.538091
     14          1           0       -2.284707   -1.443337    1.373288
     15          1           0       -2.588188    0.304637    1.243850
 ---------------------------------------------------------------------

 SCF Done:  E(UM062X) =  -420.218986229     A.U. after   19 cycles

 The electronic state is 2-A.
 Alpha  occ. eigenvalues --  -19.69699 -19.64481 -19.64190 -10.71866 -10.63747
 Alpha  occ. eigenvalues --  -10.61648 -10.59966 -10.54646  -1.26914  -1.17754
 Alpha  occ. eigenvalues --   -1.10471  -0.92723  -0.88491  -0.79396  -0.72429
 Alpha  occ. eigenvalues --   -0.65840  -0.62852  -0.59801  -0.57736  -0.54914
 Alpha  occ. eigenvalues --   -0.52739  -0.50537  -0.48911  -0.47851  -0.46170
 Alpha  occ. eigenvalues --   -0.43229  -0.42349  -0.40191  -0.39596  -0.36136
 Alpha  occ. eigenvalues --   -0.32052
 Alpha virt. eigenvalues --   -0.03297  -0.00732   0.00761   0.01243   0.01543
 Alpha virt. eigenvalues --    0.02733   0.04486   0.04932   0.05769   0.06184
 Alpha virt. eigenvalues --    0.06963   0.07050   0.08224   0.08874   0.10203

  Beta  occ. eigenvalues --  -19.69656 -19.64402 -19.63492 -10.71911 -10.63905
  Beta  occ. eigenvalues --  -10.61639 -10.59364 -10.54646  -1.26755  -1.17527
  Beta  occ. eigenvalues --   -1.07934  -0.91164  -0.87593  -0.79220  -0.71808
  Beta  occ. eigenvalues --   -0.65631  -0.62244  -0.59492  -0.57434  -0.54624
  Beta  occ. eigenvalues --   -0.51198  -0.50210  -0.47754  -0.46406  -0.43177
  Beta  occ. eigenvalues --   -0.42675  -0.41557  -0.39899  -0.38998  -0.34476
  Beta virt. eigenvalues --   -0.09149  -0.03105  -0.00685   0.00850   0.01284
  Beta virt. eigenvalues --    0.01746   0.02854   0.04854   0.05036   0.05794
  Beta virt. eigenvalues --    0.06252   0.06979   0.07687   0.08516   0.08885

 Mulliken charges and spin densities:
               1          2
     1  O   -0.332822   0.368034
     2  H    0.250418  -0.003982
     3  C   -1.312326  -0.259557
     4  H    0.203162   0.030986
     5  C    1.394849   0.701251
     6  C   -0.178330   0.136883
     7  O   -0.215802   0.017110
     8  O   -0.039222   0.002178
     9  C   -0.289698   0.003709
    10  C   -0.392772   0.002686
    11  H    0.199304   0.000335
    12  H    0.197110  -0.000254
    13  H    0.167134   0.000405
    14  H    0.165977  -0.000187
    15  H    0.183017   0.000404
 Sum of Mulliken charges =  -0.00000   1.00000

 Dipole moment (field-independent basis, Debye):
    X=             -2.0283    Y=             -0.6535    Z=             -0.1769  Tot=              2.1383
 Quadrupole moment (field-independent basis, Debye-Ang):
   XX=            -44.9479   YY=            -52.7568   ZZ=            -47.4057
   XY=             10.9839   XZ=              1.7983   YZ=              1.0734

  Exact polarizability:  94.742  -8.344  76.731   2.415   1.869  50.193
 Approx polarizability: 101.570 -17.291  96.507   4.092   2.705  58.282

 ******    1 imaginary frequencies (negative Signs) ******

                      1                      2                      3
                      A                      A                      A
 Frequencies --   -673.2040                69.0282               103.7952
 Red. masses --     11.6429                 3.6303                 5.9849
 Frc consts  --      3.1089                 0.0102                 0.0380
 IR Inten    --     23.7441                 0.0091                 1.4863

                      4                      5                      6
                      A                      A                      A
 Frequencies --    113.5064               168.5785               217.9332
 Red. masses --      3.7612                 5.1744                 1.2298
 Frc consts  --      0.0286                 0.0866                 0.0344
 IR Inten    --      1.5300                 2.8965                 2.6684

                      7                      8                      9
                      A                      A                      A
 Frequencies --    266.3237               303.4309               328.2982
 Red. masses --      1.2884                 2.9240                 2.2273
 Frc consts  --      0.0538                 0.1586                 0.1414
 IR Inten    --     44.9694                 6.4433                64.8228

                     10                     11                     12
                      A                      A                      A
 Frequencies --    352.9513               424.5781               553.0220
 Red. masses --      4.2258                 4.0002                 5.8302
 Frc consts  --      0.3102                 0.4249                 1.0506
 IR Inten    --      3.9803                 0.9494                 6.7536

                     13                     14                     15
                      A                      A                      A
 Frequencies --    598.5693               766.7561               798.6402
 Red. masses --      5.4442                 4.4036                 1.3902
 Frc consts  --      1.1492                 1.5254                 0.5224
 IR Inten    --      9.1739                 3.9638                29.3008

                     16                     17                     18
                      A                      A                      A
 Frequencies --    802.4735               886.4264               922.4076
 Red. masses --      1.4958                 3.0444                 2.7272
 Frc consts  --      0.5675                 1.4094                 1.3671
 IR Inten    --     27.8262                19.0482                 7.9389

                     19                     20                     21
                      A                      A                      A
 Frequencies --    960.7570              1065.9764              1126.7644
 Red. masses --      1.1114                 3.7970                 2.0564
 Frc consts  --      0.6044                 2.5421                 1.5382
 IR Inten    --     62.4471                22.5577                21.6504

                     22                     23                     24
                      A                      A                      A
 Frequencies --   1127.1429              1202.4405              1260.0055
 Red. masses --      1.1307                 1.7801                 5.5003
 Frc consts  --      0.8464                 1.5164                 5.1450
 IR Inten    --     26.8591                 7.8800               545.1987

                     25                     26                     27
                      A                      A                      A
 Frequencies --   1345.4724              1401.9101              1431.0041
 Red. masses --      1.1554                 1.2520                 1.3512
 Frc consts  --      1.2324                 1.4497                 1.6302
 IR Inten    --     40.0965                12.9844                 8.9145

                     28                     29                     30
                      A                      A                      A
 Frequencies --   1493.7297              1503.2060              1515.0619
 Red. masses --      1.0403                 1.0624                 1.0800
 Frc consts  --      1.3676                 1.4145                 1.4606
 IR Inten    --     12.4771                 1.5267                15.8632

                     31                     32                     33
                      A                      A                      A
 Frequencies --   1829.3987              1903.4464              3075.4985
 Red. masses --     11.4566                 7.7839                 1.0354
 Frc consts  --     22.5902                16.6160                 5.7702
 IR Inten    --    318.6874               193.0096                 8.7604

                     34                     35                     36
                      A                      A                      A
 Frequencies --   3109.3131              3151.0708              3155.7625
 Red. masses --      1.0605                 1.1017                 1.1048
 Frc consts  --      6.0410                 6.4452                 6.4825
 IR Inten    --     16.0736                12.7241                 2.2655

                     37                     38                     39
                      A                      A                      A
 Frequencies --   3176.4004              3329.8685              3821.1411
 Red. masses --      1.1078                 1.1176                 1.0681
 Frc consts  --      6.5852                 7.3012                 9.1883
 IR Inten    --     11.5308                20.8283                45.1110

 - Thermochemistry -
 -------------------
 Temperature   298.150 Kelvin.  Pressure   1.00000 Atm.
 Atom     1 has atomic number  8 and mass  15.99491

 Molecular mass:   115.03952 amu.
 Principal axes and moments of inertia in atomic units:
                           1         2         3
     Eigenvalues --   487.880311565.946841907.94465
           X            0.99961   0.02728  -0.00544
           Y           -0.02728   0.99963  -0.00012
           Z            0.00544   0.00027   0.99999
 This molecule is an asymmetric top.
 Rotational symmetry number  1.
 Warning -- assumption of classical behavior for rotation
           may cause significant error
 Rotational temperatures (Kelvin)      0.17753     0.05531     0.04540
 Rotational constants (GHZ):           3.69915     1.15249     0.94591
    1 imaginary frequencies ignored.
 Zero-point vibrational energy     297045.3 (Joules/Mol)
                                   70.99552 (Kcal/Mol)
 Warning -- explicit consideration of  12 degrees of freedom as
           vibrations may cause significant error
 Vibrational temperatures:     99.32   149.34   163.31   242.55   313.56
          (Kelvin)            383.18   436.57   472.35   507.82   610.87
                              795.68   861.21  1103.19  1149.07  1154.58
                             1275.37  1327.14  1382.32  1533.70  1621.16
                             1621.71  1730.04  1812.87  1935.83  2017.04
                             2058.90  2149.14  2162.78  2179.84  2632.10
                             2738.63  4424.96  4473.61  4533.69  4540.44
                             4570.13  4790.94  5497.77

 Zero-point correction=                           0.113139 (Hartree/Particle)
 Thermal correction to Energy=                    0.122144
 Thermal correction to Enthalpy=                  0.123088
 Thermal correction to Gibbs Free Energy=         0.078344
 Sum of electronic and zero-point Energies=           -420.105848
 Sum of electronic and thermal Energies=              -420.096842
 Sum of electronic and thermal Enthalpies=            -420.095898
 Sum of electronic and thermal Free Energies=         -420.140642

                     E (Thermal)             CV                S
                      KCal/Mol        Cal/Mol-Kelvin    Cal/Mol-Kelvin
 Total                   76.646             30.890             94.172
 Electronic               0.000              0.000              1.377
 Translational            0.889              2.981             40.136
 Rotational               0.889              2.981             28.768
 Vibrational             74.869             24.929             23.891
 Vibration     1          0.598              1.969              4.181
 Vibration     2          0.605              1.946              3.382
 Vibration     3          0.607              1.938              3.208
 Vibration     4          0.625              1.881              2.451
 Vibration     5          0.646              1.814              1.976
 Vibration     6          0.672              1.735              1.620
 Vibration     7          0.695              1.667              1.398
 Vibration     8          0.712              1.619              1.268
 Vibration     9          0.729              1.569              1.153
 Vibration    10          0.787              1.417              0.877
 Vibration    11          0.908              1.133              0.538
 Vibration    12          0.957              1.035              0.452

 1\1\GINC-AJ\Freq\UM062X\6-311++G(d,p)\C5H7O3(2)\AAYUSH\23-Jun-2025\0\\
 # freq 6-311++g(d,p) m062x\\Title Card Required\\0,2\O,2.772944,-1.322
 504,0.026582\H,1.871949,-1.618595,-0.16999\C,2.552783,0.426625,0.23675
 4\H,3.556461,0.75867,0.437612\C,1.358084,0.805886,0.10616\C,-0.079459,
 0.782902,-0.113652\O,-0.776424,1.757954,-0.075365\O,-0.498389,-0.46118
 9,-0.365283\C,-1.918501,-0.623402,-0.585526\C,-2.671799,-0.652609,0.72
 9044\H,-1.995591,-1.569472,-1.118\H,-2.263109,0.186556,-1.229009\H,-3.
 728525,-0.848947,0.538091\H,-2.284707,-1.443337,1.373288\H,-2.588188,0

 Normal termination of Gaussian 16 at Mon Jun 23 06:36:21 2025.
