 Gaussian 16, Revision A.03,
 Gaussian 16:  ES64L-G16RevA.03 25-Dec-2016

 --------------------------
 # ccsd(t)/6-311++g(d,p) sp
 --------------------------

 -------------------
 Title Card Required
 -------------------
 Symbolic Z-matrix:
 Charge =  0 Multiplicity = 2

                         Standard orientation:
 ---------------------------------------------------------------------
 Center     Atomic      Atomic             Coordinates (Angstroms)
 Number     Number       Type             X           Y           Z
 ---------------------------------------------------------------------
      1          8           0        2.776302   -1.357817    0.025610
      2          1           0        1.869020   -1.639699   -0.169408
      3          6           0        2.548857    0.491533    0.243562
      4          1           0        3.573863    0.740294    0.435190
      5          6           0        1.357100    0.797527    0.102524
      6          6           0       -0.080840    0.783624   -0.115848
      7          8           0       -0.777790    1.757809   -0.080285
      8          8           0       -0.498201   -0.461868   -0.363900
      9          6           0       -1.918136   -0.625812   -0.583689
     10          6           0       -2.671487   -0.651991    0.730928
     11          1           0       -1.994380   -1.573410   -1.113540
     12          1           0       -2.263485    0.182014   -1.229471
     13          1           0       -3.728059   -0.849579    0.540475
     14          1           0       -2.283826   -1.440618    1.377379
     15          1           0       -2.588588    0.306722    1.243113
 ---------------------------------------------------------------------

 SCF Done:  E(UHF) =  -417.981328646     A.U. after   32 cycles
 E2 =    -0.1252756558D+01 EUMP2 =    -0.41923408520473D+03
 CCSD(T)= -0.41935828903D+03

 The electronic state is 2-A.
 Alpha  occ. eigenvalues --  -20.62475 -20.60907 -20.57398 -11.42050 -11.30657
 Alpha  occ. eigenvalues --  -11.28453 -11.27677 -11.23349  -1.49345  -1.39642
 Alpha  occ. eigenvalues --   -1.36434  -1.10299  -1.04715  -0.92803  -0.84889
 Alpha  occ. eigenvalues --   -0.77624  -0.73855  -0.70892  -0.67695  -0.65181
 Alpha  occ. eigenvalues --   -0.64292  -0.62859  -0.59657  -0.56609  -0.55084
 Alpha  occ. eigenvalues --   -0.53924  -0.51625  -0.49547  -0.48394  -0.43615
 Alpha  occ. eigenvalues --   -0.42663
 Alpha virt. eigenvalues --    0.03716   0.04818   0.05455   0.05985   0.07434
 Alpha virt. eigenvalues --    0.08875   0.08958   0.09200   0.11307   0.12222
 Alpha virt. eigenvalues --    0.12686   0.13565   0.14713   0.15126   0.16949

  Beta  occ. eigenvalues --  -20.62418 -20.57618 -20.56827 -11.42511 -11.30729
  Beta  occ. eigenvalues --  -11.30637 -11.24939 -11.23348  -1.48960  -1.38660
  Beta  occ. eigenvalues --   -1.25215  -1.07426  -1.04533  -0.93511  -0.84458
  Beta  occ. eigenvalues --   -0.77340  -0.73424  -0.70183  -0.67183  -0.64127
  Beta  occ. eigenvalues --   -0.61875  -0.59100  -0.55488  -0.54923  -0.51634
  Beta  occ. eigenvalues --   -0.51245  -0.48426  -0.47024  -0.45985  -0.42350
  Beta virt. eigenvalues --    0.03701   0.04754   0.05264   0.05554   0.06846
  Beta virt. eigenvalues --    0.07446   0.08412   0.08909   0.10009   0.11750
  Beta virt. eigenvalues --    0.12549   0.13440   0.13742   0.14171   0.15036

 Mulliken charges and spin densities:
               1          2
     1  O   -0.263200   0.776569
     2  H    0.262639  -0.025487
     3  C   -1.938485  -1.101215
     4  H    0.206996   0.085774
     5  C    1.869465   1.179350
     6  C   -0.018092  -0.030496
     7  O   -0.276375   0.115561
     8  O   -0.125728  -0.005193
     9  C   -0.172947   0.002590
    10  C   -0.345697   0.001824
    11  H    0.167380   0.000347
    12  H    0.180867  -0.000284
    13  H    0.135681   0.000334
    14  H    0.143885  -0.000077
    15  H    0.173612   0.000403
 Sum of Mulliken charges =  -0.00000   1.00000

 Dipole moment (field-independent basis, Debye):
    X=             -1.5240    Y=             -1.5294    Z=             -0.2614  Tot=              2.1748
 Quadrupole moment (field-independent basis, Debye-Ang):
   XX=            -43.8645   YY=            -52.5860   ZZ=            -47.3062
   XY=              9.1121   XZ=              1.7306   YZ=              1.0493

 5\PMP3-0=-419.2863217\MP4SDQ=-419.2936782\CCSD=-419.3033202\CCSD(T)=-4
 Normal termination of Gaussian 16 at Wed Aug 27 08:41:11 2025.
