 Gaussian 16, Revision A.03,
 Gaussian 16:  ES64L-G16RevA.03 25-Dec-2016

 --------------------------
 # ccsd(t)/6-311++g(d,p) sp
 --------------------------

 -------------------
 Title Card Required
 -------------------
 Symbolic Z-matrix:
 Charge =  0 Multiplicity = 2

                         Standard orientation:
 ---------------------------------------------------------------------
 Center     Atomic      Atomic             Coordinates (Angstroms)
 Number     Number       Type             X           Y           Z
 ---------------------------------------------------------------------
      1          8           0        2.794343   -1.516447    0.024481
      2          1           0        1.857322   -1.701872   -0.161033
      3          6           0        2.539685    0.739948    0.265540
      4          1           0        3.592275    0.748071    0.426723
      5          6           0        1.352438    0.799012    0.091510
      6          6           0       -0.084119    0.783785   -0.125933
      7          8           0       -0.786964    1.753156   -0.103696
      8          8           0       -0.498204   -0.468559   -0.358313
      9          6           0       -1.916419   -0.638390   -0.575412
     10          6           0       -2.670055   -0.649894    0.739519
     11          1           0       -1.992236   -1.592611   -1.093643
     12          1           0       -2.264567    0.160540   -1.230771
     13          1           0       -3.726298   -0.852261    0.552199
     14          1           0       -2.280348   -1.429240    1.396029
     15          1           0       -2.588729    0.315407    1.239379
 ---------------------------------------------------------------------

 SCF Done:  E(UHF) =  -417.993208726     A.U. after   32 cycles
 E2 =    -0.1259583130D+01 EUMP2 =    -0.41925279185596D+03
 CCSD(T)= -0.41935790921D+03

 The electronic state is 2-A.
 Alpha  occ. eigenvalues --  -20.62469 -20.62389 -20.57086 -11.42200 -11.30613
 Alpha  occ. eigenvalues --  -11.26818 -11.26232 -11.23306  -1.49140  -1.39281
 Alpha  occ. eigenvalues --   -1.37912  -1.09040  -1.04569  -0.93002  -0.84517
 Alpha  occ. eigenvalues --   -0.77374  -0.73553  -0.70669  -0.67461  -0.66969
 Alpha  occ. eigenvalues --   -0.65014  -0.64211  -0.59461  -0.56201  -0.55123
 Alpha  occ. eigenvalues --   -0.54986  -0.51529  -0.49293  -0.47970  -0.43017
 Alpha  occ. eigenvalues --   -0.42238
 Alpha virt. eigenvalues --    0.03683   0.04757   0.05481   0.05988   0.07476
 Alpha virt. eigenvalues --    0.08652   0.08967   0.09223   0.11481   0.12363
 Alpha virt. eigenvalues --    0.12741   0.13480   0.14637   0.15202   0.16892

  Beta  occ. eigenvalues --  -20.62454 -20.58315 -20.56827 -11.42405 -11.30607
  Beta  occ. eigenvalues --  -11.27729 -11.25140 -11.23305  -1.48988  -1.38846
  Beta  occ. eigenvalues --   -1.22577  -1.07994  -1.04587  -0.93360  -0.84437
  Beta  occ. eigenvalues --   -0.77285  -0.73427  -0.70328  -0.67237  -0.64171
  Beta  occ. eigenvalues --   -0.62538  -0.59214  -0.55669  -0.54930  -0.51452
  Beta  occ. eigenvalues --   -0.50327  -0.48753  -0.47370  -0.43334  -0.42751
  Beta virt. eigenvalues --    0.03660   0.04721   0.05442   0.05769   0.07409
  Beta virt. eigenvalues --    0.07794   0.08494   0.08989   0.10724   0.12051
  Beta virt. eigenvalues --    0.12753   0.12850   0.13770   0.14483   0.15164

 Mulliken charges and spin densities:
               1          2
     1  O   -0.248438   0.982447
     2  H    0.257840  -0.035289
     3  C   -0.555637  -0.503640
     4  H    0.230058   0.041674
     5  C    1.086701   0.533917
     6  C   -0.648756  -0.069164
     7  O   -0.273528   0.051719
     8  O   -0.109095  -0.002589
     9  C   -0.186930  -0.000337
    10  C   -0.350664   0.000992
    11  H    0.162687   0.000146
    12  H    0.181592   0.000010
    13  H    0.136821   0.000129
    14  H    0.142796  -0.000043
    15  H    0.174552   0.000029
 Sum of Mulliken charges =  -0.00000   1.00000

 Dipole moment (field-independent basis, Debye):
    X=             -1.2950    Y=             -2.0821    Z=             -0.2814  Tot=              2.4681
 Quadrupole moment (field-independent basis, Debye-Ang):
   XX=            -42.4418   YY=            -52.4073   ZZ=            -47.4755
   XY=              7.8459   XZ=              1.6345   YZ=              1.0892

 377\PMP3-0=-419.285314\MP4SDQ=-419.3048422\CCSD=-419.3054709\CCSD(T)=-
 Normal termination of Gaussian 16 at Tue Aug 26 23:10:53 2025.
