 Gaussian 16, Revision A.03,
 Gaussian 16:  ES64L-G16RevA.03 25-Dec-2016

 --------------------------
 # ccsd(t)/6-311++g(d,p) sp
 --------------------------

 -------------------
 Title Card Required
 -------------------
 Symbolic Z-matrix:
 Charge =  0 Multiplicity = 2

                         Standard orientation:
 ---------------------------------------------------------------------
 Center     Atomic      Atomic             Coordinates (Angstroms)
 Number     Number       Type             X           Y           Z
 ---------------------------------------------------------------------
      1          8           0        2.774068   -1.334359    0.026210
      2          1           0        1.870873   -1.625361   -0.169816
      3          6           0        2.551650    0.448190    0.239070
      4          1           0        3.562879    0.753557    0.437038
      5          6           0        1.357548    0.802973    0.104887
      6          6           0       -0.080013    0.783122   -0.114397
      7          8           0       -0.776856    1.757940   -0.076987
      8          8           0       -0.498310   -0.461376   -0.364812
      9          6           0       -1.918398   -0.624197   -0.584910
     10          6           0       -2.671696   -0.652398    0.729683
     11          1           0       -1.995152   -1.570775   -1.116507
     12          1           0       -2.263240    0.185050   -1.229166
     13          1           0       -3.728367   -0.849145    0.538883
     14          1           0       -2.284418   -1.442435    1.374649
     15          1           0       -2.588337    0.305332    1.243628
 ---------------------------------------------------------------------

 SCF Done:  E(UHF) =  -417.984005286     A.U. after   32 cycles
 E2 =    -0.1255071538D+01 EUMP2 =    -0.41923907682357D+03
 CCSD(T)= -0.41936361937D+03

 The electronic state is 2-A.
 Alpha  occ. eigenvalues --  -20.62524 -20.60362 -20.57508 -11.42073 -11.30692
 Alpha  occ. eigenvalues --  -11.29532 -11.28210 -11.23376  -1.49420  -1.39733
 Alpha  occ. eigenvalues --   -1.35740  -1.10632  -1.04797  -0.92871  -0.85116
 Alpha  occ. eigenvalues --   -0.77729  -0.73906  -0.70953  -0.67773  -0.65067
 Alpha  occ. eigenvalues --   -0.63990  -0.62019  -0.59701  -0.56704  -0.55108
 Alpha  occ. eigenvalues --   -0.53451  -0.51657  -0.49618  -0.48490  -0.43758
 Alpha  occ. eigenvalues --   -0.42856
 Alpha virt. eigenvalues --    0.03722   0.04839   0.05448   0.05986   0.07418
 Alpha virt. eigenvalues --    0.08865   0.08915   0.09184   0.11251   0.12172
 Alpha virt. eigenvalues --    0.12651   0.13560   0.14719   0.15090   0.16923

  Beta  occ. eigenvalues --  -20.62459 -20.57480 -20.56892 -11.42564 -11.31902
  Beta  occ. eigenvalues --  -11.30670 -11.25200 -11.23376  -1.48994  -1.38671
  Beta  occ. eigenvalues --   -1.26274  -1.07327  -1.04451  -0.93560  -0.84542
  Beta  occ. eigenvalues --   -0.77396  -0.73410  -0.70196  -0.67213  -0.64167
  Beta  occ. eigenvalues --   -0.61710  -0.59104  -0.55510  -0.54953  -0.51959
  Beta  occ. eigenvalues --   -0.51376  -0.48509  -0.47250  -0.46886  -0.42111
  Beta virt. eigenvalues --    0.03714   0.04806   0.05142   0.05509   0.06697
  Beta virt. eigenvalues --    0.07430   0.08249   0.08893   0.09924   0.11679
  Beta virt. eigenvalues --    0.12471   0.13442   0.13705   0.14160   0.15073

 Mulliken charges and spin densities:
               1          2
     1  O   -0.283447   0.678235
     2  H    0.262164  -0.021987
     3  C   -1.734573  -1.133916
     4  H    0.207011   0.087287
     5  C    1.729354   1.287534
     6  C   -0.062196  -0.024179
     7  O   -0.277606   0.125079
     8  O   -0.124959  -0.004312
     9  C   -0.171190   0.003451
    10  C   -0.346239   0.001907
    11  H    0.167424   0.000468
    12  H    0.181077  -0.000331
    13  H    0.135547   0.000376
    14  H    0.144190  -0.000081
    15  H    0.173444   0.000469
 Sum of Mulliken charges =  -0.00000   1.00000

 Dipole moment (field-independent basis, Debye):
    X=             -1.6240    Y=             -1.2997    Z=             -0.2466  Tot=              2.0946
 Quadrupole moment (field-independent basis, Debye-Ang):
   XX=            -44.4502   YY=            -52.7924   ZZ=            -47.2699
   XY=              9.7616   XZ=              1.7618   YZ=              1.0540

 3-0=-419.2917748\MP4SDQ=-419.2986316\CCSD=-419.3084363\CCSD(T)=-419.36
 Normal termination of Gaussian 16 at Wed Aug  6 00:15:56 2025.
