 Gaussian 16, Revision A.03,
 Gaussian 16:  ES64L-G16RevA.03 25-Dec-2016

 -------------------
 # freq 6-31+g m062x
 -------------------

 -------------------
 Title Card Required
 -------------------
 Symbolic Z-matrix:
 Charge =  0 Multiplicity = 2

                         Standard orientation:
 ---------------------------------------------------------------------
 Center     Atomic      Atomic             Coordinates (Angstroms)
 Number     Number       Type             X           Y           Z
 ---------------------------------------------------------------------
      1          8           0        2.787854   -1.458517    0.024490
      2          1           0        1.861777   -1.686726   -0.165057
      3          6           0        2.540798    0.661910    0.259592
      4          1           0        3.591963    0.709729    0.426363
      5          6           0        1.354240    0.791074    0.094516
      6          6           0       -0.082643    0.784395   -0.122122
      7          8           0       -0.782991    1.755486   -0.095040
      8          8           0       -0.498595   -0.465859   -0.360362
      9          6           0       -1.916837   -0.633622   -0.578436
     10          6           0       -2.670504   -0.650756    0.736341
     11          1           0       -1.992955   -1.585464   -1.100959
     12          1           0       -2.264391    0.168446   -1.230297
     13          1           0       -3.726810   -0.851804    0.547973
     14          1           0       -2.281194   -1.433278    1.389286
     15          1           0       -2.588858    0.312215    1.240649
 ---------------------------------------------------------------------

 SCF Done:  E(UM062X) =  -419.961301984     A.U. after   23 cycles

 The electronic state is 2-A.
 Alpha  occ. eigenvalues --  -19.71948 -19.68809 -19.67417 -10.74009 -10.62576
 Alpha  occ. eigenvalues --  -10.60409 -10.59515 -10.55423  -1.29028  -1.19790
 Alpha  occ. eigenvalues --   -1.13251  -0.92483  -0.88708  -0.79598  -0.72189
 Alpha  occ. eigenvalues --   -0.65725  -0.62537  -0.59587  -0.57880  -0.55095
 Alpha  occ. eigenvalues --   -0.53546  -0.50588  -0.49558  -0.48007  -0.46319
 Alpha  occ. eigenvalues --   -0.43161  -0.42128  -0.39983  -0.39379  -0.37791
 Alpha  occ. eigenvalues --   -0.35189
 Alpha virt. eigenvalues --   -0.02483   0.01470   0.02690   0.03059   0.03870
 Alpha virt. eigenvalues --    0.04369   0.05480   0.06314   0.07161   0.07763
 Alpha virt. eigenvalues --    0.08333   0.08523   0.08769   0.11134   0.12057

  Beta  occ. eigenvalues --  -19.71940 -19.67391 -19.67231 -10.74025 -10.62574
  Beta  occ. eigenvalues --  -10.60444 -10.59345 -10.55423  -1.28989  -1.19733
  Beta  occ. eigenvalues --   -1.06468  -0.92083  -0.88437  -0.79518  -0.72009
  Beta  occ. eigenvalues --   -0.65672  -0.62214  -0.59508  -0.57783  -0.55001
  Beta  occ. eigenvalues --   -0.50836  -0.50306  -0.47946  -0.46379  -0.43109
  Beta  occ. eigenvalues --   -0.40466  -0.39833  -0.39518  -0.38037  -0.36300
  Beta virt. eigenvalues --   -0.08761  -0.02468   0.01511   0.02864   0.03091
  Beta virt. eigenvalues --    0.04018   0.04482   0.05904   0.06444   0.07272
  Beta virt. eigenvalues --    0.07892   0.08316   0.08668   0.08942   0.11218

 Mulliken charges and spin densities:
               1          2
     1  O   -0.469468   0.888632
     2  H    0.425270  -0.031747
     3  C   -0.125730  -0.147476
     4  H    0.341900   0.010567
     5  C    0.496517   0.246436
     6  C   -0.336799   0.028106
     7  O   -0.358370   0.006863
     8  O   -0.270138  -0.002034
     9  C   -0.262600  -0.000306
    10  C   -0.568247   0.000702
    11  H    0.222219   0.000184
    12  H    0.236207   0.000006
    13  H    0.211502   0.000048
    14  H    0.220227   0.000006
    15  H    0.237509   0.000014
 Sum of Mulliken charges =  -0.00000   1.00000

 Dipole moment (field-independent basis, Debye):
    X=             -1.9273    Y=             -1.4329    Z=             -0.2725  Tot=              2.4170
 Quadrupole moment (field-independent basis, Debye-Ang):
   XX=            -44.4336   YY=            -52.8154   ZZ=            -47.6579
   XY=              9.4412   XZ=              1.5581   YZ=              1.1042

  Exact polarizability:  90.110  -6.259  71.461   3.460   1.641  45.979
 Approx polarizability:  98.974 -13.019  79.277   6.191   1.946  48.051

 ******    5 imaginary frequencies (negative Signs) ******

                      1                      2                      3
                      A                      A                      A
 Frequencies --   -415.0752              -138.0606              -119.3310
 Red. masses --      1.0713                 6.2775                 8.1638
 Frc consts  --      0.1087                 0.0705                 0.0685
 IR Inten    --    152.1376                 0.3733                 2.4838

                      4                      5                      6
                      A                      A                      A
 Frequencies --    -57.3081               -12.6885                39.9453
 Red. masses --      7.0896                 3.5773                 2.6181
 Frc consts  --      0.0137                 0.0003                 0.0025
 IR Inten    --      2.2576                 8.2228                 1.0388

                      7                      8                      9
                      A                      A                      A
 Frequencies --    157.3376               194.6424               238.2848
 Red. masses --      2.2632                 1.8334                 4.0440
 Frc consts  --      0.0330                 0.0409                 0.1353
 IR Inten    --      6.2874                 1.7767                 1.2182

                     10                     11                     12
                      A                      A                      A
 Frequencies --    313.5233               417.5965               506.0642
 Red. masses --      2.9920                 3.7284                 1.1339
 Frc consts  --      0.1733                 0.3831                 0.1711
 IR Inten    --     12.0200                 5.9331               169.2608

                     13                     14                     15
                      A                      A                      A
 Frequencies --    585.7004               612.5265               774.0112
 Red. masses --      3.9836                 9.2486                 3.5482
 Frc consts  --      0.8052                 2.0445                 1.2524
 IR Inten    --     16.4462                10.1700                64.2715

                     16                     17                     18
                      A                      A                      A
 Frequencies --    802.6849               816.5022               849.5183
 Red. masses --      1.1134                 1.2761                 1.7701
 Frc consts  --      0.4227                 0.5012                 0.7527
 IR Inten    --     65.5830                17.9604                13.4939

                     19                     20                     21
                      A                      A                      A
 Frequencies --    896.8882               946.8307              1110.4509
 Red. masses --      3.2306                 2.6100                 4.2523
 Frc consts  --      1.5311                 1.3786                 3.0894
 IR Inten    --     19.4527                 4.8559                 6.2721

                     22                     23                     24
                      A                      A                      A
 Frequencies --   1156.7922              1227.1918              1310.4398
 Red. masses --      2.0621                 1.7614                 3.3829
 Frc consts  --      1.6258                 1.5629                 3.4228
 IR Inten    --     18.2143                 7.8802               466.2062

                     25                     26                     27
                      A                      A                      A
 Frequencies --   1365.0185              1441.4439              1457.6249
 Red. masses --      1.3381                 1.3191                 1.2536
 Frc consts  --      1.4690                 1.6148                 1.5693
 IR Inten    --    130.8360                15.8856                18.6520

                     28                     29                     30
                      A                      A                      A
 Frequencies --   1528.4224              1537.0926              1545.1925
 Red. masses --      1.0416                 1.0680                 1.0720
 Frc consts  --      1.4336                 1.4867                 1.5080
 IR Inten    --     15.5585                 4.0625                22.4564

                     31                     32                     33
                      A                      A                      A
 Frequencies --   1917.0745              2279.3541              3108.1231
 Red. masses --     12.3230                 5.8120                 1.0352
 Frc consts  --     26.6835                17.7909                 5.8920
 IR Inten    --    340.2095                84.4150                11.8687

                     34                     35                     36
                      A                      A                      A
 Frequencies --   3139.2860              3187.7364              3192.1195
 Red. masses --      1.0599                 1.1010                 1.1023
 Frc consts  --      6.1541                 6.5917                 6.6180
 IR Inten    --     18.4502                11.5848                 6.8318

                     37                     38                     39
                      A                      A                      A
 Frequencies --   3212.4785              3523.2665              3794.3349
 Red. masses --      1.1055                 1.1689                 1.0675
 Frc consts  --      6.7216                 8.5492                 9.0552
 IR Inten    --     14.9907                69.6555                11.5721

 - Thermochemistry -
 -------------------
 Temperature   298.150 Kelvin.  Pressure   1.00000 Atm.
 Atom     1 has atomic number  8 and mass  15.99491

 Molecular mass:   115.03952 amu.
 Principal axes and moments of inertia in atomic units:
                           1         2         3
     Eigenvalues --   520.926631568.889141942.82461
           X            0.99961   0.02731  -0.00571
           Y           -0.02731   0.99963  -0.00037
           Z            0.00570   0.00053   0.99998
 This molecule is an asymmetric top.
 Rotational symmetry number  1.
 Warning -- assumption of classical behavior for rotation
           may cause significant error
 Rotational temperatures (Kelvin)      0.16627     0.05521     0.04458
 Rotational constants (GHZ):           3.46448     1.15033     0.92893
    5 imaginary frequencies ignored.
 Zero-point vibrational energy     294194.6 (Joules/Mol)
                                   70.31420 (Kcal/Mol)
 Warning -- explicit consideration of   9 degrees of freedom as
           vibrations may cause significant error
 Vibrational temperatures:     57.47   226.37   280.05   342.84   451.09
          (Kelvin)            600.83   728.11   842.69   881.29  1113.63
                             1154.88  1174.76  1222.27  1290.42  1362.28
                             1597.69  1664.37  1765.66  1885.43  1963.96
                             2073.92  2097.20  2199.06  2211.53  2223.19
                             2758.24  3279.48  4471.90  4516.73  4586.44
                             4592.75  4622.04  5069.19  5459.20

 Zero-point correction=                           0.112053 (Hartree/Particle)
 Thermal correction to Energy=                    0.119188
 Thermal correction to Enthalpy=                  0.120132
 Thermal correction to Gibbs Free Energy=         0.078648
 Sum of electronic and zero-point Energies=           -419.849249
 Sum of electronic and thermal Energies=              -419.842114
 Sum of electronic and thermal Enthalpies=            -419.841170
 Sum of electronic and thermal Free Energies=         -419.882654

                     E (Thermal)             CV                S
                      KCal/Mol        Cal/Mol-Kelvin    Cal/Mol-Kelvin
 Total                   74.792             24.684             87.310
 Electronic               0.000              0.000              1.377
 Translational            0.889              2.981             40.136
 Rotational               0.889              2.981             28.853
 Vibrational             73.014             18.723             16.944
 Vibration     1          0.594              1.981              5.262
 Vibration     2          0.621              1.894              2.582
 Vibration     3          0.635              1.847              2.183
 Vibration     4          0.656              1.782              1.816
 Vibration     5          0.701              1.648              1.344
 Vibration     6          0.781              1.432              0.900
 Vibration     7          0.861              1.237              0.643
 Vibration     8          0.943              1.062              0.475
 Vibration     9          0.972              1.005              0.429

 Normal termination of Gaussian 16 at Fri Jun 20 14:23:11 2025.
