 Gaussian 16, Revision A.03,
 Gaussian 16:  ES64L-G16RevA.03 25-Dec-2016

 --------------------------
 # freq 6-311++g(d,p) m062x
 --------------------------

 -------------------
 Title Card Required
 -------------------
 Symbolic Z-matrix:
 Charge =  0 Multiplicity = 2

                         Standard orientation:
 ---------------------------------------------------------------------
 Center     Atomic      Atomic             Coordinates (Angstroms)
 Number     Number       Type             X           Y           Z
 ---------------------------------------------------------------------
      1          8           0        2.789544   -1.472564    0.024453
      2          1           0        1.860605   -1.690498   -0.164111
      3          6           0        2.540496    0.682059    0.261252
      4          1           0        3.592243    0.715317    0.426019
      5          6           0        1.353689    0.792293    0.093661
      6          6           0       -0.082989    0.784257   -0.123039
      7          8           0       -0.783842    1.754991   -0.097119
      8          8           0       -0.498614   -0.466522   -0.359883
      9          6           0       -1.916760   -0.634754   -0.577707
     10          6           0       -2.670393   -0.650556    0.737124
     11          1           0       -1.992878   -1.587159   -1.099218
     12          1           0       -2.264491    0.166573   -1.230384
     13          1           0       -3.726684   -0.851969    0.549057
     14          1           0       -2.280928   -1.432287    1.390928
     15          1           0       -2.588832    0.312987    1.240348
 ---------------------------------------------------------------------

 SCF Done:  E(UM062X) =  -420.207229809     A.U. after   23 cycles

 The electronic state is 2-A.
 Alpha  occ. eigenvalues --  -19.69450 -19.66454 -19.64207 -10.71602 -10.61490
 Alpha  occ. eigenvalues --  -10.58700 -10.57694 -10.54527  -1.26605  -1.17459
 Alpha  occ. eigenvalues --   -1.12317  -0.91645  -0.87909  -0.78978  -0.71499
 Alpha  occ. eigenvalues --   -0.65467  -0.62263  -0.59499  -0.57407  -0.54698
 Alpha  occ. eigenvalues --   -0.54000  -0.50305  -0.49646  -0.47701  -0.46188
 Alpha  occ. eigenvalues --   -0.43016  -0.42288  -0.39989  -0.39431  -0.37633
 Alpha  occ. eigenvalues --   -0.35146
 Alpha virt. eigenvalues --   -0.02323  -0.00750   0.00776   0.01309   0.01648
 Alpha virt. eigenvalues --    0.02872   0.04643   0.04981   0.05178   0.06155
 Alpha virt. eigenvalues --    0.06551   0.07053   0.08124   0.08961   0.10274

  Beta  occ. eigenvalues --  -19.69444 -19.64926 -19.64185 -10.71616 -10.61488
  Beta  occ. eigenvalues --  -10.58721 -10.57549 -10.54527  -1.26571  -1.17400
  Beta  occ. eigenvalues --   -1.05151  -0.91266  -0.87617  -0.78907  -0.71348
  Beta  occ. eigenvalues --   -0.65406  -0.61948  -0.59412  -0.57328  -0.54491
  Beta  occ. eigenvalues --   -0.51316  -0.50189  -0.47643  -0.46246  -0.42967
  Beta  occ. eigenvalues --   -0.40323  -0.39801  -0.39577  -0.37678  -0.36444
  Beta virt. eigenvalues --   -0.08576  -0.02279  -0.00626   0.00979   0.01353
  Beta virt. eigenvalues --    0.01802   0.02939   0.04932   0.05041   0.05552
  Beta virt. eigenvalues --    0.06502   0.06760   0.07106   0.08296   0.09085

 Mulliken charges and spin densities:
               1          2
     1  O   -0.286582   0.887135
     2  H    0.252185  -0.016130
     3  C   -2.264015  -0.122189
     4  H    0.191590   0.013575
     5  C    2.218352   0.166212
     6  C   -0.091130   0.067747
     7  O   -0.205780   0.004471
     8  O   -0.030688  -0.002527
     9  C   -0.301337   0.001561
    10  C   -0.394708   0.000096
    11  H    0.198553   0.000103
    12  H    0.196852  -0.000109
    13  H    0.166984   0.000086
    14  H    0.165636  -0.000123
    15  H    0.184088   0.000093
 Sum of Mulliken charges =  -0.00000   1.00000

 Dipole moment (field-independent basis, Debye):
    X=             -1.6761    Y=             -1.4895    Z=             -0.2317  Tot=              2.2542
 Quadrupole moment (field-independent basis, Debye-Ang):
   XX=            -42.9946   YY=            -52.0740   ZZ=            -47.4769
   XY=              8.5869   XZ=              1.5971   YZ=              1.0501

  Exact polarizability:  94.314  -4.905  73.171   2.909   1.538  50.224
 Approx polarizability: 104.521 -10.467  83.927   5.715   1.743  57.792

 ******    2 imaginary frequencies (negative Signs) ******

                      1                      2                      3
                      A                      A                      A
 Frequencies --    -65.2675               -37.1387                75.8167
 Red. masses --      6.0515                 6.5211                 3.3516
 Frc consts  --      0.0152                 0.0053                 0.0114
 IR Inten    --      5.4931                 0.7454                 1.2421

                      4                      5                      6
                      A                      A                      A
 Frequencies --    115.4431               133.6006               192.4084
 Red. masses --      3.5034                12.5868                 2.3242
 Frc consts  --      0.0275                 0.1324                 0.0507
 IR Inten    --      1.3036                 9.2965                 2.3264

                      7                      8                      9
                      A                      A                      A
 Frequencies --    226.1851               236.8671               262.9277
 Red. masses --      1.1203                 1.5499                 4.0183
 Frc consts  --      0.0338                 0.0512                 0.1637
 IR Inten    --     89.8869                12.6136                 7.3324

                     10                     11                     12
                      A                      A                      A
 Frequencies --    337.5684               423.0986               573.6022
 Red. masses --      2.9283                 3.8751                 4.2443
 Frc consts  --      0.1966                 0.4087                 0.8228
 IR Inten    --      9.2888                 2.4986                 1.3590

                     13                     14                     15
                      A                      A                      A
 Frequencies --    602.3326               673.7197               778.9485
 Red. masses --      9.0294                 1.0650                 2.1356
 Frc consts  --      1.9301                 0.2848                 0.7634
 IR Inten    --      7.4359               145.4077                 3.5930

                     16                     17                     18
                      A                      A                      A
 Frequencies --    782.1140               785.6302               802.3637
 Red. masses --      1.3702                 1.7215                 1.2371
 Frc consts  --      0.4938                 0.6260                 0.4692
 IR Inten    --     51.3902                60.3592                10.7496

                     19                     20                     21
                      A                      A                      A
 Frequencies --    892.9335               929.7502              1074.3183
 Red. masses --      3.1498                 2.7868                 4.1620
 Frc consts  --      1.4797                 1.4193                 2.8302
 IR Inten    --     16.2917                 4.8075                22.9874

                     22                     23                     24
                      A                      A                      A
 Frequencies --   1127.7563              1203.0817              1267.2164
 Red. masses --      2.0729                 1.7798                 5.4414
 Frc consts  --      1.5533                 1.5178                 5.1483
 IR Inten    --     22.1979                 8.0658               591.2245

                     25                     26                     27
                      A                      A                      A
 Frequencies --   1346.4740              1402.2245              1431.4316
 Red. masses --      1.1610                 1.2563                 1.3572
 Frc consts  --      1.2402                 1.4554                 1.6384
 IR Inten    --     46.4385                16.6887                 8.4873

                     28                     29                     30
                      A                      A                      A
 Frequencies --   1493.5394              1502.8098              1514.8429
 Red. masses --      1.0405                 1.0622                 1.0806
 Frc consts  --      1.3674                 1.4134                 1.4611
 IR Inten    --     11.7103                 1.9476                17.1577

                     31                     32                     33
                      A                      A                      A
 Frequencies --   1850.0185              2225.2173              3075.6455
 Red. masses --     12.0992                 5.9512                 1.0354
 Frc consts  --     24.3982                17.3620                 5.7709
 IR Inten    --    378.0839                81.1847                 9.1643

                     34                     35                     36
                      A                      A                      A
 Frequencies --   3108.4916              3150.7706              3155.6331
 Red. masses --      1.0605                 1.1019                 1.1048
 Frc consts  --      6.0374                 6.4450                 6.4819
 IR Inten    --     16.9475                12.6863                 2.7834

                     37                     38                     39
                      A                      A                      A
 Frequencies --   3175.6825              3485.2080              3776.0787
 Red. masses --      1.1075                 1.1636                 1.0675
 Frc consts  --      6.5809                 8.3276                 8.9684
 IR Inten    --     12.4788                75.0461                28.4997

 - Thermochemistry -
 -------------------
 Temperature   298.150 Kelvin.  Pressure   1.00000 Atm.
 Atom     1 has atomic number  8 and mass  15.99491

 Molecular mass:   115.03952 amu.
 Principal axes and moments of inertia in atomic units:
                           1         2         3
     Eigenvalues --   524.634651569.387441946.91448
           X            0.99961   0.02745  -0.00573
           Y           -0.02746   0.99962  -0.00036
           Z            0.00572   0.00052   0.99998
 This molecule is an asymmetric top.
 Rotational symmetry number  1.
 Warning -- assumption of classical behavior for rotation
           may cause significant error
 Rotational temperatures (Kelvin)      0.16509     0.05519     0.04449
 Rotational constants (GHZ):           3.44000     1.14997     0.92698
    2 imaginary frequencies ignored.
 Zero-point vibrational energy     294232.0 (Joules/Mol)
                                   70.32314 (Kcal/Mol)
 Warning -- explicit consideration of  11 degrees of freedom as
           vibrations may cause significant error
 Vibrational temperatures:    109.08   166.10   192.22   276.83   325.43
          (Kelvin)            340.80   378.29   485.69   608.74   825.29
                              866.62   969.33  1120.73  1125.29  1130.35
                             1154.42  1284.73  1337.70  1545.70  1622.59
                             1730.97  1823.24  1937.28  2017.49  2059.51
                             2148.87  2162.21  2179.52  2661.76  3201.59
                             4425.17  4472.43  4533.26  4540.25  4569.10
                             5014.44  5432.94

 Zero-point correction=                           0.112067 (Hartree/Particle)
 Thermal correction to Energy=                    0.120798
 Thermal correction to Enthalpy=                  0.121742
 Thermal correction to Gibbs Free Energy=         0.077630
 Sum of electronic and zero-point Energies=           -420.095163
 Sum of electronic and thermal Energies=              -420.086432
 Sum of electronic and thermal Enthalpies=            -420.085488
 Sum of electronic and thermal Free Energies=         -420.129599

                     E (Thermal)             CV                S
                      KCal/Mol        Cal/Mol-Kelvin    Cal/Mol-Kelvin
 Total                   75.802             30.137             92.840
 Electronic               0.000              0.000              1.377
 Translational            0.889              2.981             40.136
 Rotational               0.889              2.981             28.862
 Vibrational             74.024             24.176             22.465
 Vibration     1          0.599              1.965              3.996
 Vibration     2          0.608              1.937              3.175
 Vibration     3          0.613              1.920              2.894
 Vibration     4          0.634              1.850              2.205
 Vibration     5          0.650              1.801              1.909
 Vibration     6          0.656              1.784              1.826
 Vibration     7          0.670              1.741              1.642
 Vibration     8          0.718              1.600              1.224
 Vibration     9          0.785              1.420              0.882
 Vibration    10          0.930              1.088              0.497
 Vibration    11          0.961              1.027              0.446

 1\1\GINC-AJ\Freq\UM062X\6-311++G(d,p)\C5H7O3(2)\AAYUSH\23-Jun-2025\0\\
 # freq 6-311++g(d,p) m062x\\Title Card Required\\0,2\O,2.789544,-1.472
 563,0.024453\H,1.860605,-1.690498,-0.164111\C,2.540496,0.682059,0.2612
 52\H,3.592243,0.715318,0.426019\C,1.353689,0.792293,0.093661\C,-0.0829
 89,0.784257,-0.123039\O,-0.783842,1.754991,-0.097119\O,-0.498614,-0.46
 6522,-0.359883\C,-1.91676,-0.634754,-0.577707\C,-2.670393,-0.650556,0.
 737124\H,-1.992878,-1.587159,-1.099218\H,-2.264491,0.166573,-1.230384\
 H,-3.726684,-0.851969,0.549057\H,-2.280928,-1.432287,1.390928\H,-2.588

 Normal termination of Gaussian 16 at Mon Jun 23 06:07:48 2025.
