 Gaussian 16, Revision A.03,
 Gaussian 16:  ES64L-G16RevA.03 25-Dec-2016

 -------------------
 # freq 6-31+g m062x
 -------------------

 -------------------
 Title Card Required
 -------------------
 Symbolic Z-matrix:
 Charge =  0 Multiplicity = 2

                         Standard orientation:
 ---------------------------------------------------------------------
 Center     Atomic      Atomic             Coordinates (Angstroms)
 Number     Number       Type             X           Y           Z
 ---------------------------------------------------------------------
      1          8           0        2.781441   -1.405952    0.024863
      2          1           0        1.865981   -1.667449   -0.167824
      3          6           0        2.543601    0.578022    0.252036
      4          1           0        3.586876    0.713687    0.430000
      5          6           0        1.356326    0.790905    0.098324
      6          6           0       -0.081704    0.784383   -0.118801
      7          8           0       -0.780077    1.757005   -0.087305
      8          8           0       -0.498316   -0.463501   -0.362160
      9          6           0       -1.917406   -0.629447   -0.581176
     10          6           0       -2.671010   -0.651324    0.733472
     11          1           0       -1.993360   -1.579180   -1.107396
     12          1           0       -2.263952    0.175451   -1.230026
     13          1           0       -3.727416   -0.850734    0.543962
     14          1           0       -2.282478   -1.436906    1.383144
     15          1           0       -2.588887    0.309489    1.241819
 ---------------------------------------------------------------------

 SCF Done:  E(UM062X) =  -419.958693947     A.U. after   23 cycles

 The electronic state is 2-A.
 Alpha  occ. eigenvalues --  -19.72097 -19.67863 -19.67598 -10.74223 -10.62675
 Alpha  occ. eigenvalues --  -10.61661 -10.60288 -10.55493  -1.29224  -1.19983
 Alpha  occ. eigenvalues --   -1.12424  -0.92927  -0.88978  -0.79800  -0.72525
 Alpha  occ. eigenvalues --   -0.65884  -0.62904  -0.59754  -0.58062  -0.55225
 Alpha  occ. eigenvalues --   -0.52796  -0.50693  -0.49410  -0.48115  -0.46367
 Alpha  occ. eigenvalues --   -0.43264  -0.41868  -0.40103  -0.39499  -0.37488
 Alpha  occ. eigenvalues --   -0.34041
 Alpha virt. eigenvalues --   -0.02751   0.01421   0.02782   0.03030   0.03767
 Alpha virt. eigenvalues --    0.04289   0.05518   0.06272   0.07134   0.07748
 Alpha virt. eigenvalues --    0.08136   0.08468   0.08790   0.10939   0.11974

  Beta  occ. eigenvalues --  -19.72081 -19.67555 -19.66425 -10.74251 -10.62671
  Beta  occ. eigenvalues --  -10.61748 -10.60003 -10.55493  -1.29155  -1.19884
  Beta  occ. eigenvalues --   -1.06763  -0.92243  -0.88589  -0.79679  -0.72234
  Beta  occ. eigenvalues --   -0.65805  -0.62523  -0.59626  -0.57901  -0.55098
  Beta  occ. eigenvalues --   -0.50781  -0.50038  -0.48018  -0.46471  -0.43191
  Beta  occ. eigenvalues --   -0.40652  -0.40187  -0.39661  -0.38482  -0.35513
  Beta virt. eigenvalues --   -0.09570  -0.02750   0.01457   0.02884   0.03065
  Beta virt. eigenvalues --    0.03980   0.04455   0.06131   0.06455   0.07232
  Beta virt. eigenvalues --    0.07885   0.08119   0.08626   0.09074   0.11146

 Mulliken charges and spin densities:
               1          2
     1  O   -0.492683   0.782968
     2  H    0.421880  -0.027558
     3  C   -0.171581  -0.192571
     4  H    0.309736   0.018880
     5  C    0.537196   0.393060
     6  C   -0.259605   0.014584
     7  O   -0.366835   0.011579
     8  O   -0.276510  -0.002042
     9  C   -0.261448  -0.000698
    10  C   -0.569944   0.001384
    11  H    0.223467   0.000279
    12  H    0.236609  -0.000021
    13  H    0.211763   0.000104
    14  H    0.220978   0.000017
    15  H    0.236977   0.000034
 Sum of Mulliken charges =  -0.00000   1.00000

 Dipole moment (field-independent basis, Debye):
    X=             -2.0698    Y=             -1.1129    Z=             -0.2518  Tot=              2.3635
 Quadrupole moment (field-independent basis, Debye-Ang):
   XX=            -44.8509   YY=            -53.0689   ZZ=            -47.6307
   XY=             10.2913   XZ=              1.6707   YZ=              1.1011

  Exact polarizability:  91.624 -10.367  78.146   3.070   2.098  46.075
 Approx polarizability:  99.538 -17.790  86.609   5.561   2.304  48.187

 ******    4 imaginary frequencies (negative Signs) ******

                      1                      2                      3
                      A                      A                      A
 Frequencies --   -546.1137              -413.6908              -112.0120
 Red. masses --     12.1919                 1.0680                 7.9761
 Frc consts  --      2.1423                 0.1077                 0.0590
 IR Inten    --     59.1932               144.7312                 1.5883

                      4                      5                      6
                      A                      A                      A
 Frequencies --    -87.0374                28.3480                59.6389
 Red. masses --      5.5148                 2.8322                 3.3329
 Frc consts  --      0.0246                 0.0013                 0.0070
 IR Inten    --      2.0589                 3.8977                 9.0328

                      7                      8                      9
                      A                      A                      A
 Frequencies --    170.2587               216.3477               235.0323
 Red. masses --      1.3823                 3.5346                 3.9933
 Frc consts  --      0.0236                 0.0975                 0.1300
 IR Inten    --      4.6266                 5.3495                 2.0938

                     10                     11                     12
                      A                      A                      A
 Frequencies --    312.4709               415.8697               574.5984
 Red. masses --      3.0113                 3.8032                 4.0878
 Frc consts  --      0.1732                 0.3875                 0.7952
 IR Inten    --     11.1629                 3.9411                 4.7185

                     13                     14                     15
                      A                      A                      A
 Frequencies --    596.0131               656.2536               767.2589
 Red. masses --      6.3199                 1.2034                 4.3385
 Frc consts  --      1.3227                 0.3054                 1.5048
 IR Inten    --     20.2472               186.0042                58.5223

                     16                     17                     18
                      A                      A                      A
 Frequencies --    813.9760               817.1495               836.9099
 Red. masses --      1.3581                 1.5222                 1.0840
 Frc consts  --      0.5302                 0.5989                 0.4474
 IR Inten    --      7.4679                 9.1370                48.1483

                     19                     20                     21
                      A                      A                      A
 Frequencies --    896.2537               945.2454              1107.9562
 Red. masses --      3.1487                 2.6428                 4.2403
 Frc consts  --      1.4902                 1.3912                 3.0668
 IR Inten    --     20.8211                 4.7336                 5.8866

                     22                     23                     24
                      A                      A                      A
 Frequencies --   1156.0471              1226.8731              1307.1436
 Red. masses --      2.0461                 1.7584                 3.5582
 Frc consts  --      1.6111                 1.5595                 3.5820
 IR Inten    --     18.0272                 9.7233               466.5082

                     25                     26                     27
                      A                      A                      A
 Frequencies --   1364.1079              1441.1488              1457.8915
 Red. masses --      1.3150                 1.3151                 1.2519
 Frc consts  --      1.4417                 1.6093                 1.5677
 IR Inten    --    116.0822                14.2840                18.8097

                     28                     29                     30
                      A                      A                      A
 Frequencies --   1528.5333              1537.2775              1545.3266
 Red. masses --      1.0415                 1.0673                 1.0723
 Frc consts  --      1.4337                 1.4861                 1.5087
 IR Inten    --     16.1865                 3.6574                22.5427

                     31                     32                     33
                      A                      A                      A
 Frequencies --   1913.9945              2193.2450              3108.2009
 Red. masses --     12.2855                 6.2112                 1.0352
 Frc consts  --     26.5170                17.6036                 5.8922
 IR Inten    --    354.2904                91.6687                11.5884

                     34                     35                     36
                      A                      A                      A
 Frequencies --   3139.8451              3188.2045              3192.3509
 Red. masses --      1.0599                 1.1008                 1.1024
 Frc consts  --      6.1567                 6.5924                 6.6195
 IR Inten    --     17.8527                12.0124                 6.0193

                     37                     38                     39
                      A                      A                      A
 Frequencies --   3212.9120              3495.3383              3806.8502
 Red. masses --      1.1056                 1.1538                 1.0676
 Frc consts  --      6.7241                 8.3056                 9.1161
 IR Inten    --     14.1903                64.9084                15.6195

 - Thermochemistry -
 -------------------
 Temperature   298.150 Kelvin.  Pressure   1.00000 Atm.
 Atom     1 has atomic number  8 and mass  15.99491

 Molecular mass:   115.03952 amu.
 Principal axes and moments of inertia in atomic units:
                           1         2         3
     Eigenvalues --   507.384661567.363891928.19558
           X            0.99962   0.02708  -0.00561
           Y           -0.02708   0.99963  -0.00032
           Z            0.00560   0.00047   0.99998
 This molecule is an asymmetric top.
 Rotational symmetry number  1.
 Warning -- assumption of classical behavior for rotation
           may cause significant error
 Rotational temperatures (Kelvin)      0.17071     0.05526     0.04492
 Rotational constants (GHZ):           3.55695     1.15145     0.93597
    4 imaginary frequencies ignored.
 Zero-point vibrational energy     294669.4 (Joules/Mol)
                                   70.42767 (Kcal/Mol)
 Warning -- explicit consideration of   9 degrees of freedom as
           vibrations may cause significant error
 Vibrational temperatures:     40.79    85.81   244.96   311.28   338.16
          (Kelvin)            449.58   598.34   826.72   857.53   944.20
                             1103.91  1171.13  1175.70  1204.13  1289.51
                             1360.00  1594.10  1663.29  1765.20  1880.69
                             1962.65  2073.49  2097.58  2199.22  2211.80
                             2223.38  2753.81  3155.59  4472.01  4517.54
                             4587.12  4593.08  4622.66  5029.01  5477.21

 Zero-point correction=                           0.112234 (Hartree/Particle)
 Thermal correction to Energy=                    0.120091
 Thermal correction to Enthalpy=                  0.121035
 Thermal correction to Gibbs Free Energy=         0.077374
 Sum of electronic and zero-point Energies=           -419.846460
 Sum of electronic and thermal Energies=              -419.838603
 Sum of electronic and thermal Enthalpies=            -419.837659
 Sum of electronic and thermal Free Energies=         -419.881320

                     E (Thermal)             CV                S
                      KCal/Mol        Cal/Mol-Kelvin    Cal/Mol-Kelvin
 Total                   75.358             26.384             91.894
 Electronic               0.000              0.000              1.377
 Translational            0.889              2.981             40.136
 Rotational               0.889              2.981             28.818
 Vibrational             73.581             20.422             21.562
 Vibration     1          0.593              1.984              5.942
 Vibration     2          0.597              1.974              4.469
 Vibration     3          0.625              1.879              2.433
 Vibration     4          0.645              1.816              1.989
 Vibration     5          0.655              1.787              1.840
 Vibration     6          0.701              1.650              1.349
 Vibration     7          0.779              1.436              0.906
 Vibration     8          0.931              1.086              0.495
 Vibration     9          0.954              1.040              0.457

 Normal termination of Gaussian 16 at Fri Jun 20 14:28:02 2025.
