 Gaussian 16, Revision A.03,
 Gaussian 16:  ES64L-G16RevA.03 25-Dec-2016

 -------------------
 # freq 6-31+g m062x
 -------------------

 -------------------
 Title Card Required
 -------------------
 Symbolic Z-matrix:
 Charge =  0 Multiplicity = 2

                         Standard orientation:
 ---------------------------------------------------------------------
 Center     Atomic      Atomic             Coordinates (Angstroms)
 Number     Number       Type             X           Y           Z
 ---------------------------------------------------------------------
      1          8           0        2.775180   -1.346114    0.025886
      2          1           0        1.869897   -1.632413   -0.169625
      3          6           0        2.550323    0.469835    0.241340
      4          1           0        3.568701    0.747332    0.436224
      5          6           0        1.357237    0.800160    0.103675
      6          6           0       -0.080469    0.783367   -0.115127
      7          8           0       -0.777309    1.757893   -0.078626
      8          8           0       -0.498246   -0.461600   -0.364350
      9          6           0       -1.918277   -0.624997   -0.584299
     10          6           0       -2.671592   -0.652191    0.730309
     11          1           0       -1.994748   -1.572083   -1.115021
     12          1           0       -2.263365    0.183540   -1.229320
     13          1           0       -3.728212   -0.849353    0.539676
     14          1           0       -2.284126   -1.441528    1.376011
     15          1           0       -2.588470    0.306028    1.243383
 ---------------------------------------------------------------------

 SCF Done:  E(UM062X) =  -419.963895680     A.U. after   20 cycles

 The electronic state is 2-A.
 Alpha  occ. eigenvalues --  -19.72296 -19.67809 -19.66832 -10.74434 -10.64321
 Alpha  occ. eigenvalues --  -10.62795 -10.61541 -10.55582  -1.29460  -1.20210
 Alpha  occ. eigenvalues --   -1.11491  -0.93616  -0.89314  -0.80107  -0.73123
 Alpha  occ. eigenvalues --   -0.66114  -0.63283  -0.59985  -0.58308  -0.55416
 Alpha  occ. eigenvalues --   -0.52603  -0.50849  -0.48843  -0.48190  -0.46359
 Alpha  occ. eigenvalues --   -0.43408  -0.42102  -0.40293  -0.39680  -0.36546
 Alpha  occ. eigenvalues --   -0.32384
 Alpha virt. eigenvalues --   -0.03331   0.01308   0.02832   0.03005   0.03585
 Alpha virt. eigenvalues --    0.04362   0.05619   0.06169   0.07200   0.07643
 Alpha virt. eigenvalues --    0.08059   0.08364   0.08945   0.10874   0.11651

  Beta  occ. eigenvalues --  -19.72260 -19.67733 -19.65865 -10.74483 -10.64493
  Beta  occ. eigenvalues --  -10.62787 -10.61004 -10.55582  -1.29328  -1.20027
  Beta  occ. eigenvalues --   -1.08137  -0.92278  -0.88679  -0.79917  -0.72570
  Beta  occ. eigenvalues --   -0.65972  -0.62798  -0.59752  -0.58013  -0.55203
  Beta  occ. eigenvalues --   -0.50961  -0.50279  -0.48113  -0.46589  -0.43308
  Beta  occ. eigenvalues --   -0.41601  -0.41109  -0.39891  -0.39104  -0.34627
  Beta virt. eigenvalues --   -0.09959  -0.03310   0.01315   0.02707   0.02948
  Beta virt. eigenvalues --    0.03880   0.04431   0.06148   0.06590   0.07014
  Beta virt. eigenvalues --    0.07673   0.08138   0.08540   0.09256   0.11078

 Mulliken charges and spin densities:
               1          2
     1  O   -0.533967   0.506220
     2  H    0.420407  -0.015269
     3  C   -0.259626  -0.284151
     4  H    0.275827   0.033122
     5  C    0.515481   0.720134
     6  C   -0.066339   0.017646
     7  O   -0.370474   0.019126
     8  O   -0.287533   0.000143
     9  C   -0.253811  -0.000513
    10  C   -0.571890   0.002895
    11  H    0.224759   0.000437
    12  H    0.237013  -0.000138
    13  H    0.212088   0.000228
    14  H    0.221756   0.000045
    15  H    0.236309   0.000076
 Sum of Mulliken charges =  -0.00000   1.00000

 Dipole moment (field-independent basis, Debye):
    X=             -2.2952    Y=             -0.6280    Z=             -0.2194  Tot=              2.3896
 Quadrupole moment (field-independent basis, Debye-Ang):
   XX=            -45.9739   YY=            -53.6234   ZZ=            -47.6242
   XY=             11.7375   XZ=              1.7889   YZ=              1.1113

  Exact polarizability:  91.366 -10.588  78.121   2.946   2.190  46.159
 Approx polarizability:  97.832 -20.755  93.870   4.755   2.992  48.492

 ******    4 imaginary frequencies (negative Signs) ******

                      1                      2                      3
                      A                      A                      A
 Frequencies --   -786.8231              -386.6326               -89.4983
 Red. masses --     11.2055                 1.0632                 7.2127
 Frc consts  --      4.0873                 0.0936                 0.0340
 IR Inten    --      4.8522               134.1400                 0.1223

                      4                      5                      6
                      A                      A                      A
 Frequencies --    -48.7369                41.4371               137.3787
 Red. masses --      4.0903                 3.1434                 4.7433
 Frc consts  --      0.0057                 0.0032                 0.0527
 IR Inten    --      1.6586                 1.6374                14.4228

                      7                      8                      9
                      A                      A                      A
 Frequencies --    175.6479               260.6307               274.3609
 Red. masses --      1.2105                 3.4247                 3.7228
 Frc consts  --      0.0220                 0.1371                 0.1651
 IR Inten    --      3.0559                12.0843                 8.0495

                     10                     11                     12
                      A                      A                      A
 Frequencies --    320.0593               414.8466               556.2481
 Red. masses --      3.7552                 3.8541                 6.4088
 Frc consts  --      0.2266                 0.3908                 1.1683
 IR Inten    --      6.0688                 3.0331                 7.9257

                     13                     14                     15
                      A                      A                      A
 Frequencies --    593.6675               756.9982               807.8412
 Red. masses --      5.1467                10.8195                 1.3684
 Frc consts  --      1.0687                 3.6530                 0.5262
 IR Inten    --      9.1134                32.6327                35.2858

                     16                     17                     18
                      A                      A                      A
 Frequencies --    812.8239               852.8897               893.2198
 Red. masses --      1.3369                 1.1783                 2.7078
 Frc consts  --      0.5204                 0.5050                 1.2729
 IR Inten    --     33.4345               135.6843                 7.4306

                     19                     20                     21
                      A                      A                      A
 Frequencies --    942.0300              1019.7550              1104.0956
 Red. masses --      2.4072                 1.1341                 4.1876
 Frc consts  --      1.2586                 0.6949                 3.0077
 IR Inten    --      2.3480                 0.2203                 7.3580

                     22                     23                     24
                      A                      A                      A
 Frequencies --   1155.0073              1226.4665              1304.9836
 Red. masses --      2.0279                 1.7547                 3.6691
 Frc consts  --      1.5940                 1.5551                 3.6815
 IR Inten    --     18.1283                 9.2842               451.9103

                     25                     26                     27
                      A                      A                      A
 Frequencies --   1363.4308              1440.7274              1458.1273
 Red. masses --      1.3033                 1.3114                 1.2501
 Frc consts  --      1.4275                 1.6038                 1.5659
 IR Inten    --    107.0798                11.8140                19.2415

                     28                     29                     30
                      A                      A                      A
 Frequencies --   1528.6508              1537.5218              1545.4635
 Red. masses --      1.0414                 1.0663                 1.0729
 Frc consts  --      1.4338                 1.4852                 1.5098
 IR Inten    --     16.5007                 3.2480                22.1403

                     31                     32                     33
                      A                      A                      A
 Frequencies --   1902.7969              2011.3812              3108.2128
 Red. masses --     11.9203                 7.1255                 1.0352
 Frc consts  --     25.4286                16.9846                 5.8922
 IR Inten    --    327.2962               119.3504                11.2836

                     34                     35                     36
                      A                      A                      A
 Frequencies --   3140.5101              3188.6157              3192.6092
 Red. masses --      1.0600                 1.1005                 1.1026
 Frc consts  --      6.1597                 6.5926                 6.6213
 IR Inten    --     17.2596                12.5230                 5.0798

                     37                     38                     39
                      A                      A                      A
 Frequencies --   3213.4041              3408.0179              3829.9739
 Red. masses --      1.1057                 1.1281                 1.0679
 Frc consts  --      6.7271                 7.7197                 9.2290
 IR Inten    --     13.6716                32.2100                28.1462

 - Thermochemistry -
 -------------------
 Temperature   298.150 Kelvin.  Pressure   1.00000 Atm.
 Atom     1 has atomic number  8 and mass  15.99491

 Molecular mass:   115.03952 amu.
 Principal axes and moments of inertia in atomic units:
                           1         2         3
     Eigenvalues --   493.052261566.370851913.35380
           X            0.99961   0.02724  -0.00548
           Y           -0.02724   0.99963  -0.00016
           Z            0.00547   0.00031   0.99998
 This molecule is an asymmetric top.
 Rotational symmetry number  1.
 Warning -- assumption of classical behavior for rotation
           may cause significant error
 Rotational temperatures (Kelvin)      0.17567     0.05530     0.04527
 Rotational constants (GHZ):           3.66034     1.15218     0.94323
    4 imaginary frequencies ignored.
 Zero-point vibrational energy     296194.4 (Joules/Mol)
                                   70.79215 (Kcal/Mol)
 Warning -- explicit consideration of   9 degrees of freedom as
           vibrations may cause significant error
 Vibrational temperatures:     59.62   197.66   252.72   374.99   394.74
          (Kelvin)            460.49   596.87   800.32   854.16  1089.15
                             1162.30  1169.47  1227.12  1285.14  1355.37
                             1467.20  1588.55  1661.80  1764.61  1877.58
                             1961.67  2072.89  2097.92  2199.39  2212.15
                             2223.58  2737.70  2893.93  4472.02  4518.49
                             4587.71  4593.45  4623.37  4903.38  5510.48

 Zero-point correction=                           0.112814 (Hartree/Particle)
 Thermal correction to Energy=                    0.120279
 Thermal correction to Enthalpy=                  0.121223
 Thermal correction to Gibbs Free Energy=         0.079148
 Sum of electronic and zero-point Energies=           -419.851081
 Sum of electronic and thermal Energies=              -419.843617
 Sum of electronic and thermal Enthalpies=            -419.842673
 Sum of electronic and thermal Free Energies=         -419.884748

                     E (Thermal)             CV                S
                      KCal/Mol        Cal/Mol-Kelvin    Cal/Mol-Kelvin
 Total                   75.476             25.682             88.554
 Electronic               0.000              0.000              1.377
 Translational            0.889              2.981             40.136
 Rotational               0.889              2.981             28.782
 Vibrational             73.698             19.720             18.259
 Vibration     1          0.594              1.981              5.189
 Vibration     2          0.614              1.916              2.840
 Vibration     3          0.628              1.872              2.374
 Vibration     4          0.669              1.745              1.658
 Vibration     5          0.677              1.721              1.569
 Vibration     6          0.706              1.635              1.310
 Vibration     7          0.778              1.438              0.910
 Vibration     8          0.912              1.126              0.531
 Vibration     9          0.951              1.045              0.461

 Normal termination of Gaussian 16 at Fri Jun 20 14:16:54 2025.
