 Gaussian 16, Revision A.03,
 Gaussian 16:  ES64L-G16RevA.03 25-Dec-2016

 --------------------------
 # ccsd(t)/6-311++g(d,p) sp
 --------------------------

 -------------------
 Title Card Required
 -------------------
 Symbolic Z-matrix:
 Charge =  0 Multiplicity = 2

                         Standard orientation:
 ---------------------------------------------------------------------
 Center     Atomic      Atomic             Coordinates (Angstroms)
 Number     Number       Type             X           Y           Z
 ---------------------------------------------------------------------
      1          8           0        2.797090   -1.546730    0.024586
      2          1           0        1.855245   -1.709571   -0.158878
      3          6           0        2.538813    0.776337    0.267901
      4          1           0        3.591620    0.781765    0.428519
      5          6           0        1.351770    0.805876    0.090336
      6          6           0       -0.084905    0.783738   -0.127829
      7          8           0       -0.789867    1.751653   -0.108308
      8          8           0       -0.497198   -0.469833   -0.357065
      9          6           0       -1.915625   -0.641153   -0.573799
     10          6           0       -2.669653   -0.649626    0.740997
     11          1           0       -1.990831   -1.596746   -1.089574
     12          1           0       -2.264073    0.155894   -1.231252
     13          1           0       -3.725794   -0.852654    0.553785
     14          1           0       -2.280056   -1.427326    1.399521
     15          1           0       -2.588711    0.316891    1.238545
 ---------------------------------------------------------------------

 SCF Done:  E(UHF) =  -417.995263162     A.U. after   40 cycles
 E2 =    -0.1260123864D+01 EUMP2 =    -0.41925538702536D+03
 CCSD(T)= -0.41935895435D+03

 The electronic state is 2-A.
 Alpha  occ. eigenvalues --  -20.62505 -20.62454 -20.57086 -11.42256 -11.30636
 Alpha  occ. eigenvalues --  -11.26863 -11.26235 -11.23320  -1.49153  -1.39266
 Alpha  occ. eigenvalues --   -1.37900  -1.08953  -1.04589  -0.93048  -0.84531
 Alpha  occ. eigenvalues --   -0.77376  -0.73458  -0.70663  -0.67461  -0.67057
 Alpha  occ. eigenvalues --   -0.65054  -0.64223  -0.59464  -0.56176  -0.55123
 Alpha  occ. eigenvalues --   -0.54995  -0.51540  -0.49294  -0.47954  -0.43010
 Alpha  occ. eigenvalues --   -0.42326
 Alpha virt. eigenvalues --    0.03680   0.04754   0.05477   0.05986   0.07474
 Alpha virt. eigenvalues --    0.08575   0.08964   0.09233   0.11433   0.12340
 Alpha virt. eigenvalues --    0.12740   0.13420   0.14601   0.15198   0.16883

  Beta  occ. eigenvalues --  -20.62493 -20.58363 -20.56863 -11.42430 -11.30631
  Beta  occ. eigenvalues --  -11.27631 -11.25309 -11.23320  -1.49024  -1.38894
  Beta  occ. eigenvalues --   -1.22403  -1.08064  -1.04602  -0.93353  -0.84470
  Beta  occ. eigenvalues --   -0.77307  -0.73384  -0.70370  -0.67271  -0.64193
  Beta  occ. eigenvalues --   -0.62564  -0.59250  -0.55719  -0.54948  -0.51473
  Beta  occ. eigenvalues --   -0.50233  -0.48828  -0.47442  -0.43252  -0.42788
  Beta virt. eigenvalues --    0.03660   0.04732   0.05437   0.05769   0.07403
  Beta virt. eigenvalues --    0.07853   0.08444   0.08983   0.10773   0.12053
  Beta virt. eigenvalues --    0.12568   0.12854   0.13743   0.14477   0.15205

 Mulliken charges and spin densities:
               1          2
     1  O   -0.248997   0.992237
     2  H    0.255826  -0.036077
     3  C   -0.536669  -0.428815
     4  H    0.232602   0.035675
     5  C    1.066099   0.453495
     6  C   -0.650278  -0.059650
     7  O   -0.274215   0.044433
     8  O   -0.106092  -0.002082
     9  C   -0.186426  -0.000302
    10  C   -0.351146   0.000858
    11  H    0.162993   0.000132
    12  H    0.181847   0.000007
    13  H    0.136933   0.000110
    14  H    0.142860  -0.000039
    15  H    0.174664   0.000019
 Sum of Mulliken charges =  -0.00000   1.00000

 Dipole moment (field-independent basis, Debye):
    X=             -1.3134    Y=             -2.0507    Z=             -0.2758  Tot=              2.4508
 Quadrupole moment (field-independent basis, Debye-Ang):
   XX=            -42.4872   YY=            -52.4461   ZZ=            -47.4898
   XY=              8.0389   XZ=              1.6322   YZ=              1.1206

 \PMP3-0=-419.2866236\MP4SDQ=-419.3068075\CCSD=-419.3067049\CCSD(T)=-41
 Normal termination of Gaussian 16 at Wed Aug  6 06:02:15 2025.
