 Gaussian 16, Revision A.03,
 Gaussian 16:  ES64L-G16RevA.03 25-Dec-2016

 --------------------------
 # freq 6-311++g(d,p) m062x
 --------------------------

 -------------------
 Title Card Required
 -------------------
 Symbolic Z-matrix:
 Charge =  0 Multiplicity = 2

                         Standard orientation:
 ---------------------------------------------------------------------
 Center     Atomic      Atomic             Coordinates (Angstroms)
 Number     Number       Type             X           Y           Z
 ---------------------------------------------------------------------
      1          8           0        2.795784   -1.531517    0.024532
      2          1           0        1.856304   -1.705786   -0.159968
      3          6           0        2.539297    0.758347    0.266762
      4          1           0        3.591935    0.764046    0.427511
      5          6           0        1.352115    0.802207    0.090900
      6          6           0       -0.084503    0.783710   -0.126892
      7          8           0       -0.788302    1.752429   -0.105985
      8          8           0       -0.497799   -0.469214   -0.357721
      9          6           0       -1.916118   -0.639720   -0.574613
     10          6           0       -2.669889   -0.649722    0.740281
     11          1           0       -1.991690   -1.594606   -1.091650
     12          1           0       -2.264405    0.158309   -1.230979
     13          1           0       -3.726096   -0.852403    0.553074
     14          1           0       -2.280208   -1.428257    1.397769
     15          1           0       -2.588713    0.316180    1.238995
 ---------------------------------------------------------------------

 SCF Done:  E(UM062X) =  -420.209652294     A.U. after   23 cycles

 The electronic state is 2-A.
 Alpha  occ. eigenvalues --  -19.69436 -19.66990 -19.64156 -10.71555 -10.61483
 Alpha  occ. eigenvalues --  -10.58285 -10.57464 -10.54520  -1.26563  -1.17405
 Alpha  occ. eigenvalues --   -1.12656  -0.91466  -0.87806  -0.78911  -0.71396
 Alpha  occ. eigenvalues --   -0.65417  -0.62004  -0.59458  -0.57360  -0.54831
 Alpha  occ. eigenvalues --   -0.54295  -0.50282  -0.49654  -0.47674  -0.46189
 Alpha  occ. eigenvalues --   -0.43002  -0.42453  -0.40011  -0.39451  -0.37714
 Alpha  occ. eigenvalues --   -0.35743
 Alpha virt. eigenvalues --   -0.02266  -0.00765   0.00794   0.01330   0.01666
 Alpha virt. eigenvalues --    0.02908   0.04633   0.04844   0.05024   0.06298
 Alpha virt. eigenvalues --    0.06628   0.07065   0.08108   0.09037   0.10399

  Beta  occ. eigenvalues --  -19.69434 -19.65422 -19.64141 -10.71564 -10.61482
  Beta  occ. eigenvalues --  -10.58287 -10.57367 -10.54520  -1.26542  -1.17367
  Beta  occ. eigenvalues --   -1.05013  -0.91214  -0.87594  -0.78860  -0.71297
  Beta  occ. eigenvalues --   -0.65377  -0.61777  -0.59396  -0.57308  -0.54464
  Beta  occ. eigenvalues --   -0.51615  -0.50206  -0.47634  -0.46228  -0.42962
  Beta  occ. eigenvalues --   -0.40317  -0.39648  -0.39529  -0.37433  -0.36846
  Beta virt. eigenvalues --   -0.08394  -0.02227  -0.00630   0.00980   0.01367
  Beta virt. eigenvalues --    0.01821   0.02960   0.04910   0.05015   0.05269
  Beta virt. eigenvalues --    0.06585   0.06704   0.07106   0.08247   0.09183

 Mulliken charges and spin densities:
               1          2
     1  O   -0.279735   0.930347
     2  H    0.251385  -0.017673
     3  C   -0.467152  -0.042687
     4  H    0.218080   0.009592
     5  C    0.916296   0.108208
     6  C   -0.619376   0.010410
     7  O   -0.204363   0.002734
     8  O   -0.027237  -0.002225
     9  C   -0.300001   0.001420
    10  C   -0.396267  -0.000103
    11  H    0.193327   0.000140
    12  H    0.197848  -0.000134
    13  H    0.167431   0.000060
    14  H    0.165356  -0.000120
    15  H    0.184409   0.000031
 Sum of Mulliken charges =  -0.00000   1.00000

 Dipole moment (field-independent basis, Debye):
    X=             -1.6528    Y=             -1.5615    Z=             -0.2323  Tot=              2.2856
 Quadrupole moment (field-independent basis, Debye-Ang):
   XX=            -42.9515   YY=            -52.0359   ZZ=            -47.5094
   XY=              8.5442   XZ=              1.5504   YZ=              1.0906

  Exact polarizability:  93.474  -2.017  69.280   3.181   1.313  50.200
 Approx polarizability: 104.231  -7.402  80.341   6.105   1.655  57.698

 ******    2 imaginary frequencies (negative Signs) ******

                      1                      2                      3
                      A                      A                      A
 Frequencies --    -50.9423               -34.8222                77.0042
 Red. masses --      6.1253                 6.6195                 3.3902
 Frc consts  --      0.0094                 0.0047                 0.0118
 IR Inten    --      5.1589                 1.1099                 1.5519

                      4                      5                      6
                      A                      A                      A
 Frequencies --    115.6234               174.6603               215.1112
 Red. masses --      3.5200                 3.4603                 1.0802
 Frc consts  --      0.0277                 0.0622                 0.0294
 IR Inten    --      1.6718                 4.0242               101.0041

                      7                      8                      9
                      A                      A                      A
 Frequencies --    227.1194               252.3702               263.2317
 Red. masses --      1.4836                 4.8958                 4.0685
 Frc consts  --      0.0451                 0.1837                 0.1661
 IR Inten    --      6.7649                 1.3585                 3.6666

                     10                     11                     12
                      A                      A                      A
 Frequencies --    338.6347               422.8669               567.1956
 Red. masses --      2.9325                 3.8612                 2.8851
 Frc consts  --      0.1981                 0.4068                 0.5469
 IR Inten    --      9.2388                 2.5924                14.8070

                     13                     14                     15
                      A                      A                      A
 Frequencies --    602.5643               608.5164               761.2056
 Red. masses --      1.6751                 2.7678                 1.1830
 Frc consts  --      0.3583                 0.6038                 0.4039
 IR Inten    --     89.4614                63.7176                49.5435

                     16                     17                     18
                      A                      A                      A
 Frequencies --    778.5526               784.6597               801.9406
 Red. masses --      1.8313                 2.9019                 1.2464
 Frc consts  --      0.6540                 1.0527                 0.4723
 IR Inten    --      3.8543                55.7312                 7.5751

                     19                     20                     21
                      A                      A                      A
 Frequencies --    893.2487               929.2300              1074.0261
 Red. masses --      3.1560                 2.7912                 4.1644
 Frc consts  --      1.4836                 1.4200                 2.8303
 IR Inten    --     16.0839                 4.4776                24.2954

                     22                     23                     24
                      A                      A                      A
 Frequencies --   1127.6342              1203.0760              1269.9824
 Red. masses --      2.0725                 1.7788                 5.3304
 Frc consts  --      1.5527                 1.5170                 5.0653
 IR Inten    --     22.4095                 6.9220               598.8963

                     25                     26                     27
                      A                      A                      A
 Frequencies --   1346.5484              1402.1986              1431.3757
 Red. masses --      1.1642                 1.2581                 1.3585
 Frc consts  --      1.2438                 1.4575                 1.6399
 IR Inten    --     49.8366                17.5180                 8.6331

                     28                     29                     30
                      A                      A                      A
 Frequencies --   1493.4047              1502.7058              1514.7335
 Red. masses --      1.0405                 1.0624                 1.0807
 Frc consts  --      1.3673                 1.4135                 1.4609
 IR Inten    --     11.3001                 2.1011                17.1159

                     31                     32                     33
                      A                      A                      A
 Frequencies --   1850.2684              2248.1607              3075.7551
 Red. masses --     12.1051                 5.8430                 1.0354
 Frc consts  --     24.4167                17.3997                 5.7714
 IR Inten    --    364.8613                81.3493                 9.2263

                     34                     35                     36
                      A                      A                      A
 Frequencies --   3108.8065              3150.8047              3155.8720
 Red. masses --      1.0605                 1.1018                 1.1048
 Frc consts  --      6.0386                 6.4448                 6.4831
 IR Inten    --     16.9986                12.9090                 2.6234

                     37                     38                     39
                      A                      A                      A
 Frequencies --   3175.9178              3491.5433              3769.0710
 Red. masses --      1.1076                 1.1676                 1.0675
 Frc consts  --      6.5819                 8.3863                 8.9345
 IR Inten    --     12.7758                73.6911                28.3136

 - Thermochemistry -
 -------------------
 Temperature   298.150 Kelvin.  Pressure   1.00000 Atm.
 Atom     1 has atomic number  8 and mass  15.99491

 Molecular mass:   115.03952 amu.
 Principal axes and moments of inertia in atomic units:
                           1         2         3
     Eigenvalues --   540.629331571.230241964.31012
           X            0.99958   0.02840  -0.00580
           Y           -0.02841   0.99960  -0.00019
           Z            0.00579   0.00036   0.99998
 This molecule is an asymmetric top.
 Rotational symmetry number  1.
 Warning -- assumption of classical behavior for rotation
           may cause significant error
 Rotational temperatures (Kelvin)      0.16021     0.05512     0.04409
 Rotational constants (GHZ):           3.33822     1.14862     0.91877
    2 imaginary frequencies ignored.
 Zero-point vibrational energy     294315.0 (Joules/Mol)
                                   70.34297 (Kcal/Mol)
 Warning -- explicit consideration of  12 degrees of freedom as
           vibrations may cause significant error
 Vibrational temperatures:    110.79   166.36   251.30   309.50   326.77
          (Kelvin)            363.10   378.73   487.22   608.41   816.07
                              866.96   875.52  1095.21  1120.16  1128.95
                             1153.81  1285.19  1336.95  1545.28  1622.41
                             1730.96  1827.22  1937.38  2017.45  2059.43
                             2148.68  2162.06  2179.36  2662.12  3234.60
                             4425.33  4472.88  4533.31  4540.60  4569.44
                             5023.55  5422.85

 Zero-point correction=                           0.112099 (Hartree/Particle)
 Thermal correction to Energy=                    0.120738
 Thermal correction to Enthalpy=                  0.121682
 Thermal correction to Gibbs Free Energy=         0.077906
 Sum of electronic and zero-point Energies=           -420.097554
 Sum of electronic and thermal Energies=              -420.088914
 Sum of electronic and thermal Enthalpies=            -420.087970
 Sum of electronic and thermal Free Energies=         -420.131747

                     E (Thermal)             CV                S
                      KCal/Mol        Cal/Mol-Kelvin    Cal/Mol-Kelvin
 Total                   75.764             30.214             92.136
 Electronic               0.000              0.000              1.377
 Translational            0.889              2.981             40.136
 Rotational               0.889              2.981             28.902
 Vibrational             73.987             24.252             21.721
 Vibration     1          0.599              1.964              3.966
 Vibration     2          0.608              1.936              3.172
 Vibration     3          0.627              1.874              2.385
 Vibration     4          0.645              1.818              2.000
 Vibration     5          0.651              1.800              1.902
 Vibration     6          0.664              1.759              1.714
 Vibration     7          0.670              1.740              1.640
 Vibration     8          0.719              1.598              1.219
 Vibration     9          0.785              1.421              0.882
 Vibration    10          0.923              1.102              0.510
 Vibration    11          0.961              1.026              0.445
 Vibration    12          0.967              1.014              0.435

 1\1\GINC-AJ\Freq\UM062X\6-311++G(d,p)\C5H7O3(2)\AAYUSH\16-Aug-2025\0\\
 # freq 6-311++g(d,p) m062x\\Title Card Required\\0,2\O,2.728625,-1.575
 107,0.018472\H,1.788786,-1.745472,-0.167837\C,2.477038,0.712721,0.2839
 69\H,3.529675,0.714523,0.444819\C,1.289965,0.760917,0.108505\C,-0.1466
 74,0.747722,-0.109534\O,-0.848392,1.717688,-0.078809\O,-0.562643,-0.50
 1898,-0.353116\C,-1.981309,-0.667143,-0.571801\C,-2.735193,-0.6889,0.7
 42887\H,-2.058895,-1.616555,-1.098528\H,-2.327835,0.138268,-1.220032\H
 ,-3.791819,-0.887397,0.553576\H,-2.347231,-1.474918,1.39244\H,-2.65197

 Normal termination of Gaussian 16 at Sat Aug 16 18:42:26 2025.
