 Gaussian 16, Revision A.03,
 Gaussian 16:  ES64L-G16RevA.03 25-Dec-2016

 -------------------
 # freq 6-31+g m062x
 -------------------

 -------------------
 Title Card Required
 -------------------
 Symbolic Z-matrix:
 Charge =  0 Multiplicity = 2

                         Standard orientation:
 ---------------------------------------------------------------------
 Center     Atomic      Atomic             Coordinates (Angstroms)
 Number     Number       Type             X           Y           Z
 ---------------------------------------------------------------------
      1          8           0        2.797090   -1.546730    0.024586
      2          1           0        1.855245   -1.709571   -0.158878
      3          6           0        2.538813    0.776337    0.267901
      4          1           0        3.591620    0.781765    0.428519
      5          6           0        1.351770    0.805876    0.090336
      6          6           0       -0.084905    0.783738   -0.127829
      7          8           0       -0.789867    1.751653   -0.108308
      8          8           0       -0.497198   -0.469833   -0.357065
      9          6           0       -1.915625   -0.641153   -0.573799
     10          6           0       -2.669653   -0.649626    0.740997
     11          1           0       -1.990831   -1.596746   -1.089574
     12          1           0       -2.264073    0.155894   -1.231252
     13          1           0       -3.725794   -0.852654    0.553785
     14          1           0       -2.280056   -1.427326    1.399521
     15          1           0       -2.588711    0.316891    1.238545
 ---------------------------------------------------------------------

 SCF Done:  E(UM062X) =  -419.965160489     A.U. after   23 cycles

 The electronic state is 2-A.
 Alpha  occ. eigenvalues --  -19.71922 -19.69590 -19.67348 -10.73932 -10.62558
 Alpha  occ. eigenvalues --  -10.59812 -10.59176 -10.55409  -1.28957  -1.19704
 Alpha  occ. eigenvalues --   -1.13766  -0.92194  -0.88554  -0.79490  -0.72027
 Alpha  occ. eigenvalues --   -0.65661  -0.62154  -0.59522  -0.57805  -0.55042
 Alpha  occ. eigenvalues --   -0.54210  -0.50552  -0.49497  -0.47972  -0.46316
 Alpha  occ. eigenvalues --   -0.43133  -0.42335  -0.40024  -0.39387  -0.37978
 Alpha  occ. eigenvalues --   -0.36181
 Alpha virt. eigenvalues --   -0.02405   0.01473   0.02586   0.03061   0.03845
 Alpha virt. eigenvalues --    0.04409   0.05153   0.06314   0.07157   0.07713
 Alpha virt. eigenvalues --    0.08417   0.08549   0.08812   0.11294   0.11986

  Beta  occ. eigenvalues --  -19.71920 -19.67947 -19.67335 -10.73940 -10.62557
  Beta  occ. eigenvalues --  -10.59815 -10.59083 -10.55409  -1.28938  -1.19676
  Beta  occ. eigenvalues --   -1.06320  -0.91976  -0.88384  -0.79444  -0.71930
  Beta  occ. eigenvalues --   -0.65634  -0.61955  -0.59475  -0.57751  -0.54964
  Beta  occ. eigenvalues --   -0.51104  -0.50436  -0.47938  -0.46346  -0.43101
  Beta  occ. eigenvalues --   -0.40417  -0.39505  -0.39473  -0.37734  -0.36974
  Beta virt. eigenvalues --   -0.08529  -0.02383   0.01520   0.02726   0.03079
  Beta virt. eigenvalues --    0.03998   0.04460   0.05407   0.06423   0.07242
  Beta virt. eigenvalues --    0.07800   0.08511   0.08609   0.08884   0.11279

 Mulliken charges and spin densities:
               1          2
     1  O   -0.454011   0.955034
     2  H    0.426949  -0.034938
     3  C    0.015093  -0.162196
     4  H    0.361719   0.004896
     5  C    0.332286   0.182826
     6  C   -0.367334   0.051674
     7  O   -0.347587   0.003528
     8  O   -0.268060  -0.001276
     9  C   -0.260883   0.000035
    10  C   -0.565259   0.000268
    11  H    0.221534   0.000120
    12  H    0.236253   0.000011
    13  H    0.211545   0.000014
    14  H    0.219870   0.000000
    15  H    0.237886   0.000003
 Sum of Mulliken charges =  -0.00000   1.00000

 Dipole moment (field-independent basis, Debye):
    X=             -1.8993    Y=             -1.5359    Z=             -0.2751  Tot=              2.4580
 Quadrupole moment (field-independent basis, Debye-Ang):
   XX=            -44.4428   YY=            -52.7526   ZZ=            -47.6961
   XY=              9.3821   XZ=              1.4726   YZ=              1.1675

  Exact polarizability:  88.997  -2.066  65.808   3.873   1.311  45.901
 Approx polarizability:  98.541  -8.105  73.826   6.817   1.824  47.941

 ******    3 imaginary frequencies (negative Signs) ******

                      1                      2                      3
                      A                      A                      A
 Frequencies --   -424.7992              -126.5080              -109.4200
 Red. masses --      1.0718                 4.2918                 7.0542
 Frc consts  --      0.1140                 0.0405                 0.0498
 IR Inten    --    159.2113                16.2081                 5.5292

                      4                      5                      6
                      A                      A                      A
 Frequencies --     14.0482                45.5190               134.5336
 Red. masses --      3.2665                 2.8160                 3.5971
 Frc consts  --      0.0004                 0.0034                 0.0384
 IR Inten    --      6.3777                 2.1964                 2.9455

                      7                      8                      9
                      A                      A                      A
 Frequencies --    178.4834               193.9179               248.3185
 Red. masses --      2.1643                 1.9916                 3.8885
 Frc consts  --      0.0406                 0.0441                 0.1413
 IR Inten    --     20.9633                20.7107                 1.1308

                     10                     11                     12
                      A                      A                      A
 Frequencies --    314.5301               350.3966               420.7102
 Red. masses --      2.9094                 1.3183                 3.7258
 Frc consts  --      0.1696                 0.0954                 0.3885
 IR Inten    --     12.7759               140.5200                 4.5304

                     13                     14                     15
                      A                      A                      A
 Frequencies --    580.6764               624.1098               778.7259
 Red. masses --      4.1948                 6.7275                 3.3564
 Frc consts  --      0.8334                 1.5439                 1.1992
 IR Inten    --      6.3897                15.6702                67.0794

                     16                     17                     18
                      A                      A                      A
 Frequencies --    808.9599               816.0605               873.9067
 Red. masses --      1.2712                 1.2900                 1.8264
 Frc consts  --      0.4901                 0.5062                 0.8218
 IR Inten    --     71.7031                 3.6174                14.4838

                     19                     20                     21
                      A                      A                      A
 Frequencies --    897.5597               946.4339              1110.6908
 Red. masses --      3.2808                 2.5968                 4.2623
 Frc consts  --      1.5573                 1.3705                 3.0980
 IR Inten    --     18.1150                 4.3189                 7.4621

                     22                     23                     24
                      A                      A                      A
 Frequencies --   1156.7000              1227.1548              1313.2958
 Red. masses --      2.0641                 1.7620                 3.1873
 Frc consts  --      1.6271                 1.5634                 3.2389
 IR Inten    --     19.2191                 6.3267               463.2744

                     25                     26                     27
                      A                      A                      A
 Frequencies --   1365.5330              1441.4368              1457.3708
 Red. masses --      1.3653                 1.3247                 1.2542
 Frc consts  --      1.5000                 1.6217                 1.5695
 IR Inten    --    147.5681                17.8204                18.6659

                     28                     29                     30
                      A                      A                      A
 Frequencies --   1528.2674              1536.8405              1544.9459
 Red. masses --      1.0417                 1.0690                 1.0713
 Frc consts  --      1.4334                 1.4875                 1.5066
 IR Inten    --     14.9732                 4.5750                22.3604

                     31                     32                     33
                      A                      A                      A
 Frequencies --   1917.1900              2314.8146              3108.2235
 Red. masses --     12.3332                 5.6339                 1.0352
 Frc consts  --     26.7089                17.7865                 5.8924
 IR Inten    --    324.1711                84.6230                12.0015

                     34                     35                     36
                      A                      A                      A
 Frequencies --   3139.5768              3187.7224              3192.3258
 Red. masses --      1.0598                 1.1009                 1.1025
 Frc consts  --      6.1551                 6.5910                 6.6195
 IR Inten    --     18.6706                12.1091                 6.4528

                     37                     38                     39
                      A                      A                      A
 Frequencies --   3212.6997              3533.9966              3783.4643
 Red. masses --      1.1055                 1.1759                 1.0674
 Frc consts  --      6.7225                 8.6527                 9.0027
 IR Inten    --     15.4971                68.7447                 8.9061

 - Thermochemistry -
 -------------------
 Temperature   298.150 Kelvin.  Pressure   1.00000 Atm.
 Atom     1 has atomic number  8 and mass  15.99491

 Molecular mass:   115.03952 amu.
 Principal axes and moments of inertia in atomic units:
                           1         2         3
     Eigenvalues --   544.883401571.485521968.73350
           X            0.99957   0.02873  -0.00580
           Y           -0.02873   0.99959  -0.00012
           Z            0.00580   0.00029   0.99998
 This molecule is an asymmetric top.
 Rotational symmetry number  1.
 Warning -- assumption of classical behavior for rotation
           may cause significant error
 Rotational temperatures (Kelvin)      0.15896     0.05512     0.04399
 Rotational constants (GHZ):           3.31216     1.14843     0.91670
    3 imaginary frequencies ignored.
 Zero-point vibrational energy     294874.3 (Joules/Mol)
                                   70.47666 (Kcal/Mol)
 Warning -- explicit consideration of  10 degrees of freedom as
           vibrations may cause significant error
 Vibrational temperatures:     20.21    65.49   193.56   256.80   279.00
          (Kelvin)            357.27   452.54   504.14   605.31   835.46
                              897.95  1120.41  1163.91  1174.13  1257.36
                             1291.39  1361.71  1598.04  1664.23  1765.60
                             1889.54  1964.70  2073.91  2096.83  2198.84
                             2211.17  2222.83  2758.41  3330.50  4472.04
                             4517.15  4586.42  4593.04  4622.36  5084.63
                             5443.56

 Zero-point correction=                           0.112312 (Hartree/Particle)
 Thermal correction to Energy=                    0.121095
 Thermal correction to Enthalpy=                  0.122039
 Thermal correction to Gibbs Free Energy=         0.075716
 Sum of electronic and zero-point Energies=           -419.852849
 Sum of electronic and thermal Energies=              -419.844066
 Sum of electronic and thermal Enthalpies=            -419.843122
 Sum of electronic and thermal Free Energies=         -419.889444

                     E (Thermal)             CV                S
                      KCal/Mol        Cal/Mol-Kelvin    Cal/Mol-Kelvin
 Total                   75.988             28.806             97.494
 Electronic               0.000              0.000              1.377
 Translational            0.889              2.981             40.136
 Rotational               0.889              2.981             28.912
 Vibrational             74.211             22.845             27.069
 Vibration     1          0.593              1.986              7.336
 Vibration     2          0.595              1.979              5.003
 Vibration     3          0.613              1.919              2.880
 Vibration     4          0.629              1.869              2.344
 Vibration     5          0.635              1.848              2.190
 Vibration     6          0.662              1.766              1.742
 Vibration     7          0.702              1.646              1.338
 Vibration     8          0.727              1.574              1.164
 Vibration     9          0.783              1.425              0.890
 Vibration    10          0.937              1.073              0.484

 Normal termination of Gaussian 16 at Fri Jun 20 14:27:13 2025.
