 Gaussian 16, Revision A.03,
 Gaussian 16:  ES64L-G16RevA.03 25-Dec-2016

 --------------------------
 # freq 6-311++g(d,p) m062x
 --------------------------

 -------------------
 Title Card Required
 -------------------
 Symbolic Z-matrix:
 Charge =  0 Multiplicity = 2

                         Standard orientation:
 ---------------------------------------------------------------------
 Center     Atomic      Atomic             Coordinates (Angstroms)
 Number     Number       Type             X           Y           Z
 ---------------------------------------------------------------------
      1          8           0        2.774068   -1.334359    0.026210
      2          1           0        1.870873   -1.625361   -0.169816
      3          6           0        2.551650    0.448190    0.239070
      4          1           0        3.562879    0.753557    0.437038
      5          6           0        1.357548    0.802973    0.104887
      6          6           0       -0.080013    0.783122   -0.114397
      7          8           0       -0.776856    1.757940   -0.076987
      8          8           0       -0.498310   -0.461376   -0.364812
      9          6           0       -1.918398   -0.624197   -0.584910
     10          6           0       -2.671696   -0.652398    0.729683
     11          1           0       -1.995152   -1.570775   -1.116507
     12          1           0       -2.263240    0.185050   -1.229166
     13          1           0       -3.728367   -0.849145    0.538883
     14          1           0       -2.284418   -1.442435    1.374649
     15          1           0       -2.588337    0.305332    1.243628
 ---------------------------------------------------------------------

 SCF Done:  E(UM062X) =  -420.215051651     A.U. after   19 cycles

 The electronic state is 2-A.
 Alpha  occ. eigenvalues --  -19.69742 -19.64551 -19.64100 -10.71950 -10.63400
 Alpha  occ. eigenvalues --  -10.61677 -10.59944 -10.54667  -1.26970  -1.17819
 Alpha  occ. eigenvalues --   -1.10271  -0.92768  -0.88533  -0.79437  -0.72411
 Alpha  occ. eigenvalues --   -0.65860  -0.62892  -0.59847  -0.57785  -0.54936
 Alpha  occ. eigenvalues --   -0.52539  -0.50560  -0.48912  -0.47892  -0.46197
 Alpha  occ. eigenvalues --   -0.43239  -0.42155  -0.40242  -0.39652  -0.36315
 Alpha  occ. eigenvalues --   -0.32172
 Alpha virt. eigenvalues --   -0.03268  -0.00732   0.00760   0.01242   0.01553
 Alpha virt. eigenvalues --    0.02707   0.04505   0.04928   0.05729   0.06079
 Alpha virt. eigenvalues --    0.06834   0.07013   0.08191   0.08823   0.10130

  Beta  occ. eigenvalues --  -19.69702 -19.64476 -19.63301 -10.71995 -10.63558
  Beta  occ. eigenvalues --  -10.61668 -10.59389 -10.54667  -1.26822  -1.17603
  Beta  occ. eigenvalues --   -1.07357  -0.91268  -0.87703  -0.79271  -0.71841
  Beta  occ. eigenvalues --   -0.65667  -0.62313  -0.59554  -0.57500  -0.54661
  Beta  occ. eigenvalues --   -0.50970  -0.50178  -0.47789  -0.46420  -0.43146
  Beta  occ. eigenvalues --   -0.42158  -0.41261  -0.39941  -0.39038  -0.34562
  Beta virt. eigenvalues --   -0.09421  -0.03108  -0.00680   0.00871   0.01281
  Beta virt. eigenvalues --    0.01751   0.02840   0.04869   0.05041   0.05795
  Beta virt. eigenvalues --    0.06237   0.06966   0.07609   0.08494   0.08866

 Mulliken charges and spin densities:
               1          2
     1  O   -0.333903   0.424689
     2  H    0.248656  -0.005072
     3  C   -1.399088  -0.272188
     4  H    0.203372   0.030510
     5  C    1.472814   0.658192
     6  C   -0.169882   0.139201
     7  O   -0.213937   0.016912
     8  O   -0.038467   0.001323
     9  C   -0.290459   0.003298
    10  C   -0.392471   0.002485
    11  H    0.199781   0.000306
    12  H    0.197066  -0.000229
    13  H    0.167299   0.000380
    14  H    0.166224  -0.000189
    15  H    0.182995   0.000383
 Sum of Mulliken charges =  -0.00000   1.00000

 Dipole moment (field-independent basis, Debye):
    X=             -2.0571    Y=             -0.6203    Z=             -0.1747  Tot=              2.1556
 Quadrupole moment (field-independent basis, Debye-Ang):
   XX=            -44.8527   YY=            -52.7450   ZZ=            -47.4009
   XY=             11.0390   XZ=              1.8119   YZ=              1.0781

  Exact polarizability:  95.035  -8.895  77.970   2.387   1.948  50.184
 Approx polarizability: 102.182 -17.678  97.299   4.158   2.732  58.214

 ******    1 imaginary frequencies (negative Signs) ******

                      1                      2                      3
                      A                      A                      A
 Frequencies --   -725.6707                67.8177                99.6477
 Red. masses --     11.3416                 3.6640                 5.9720
 Frc consts  --      3.5189                 0.0099                 0.0349
 IR Inten    --      4.6472                 0.0111                 1.7318

                      4                      5                      6
                      A                      A                      A
 Frequencies --    113.3412               162.8702               217.3681
 Red. masses --      3.7713                 4.9038                 1.2392
 Frc consts  --      0.0285                 0.0766                 0.0345
 IR Inten    --      1.7361                 3.1275                 2.6949

                      7                      8                      9
                      A                      A                      A
 Frequencies --    258.1026               298.2921               314.3942
 Red. masses --      1.2851                 3.0802                 2.2816
 Frc consts  --      0.0504                 0.1615                 0.1329
 IR Inten    --     49.1946                 5.2965                60.3835

                     10                     11                     12
                      A                      A                      A
 Frequencies --    347.9837               423.1463               551.8761
 Red. masses --      3.9445                 3.9990                 5.9324
 Frc consts  --      0.2814                 0.4219                 1.0645
 IR Inten    --      4.0418                 1.2186                 6.4620

                     13                     14                     15
                      A                      A                      A
 Frequencies --    596.5025               766.6387               794.6320
 Red. masses --      5.4833                 3.7722                 1.7054
 Frc consts  --      1.1495                 1.3062                 0.6345
 IR Inten    --      8.2965                 2.0534                48.7651

                     16                     17                     18
                      A                      A                      A
 Frequencies --    801.3169               886.7549               921.0105
 Red. masses --      1.2963                 3.0407                 2.2538
 Frc consts  --      0.4904                 1.4087                 1.1264
 IR Inten    --     11.3323                21.3064                32.7546

                     19                     20                     21
                      A                      A                      A
 Frequencies --    933.4494              1066.0434              1092.2960
 Red. masses --      1.2165                 3.5936                 1.1447
 Frc consts  --      0.6245                 2.4062                 0.8046
 IR Inten    --     52.8049                20.6265                24.8201

                     22                     23                     24
                      A                      A                      A
 Frequencies --   1126.7990              1202.3753              1259.4995
 Red. masses --      2.0570                 1.7816                 5.5806
 Frc consts  --      1.5388                 1.5176                 5.2159
 IR Inten    --     20.5834                 9.2389               548.6727

                     25                     26                     27
                      A                      A                      A
 Frequencies --   1345.4647              1401.9631              1431.0383
 Red. masses --      1.1551                 1.2519                 1.3511
 Frc consts  --      1.2320                 1.4498                 1.6302
 IR Inten    --     39.6715                13.2251                 8.8029

                     28                     29                     30
                      A                      A                      A
 Frequencies --   1493.7446              1503.1885              1515.0621
 Red. masses --      1.0403                 1.0623                 1.0801
 Frc consts  --      1.3676                 1.4142                 1.4608
 IR Inten    --     12.5322                 1.5052                16.0767

                     31                     32                     33
                      A                      A                      A
 Frequencies --   1832.6650              1926.8222              3075.5914
 Red. masses --     11.6550                 7.4591                 1.0354
 Frc consts  --     23.0637                16.3163                 5.7706
 IR Inten    --    345.9365               154.7922                 8.6986

                     34                     35                     36
                      A                      A                      A
 Frequencies --   3109.3751              3151.2178              3155.8383
 Red. masses --      1.0606                 1.1017                 1.1048
 Frc consts  --      6.0414                 6.4457                 6.4828
 IR Inten    --     15.9837                12.6957                 2.2197

                     37                     38                     39
                      A                      A                      A
 Frequencies --   3176.5249              3348.1461              3817.3246
 Red. masses --      1.1078                 1.1214                 1.0681
 Frc consts  --      6.5857                 7.4069                 9.1702
 IR Inten    --     11.4106                26.7085                45.0426

 - Thermochemistry -
 -------------------
 Temperature   298.150 Kelvin.  Pressure   1.00000 Atm.
 Atom     1 has atomic number  8 and mass  15.99491

 Molecular mass:   115.03952 amu.
 Principal axes and moments of inertia in atomic units:
                           1         2         3
     Eigenvalues --   490.442701566.176651910.64316
           X            0.99961   0.02727  -0.00546
           Y           -0.02727   0.99963  -0.00014
           Z            0.00546   0.00029   0.99999
 This molecule is an asymmetric top.
 Rotational symmetry number  1.
 Warning -- assumption of classical behavior for rotation
           may cause significant error
 Rotational temperatures (Kelvin)      0.17660     0.05530     0.04533
 Rotational constants (GHZ):           3.67982     1.15232     0.94457
    1 imaginary frequencies ignored.
 Zero-point vibrational energy     296590.9 (Joules/Mol)
                                   70.88692 (Kcal/Mol)
 Warning -- explicit consideration of  12 degrees of freedom as
           vibrations may cause significant error
 Vibrational temperatures:     97.57   143.37   163.07   234.33   312.74
          (Kelvin)            371.35   429.18   452.34   500.67   608.81
                              794.03   858.23  1103.02  1143.30  1152.92
                             1275.84  1325.13  1343.03  1533.80  1571.57
                             1621.21  1729.95  1812.14  1935.82  2017.11
                             2058.94  2149.17  2162.75  2179.84  2636.80
                             2772.27  4425.09  4473.70  4533.90  4540.55
                             4570.31  4817.24  5492.28

 Zero-point correction=                           0.112966 (Hartree/Particle)
 Thermal correction to Energy=                    0.122044
 Thermal correction to Enthalpy=                  0.122989
 Thermal correction to Gibbs Free Energy=         0.078051
 Sum of electronic and zero-point Energies=           -420.102086
 Sum of electronic and thermal Energies=              -420.093007
 Sum of electronic and thermal Enthalpies=            -420.092063
 Sum of electronic and thermal Free Energies=         -420.137000

                     E (Thermal)             CV                S
                      KCal/Mol        Cal/Mol-Kelvin    Cal/Mol-Kelvin
 Total                   76.584             31.045             94.578
 Electronic               0.000              0.000              1.377
 Translational            0.889              2.981             40.136
 Rotational               0.889              2.981             28.775
 Vibrational             74.807             25.083             24.290
 Vibration     1          0.598              1.970              4.216
 Vibration     2          0.604              1.949              3.461
 Vibration     3          0.607              1.938              3.211
 Vibration     4          0.623              1.888              2.516
 Vibration     5          0.646              1.815              1.981
 Vibration     6          0.667              1.749              1.675
 Vibration     7          0.691              1.677              1.426
 Vibration     8          0.702              1.646              1.339
 Vibration     9          0.726              1.579              1.175
 Vibration    10          0.785              1.420              0.881
 Vibration    11          0.907              1.136              0.540
 Vibration    12          0.954              1.039              0.456

 1\1\GINC-AJ\Freq\UM062X\6-311++G(d,p)\C5H7O3(2)\AAYUSH\23-Jun-2025\0\\
 # freq 6-311++g(d,p) m062x\\Title Card Required\\0,2\O,2.774068,-1.334
 359,0.02621\H,1.870873,-1.625361,-0.169816\C,2.55165,0.44819,0.23907\H
 ,3.562879,0.753557,0.437038\C,1.357548,0.802973,0.104887\C,-0.080013,0
 .783122,-0.114397\O,-0.776856,1.75794,-0.076987\O,-0.49831,-0.461376,-
 0.364812\C,-1.918398,-0.624197,-0.58491\C,-2.671696,-0.652398,0.729683
 \H,-1.995152,-1.570775,-1.116507\H,-2.26324,0.18505,-1.229166\H,-3.728
 367,-0.849145,0.538883\H,-2.284418,-1.442435,1.374649\H,-2.588337,0.30

 Normal termination of Gaussian 16 at Mon Jun 23 06:34:00 2025.
