 Gaussian 16, Revision A.03,
 Gaussian 16:  ES64L-G16RevA.03 25-Dec-2016

 --------------------------
 # ccsd(t)/6-311++g(d,p) sp
 --------------------------

 -------------------
 Title Card Required
 -------------------
 Symbolic Z-matrix:
 Charge =  0 Multiplicity = 2

                         Standard orientation:
 ---------------------------------------------------------------------
 Center     Atomic      Atomic             Coordinates (Angstroms)
 Number     Number       Type             X           Y           Z
 ---------------------------------------------------------------------
      1          8           0        2.795784   -1.531517    0.024532
      2          1           0        1.856304   -1.705786   -0.159968
      3          6           0        2.539297    0.758347    0.266762
      4          1           0        3.591935    0.764046    0.427511
      5          6           0        1.352115    0.802207    0.090900
      6          6           0       -0.084503    0.783710   -0.126892
      7          8           0       -0.788302    1.752429   -0.105985
      8          8           0       -0.497799   -0.469214   -0.357721
      9          6           0       -1.916118   -0.639720   -0.574613
     10          6           0       -2.669889   -0.649722    0.740281
     11          1           0       -1.991690   -1.594606   -1.091650
     12          1           0       -2.264405    0.158309   -1.230979
     13          1           0       -3.726096   -0.852403    0.553074
     14          1           0       -2.280208   -1.428257    1.397769
     15          1           0       -2.588713    0.316180    1.238995
 ---------------------------------------------------------------------

 SCF Done:  E(UHF) =  -417.994282168     A.U. after   39 cycles
 E2 =    -0.1259882897D+01 EUMP2 =    -0.41925416506501D+03
 CCSD(T)= -0.41935845061D+03

 The electronic state is 2-A.
 Alpha  occ. eigenvalues --  -20.62487 -20.62424 -20.57086 -11.42228 -11.30624
 Alpha  occ. eigenvalues --  -11.26837 -11.26231 -11.23313  -1.49146  -1.39273
 Alpha  occ. eigenvalues --   -1.37909  -1.08994  -1.04579  -0.93026  -0.84524
 Alpha  occ. eigenvalues --   -0.77374  -0.73505  -0.70666  -0.67461  -0.67019
 Alpha  occ. eigenvalues --   -0.65039  -0.64217  -0.59462  -0.56188  -0.55125
 Alpha  occ. eigenvalues --   -0.54991  -0.51534  -0.49293  -0.47961  -0.43011
 Alpha  occ. eigenvalues --   -0.42280
 Alpha virt. eigenvalues --    0.03681   0.04756   0.05479   0.05987   0.07475
 Alpha virt. eigenvalues --    0.08613   0.08966   0.09228   0.11457   0.12352
 Alpha virt. eigenvalues --    0.12741   0.13449   0.14619   0.15199   0.16888

  Beta  occ. eigenvalues --  -20.62474 -20.58341 -20.56845 -11.42417 -11.30619
  Beta  occ. eigenvalues --  -11.27673 -11.25225 -11.23313  -1.49006  -1.38871
  Beta  occ. eigenvalues --   -1.22486  -1.08030  -1.04594  -0.93357  -0.84454
  Beta  occ. eigenvalues --   -0.77296  -0.73406  -0.70350  -0.67255  -0.64182
  Beta  occ. eigenvalues --   -0.62554  -0.59232  -0.55695  -0.54939  -0.51462
  Beta  occ. eigenvalues --   -0.50279  -0.48792  -0.47407  -0.43288  -0.42769
  Beta virt. eigenvalues --    0.03660   0.04728   0.05439   0.05769   0.07406
  Beta virt. eigenvalues --    0.07826   0.08469   0.08986   0.10751   0.12055
  Beta virt. eigenvalues --    0.12660   0.12850   0.13756   0.14480   0.15184

 Mulliken charges and spin densities:
               1          2
     1  O   -0.248712   0.987632
     2  H    0.256782  -0.035683
     3  C   -0.544778  -0.464901
     4  H    0.231444   0.038536
     5  C    1.074688   0.492221
     6  C   -0.649389  -0.064284
     7  O   -0.273848   0.047951
     8  O   -0.107455  -0.002324
     9  C   -0.186671  -0.000319
    10  C   -0.350934   0.000921
    11  H    0.162844   0.000139
    12  H    0.181714   0.000009
    13  H    0.136878   0.000119
    14  H    0.142829  -0.000041
    15  H    0.174608   0.000024
 Sum of Mulliken charges =  -0.00000   1.00000

 Dipole moment (field-independent basis, Debye):
    X=             -1.3041    Y=             -2.0687    Z=             -0.2788  Tot=              2.4613
 Quadrupole moment (field-independent basis, Debye-Ang):
   XX=            -42.4617   YY=            -52.4262   ZZ=            -47.4830
   XY=              7.9344   XZ=              1.6328   YZ=              1.1042

 004\PMP3-0=-419.2859917\MP4SDQ=-419.3058757\CCSD=-419.3061129\CCSD(T)=
 Normal termination of Gaussian 16 at Tue Aug 26 22:20:20 2025.
