 Gaussian 16, Revision A.03,
 Gaussian 16:  ES64L-G16RevA.03 25-Dec-2016

 --------------------------
 # ccsd(t)/6-311++g(d,p) sp
 --------------------------

 -------------------
 Title Card Required
 -------------------
 Symbolic Z-matrix:
 Charge =  0 Multiplicity = 2

                         Standard orientation:
 ---------------------------------------------------------------------
 Center     Atomic      Atomic             Coordinates (Angstroms)
 Number     Number       Type             X           Y           Z
 ---------------------------------------------------------------------
      1          8           0        2.778674   -1.381348    0.025182
      2          1           0        1.867548   -1.654533   -0.168841
      3          6           0        2.545869    0.534987    0.247881
      4          1           0        3.581956    0.725203    0.432621
      5          6           0        1.356974    0.793157    0.100367
      6          6           0       -0.081356    0.784101   -0.117286
      7          8           0       -0.778846    1.757516   -0.083693
      8          8           0       -0.498194   -0.462554   -0.363022
      9          6           0       -1.917789   -0.627526   -0.582461
     10          6           0       -2.671261   -0.651632    0.732167
     11          1           0       -1.993772   -1.576155   -1.110561
     12          1           0       -2.263716    0.178872   -1.229749
     13          1           0       -3.727745   -0.850106    0.542124
     14          1           0       -2.283188   -1.438800    1.380158
     15          1           0       -2.588774    0.308090    1.242513
 ---------------------------------------------------------------------

 SCF Done:  E(UHF) =  -417.981168807     A.U. after   31 cycles
 E2 =    -0.1252832340D+01 EUMP2 =    -0.41923400114720D+03
 CCSD(T)= -0.41935535201D+03

 The electronic state is 2-A.
 Alpha  occ. eigenvalues --  -20.62430 -20.61365 -20.57288 -11.42035 -11.30621
 Alpha  occ. eigenvalues --  -11.27680 -11.27163 -11.23321  -1.49262  -1.39536
 Alpha  occ. eigenvalues --   -1.37001  -1.09976  -1.04646  -0.92776  -0.84709
 Alpha  occ. eigenvalues --   -0.77533  -0.73849  -0.70823  -0.67612  -0.65509
 Alpha  occ. eigenvalues --   -0.64454  -0.63508  -0.59594  -0.56502  -0.55050
 Alpha  occ. eigenvalues --   -0.54346  -0.51584  -0.49464  -0.48282  -0.43441
 Alpha  occ. eigenvalues --   -0.42430
 Alpha virt. eigenvalues --    0.03710   0.04785   0.05462   0.05985   0.07449
 Alpha virt. eigenvalues --    0.08887   0.08971   0.09208   0.11348   0.12258
 Alpha virt. eigenvalues --    0.12716   0.13580   0.14686   0.15158   0.16949

  Beta  occ. eigenvalues --  -20.62381 -20.57788 -20.56773 -11.42454 -11.30604
  Beta  occ. eigenvalues --  -11.29738 -11.24747 -11.23320  -1.48924  -1.38654
  Beta  occ. eigenvalues --   -1.24432  -1.07527  -1.04571  -0.93452  -0.84386
  Beta  occ. eigenvalues --   -0.77291  -0.73466  -0.70174  -0.67155  -0.64098
  Beta  occ. eigenvalues --   -0.62049  -0.59097  -0.55482  -0.54898  -0.51502
  Beta  occ. eigenvalues --   -0.51047  -0.48424  -0.47046  -0.45087  -0.42502
  Beta virt. eigenvalues --    0.03688   0.04704   0.05344   0.05615   0.07023
  Beta virt. eigenvalues --    0.07464   0.08541   0.08928   0.10115   0.11820
  Beta virt. eigenvalues --    0.12612   0.13399   0.13785   0.14189   0.15021

 Mulliken charges and spin densities:
               1          2
     1  O   -0.251480   0.846388
     2  H    0.263040  -0.028258
     3  C   -2.153880  -1.021813
     4  H    0.206636   0.081357
     5  C    2.020941   1.052317
     6  C    0.035861  -0.032446
     7  O   -0.275465   0.103799
     8  O   -0.125640  -0.005525
     9  C   -0.175568   0.001911
    10  C   -0.345759   0.001702
    11  H    0.167354   0.000251
    12  H    0.180726  -0.000231
    13  H    0.135837   0.000287
    14  H    0.143624  -0.000071
    15  H    0.173773   0.000334
 Sum of Mulliken charges =  -0.00000   1.00000

 Dipole moment (field-independent basis, Debye):
    X=             -1.4265    Y=             -1.7398    Z=             -0.2734  Tot=              2.2664
 Quadrupole moment (field-independent basis, Debye-Ang):
   XX=            -43.3263   YY=            -52.4330   ZZ=            -47.3411
   XY=              8.5302   XZ=              1.7031   YZ=              1.0426

 642\PMP3-0=-419.2828319\MP4SDQ=-419.2925997\CCSD=-419.3008491\CCSD(T)=
 Normal termination of Gaussian 16 at Wed Aug  6 04:36:20 2025.
