 Gaussian 16, Revision A.03,
 Gaussian 16:  ES64L-G16RevA.03 25-Dec-2016

 --------------------------
 # freq 6-311++g(d,p) m062x
 --------------------------

 -------------------
 Title Card Required
 -------------------
 Symbolic Z-matrix:
 Charge =  0 Multiplicity = 2

                         Standard orientation:
 ---------------------------------------------------------------------
 Center     Atomic      Atomic             Coordinates (Angstroms)
 Number     Number       Type             X           Y           Z
 ---------------------------------------------------------------------
      1          8           0        2.771787   -1.310514    0.027003
      2          1           0        1.873132   -1.612156   -0.170153
      3          6           0        2.553685    0.405159    0.234390
      4          1           0        3.549563    0.762504    0.437951
      5          6           0        1.358869    0.808827    0.107487
      6          6           0       -0.078796    0.782715   -0.112886
      7          8           0       -0.776007    1.757935   -0.073754
      8          8           0       -0.498477   -0.461034   -0.365764
      9          6           0       -1.918583   -0.622604   -0.586147
     10          6           0       -2.671905   -0.652817    0.728392
     11          1           0       -1.996066   -1.568165   -1.119508
     12          1           0       -2.262970    0.188069   -1.228846
     13          1           0       -3.728687   -0.848749    0.537296
     14          1           0       -2.284997   -1.444230    1.371922
     15          1           0       -2.588026    0.303945    1.244047
 ---------------------------------------------------------------------

 SCF Done:  E(UM062X) =  -420.223412379     A.U. after   19 cycles

 The electronic state is 2-A.
 Alpha  occ. eigenvalues --  -19.69640 -19.64387 -19.64353 -10.71756 -10.64019
 Alpha  occ. eigenvalues --  -10.61610 -10.59936 -10.54617  -1.26836  -1.17666
 Alpha  occ. eigenvalues --   -1.10789  -0.92637  -0.88425  -0.79334  -0.72427
 Alpha  occ. eigenvalues --   -0.65808  -0.62810  -0.59738  -0.57669  -0.54880
 Alpha  occ. eigenvalues --   -0.52998  -0.50502  -0.48940  -0.47802  -0.46143
 Alpha  occ. eigenvalues --   -0.43230  -0.42563  -0.40121  -0.39518  -0.35965
 Alpha  occ. eigenvalues --   -0.31985
 Alpha virt. eigenvalues --   -0.03297  -0.00731   0.00767   0.01245   0.01534
 Alpha virt. eigenvalues --    0.02763   0.04466   0.04939   0.05799   0.06278
 Alpha virt. eigenvalues --    0.07017   0.07206   0.08262   0.08944   0.10307

  Beta  occ. eigenvalues --  -19.69594 -19.64307 -19.63750 -10.71802 -10.64174
  Beta  occ. eigenvalues --  -10.61600 -10.59291 -10.54617  -1.26668  -1.17431
  Beta  occ. eigenvalues --   -1.08595  -0.91044  -0.87458  -0.79147  -0.71757
  Beta  occ. eigenvalues --   -0.65584  -0.62178  -0.59413  -0.57351  -0.54579
  Beta  occ. eigenvalues --   -0.51495  -0.50201  -0.47708  -0.46390  -0.43487
  Beta  occ. eigenvalues --   -0.42959  -0.41899  -0.39838  -0.38923  -0.34375
  Beta virt. eigenvalues --   -0.08854  -0.03072  -0.00689   0.00832   0.01290
  Beta virt. eigenvalues --    0.01743   0.02873   0.04837   0.05034   0.05797
  Beta virt. eigenvalues --    0.06278   0.06997   0.07763   0.08537   0.08918

 Mulliken charges and spin densities:
               1          2
     1  O   -0.329457   0.314883
     2  H    0.252580  -0.003036
     3  C   -1.231468  -0.241782
     4  H    0.202818   0.031349
     5  C    1.320123   0.737771
     6  C   -0.185811   0.133089
     7  O   -0.217892   0.017033
     8  O   -0.040233   0.002962
     9  C   -0.289077   0.004126
    10  C   -0.393119   0.002858
    11  H    0.198719   0.000364
    12  H    0.197161  -0.000277
    13  H    0.166924   0.000424
    14  H    0.165665  -0.000183
    15  H    0.183068   0.000419
 Sum of Mulliken charges =  -0.00000   1.00000

 Dipole moment (field-independent basis, Debye):
    X=             -1.9821    Y=             -0.7174    Z=             -0.1812  Tot=              2.1157
 Quadrupole moment (field-independent basis, Debye-Ang):
   XX=            -44.9972   YY=            -52.7503   ZZ=            -47.4120
   XY=             10.8435   XZ=              1.7773   YZ=              1.0656

  Exact polarizability:  94.510  -7.872  75.603   2.442   1.792  50.208
 Approx polarizability: 101.022 -16.881  95.490   4.040   2.649  58.353

 ******    1 imaginary frequencies (negative Signs) ******

                      1                      2                      3
                      A                      A                      A
 Frequencies --   -607.6513                70.3211               107.7142
 Red. masses --     11.8433                 3.6002                 6.0224
 Frc consts  --      2.5765                 0.0105                 0.0412
 IR Inten    --     51.7063                 0.0201                 1.1795

                      4                      5                      6
                      A                      A                      A
 Frequencies --    113.7714               172.8024               218.4308
 Red. masses --      3.7414                 5.4147                 1.2234
 Frc consts  --      0.0285                 0.0953                 0.0344
 IR Inten    --      1.3630                 2.6613                 2.6904

                      7                      8                      9
                      A                      A                      A
 Frequencies --    275.5898               307.2659               342.2448
 Red. masses --      1.3000                 2.8136                 2.2452
 Frc consts  --      0.0582                 0.1565                 0.1549
 IR Inten    --     40.4685                 7.5059                65.3150

                     10                     11                     12
                      A                      A                      A
 Frequencies --    359.0220               426.4850               556.1324
 Red. masses --      4.1361                 3.9927                 5.7015
 Frc consts  --      0.3141                 0.4279                 1.0390
 IR Inten    --      8.3561                 0.6788                 6.7366

                     13                     14                     15
                      A                      A                      A
 Frequencies --    600.9806               767.3821               799.9993
 Red. masses --      5.4409                 5.2515                 1.2343
 Frc consts  --      1.1578                 1.8220                 0.4654
 IR Inten    --     10.2344                 6.6542                 9.1371

                     16                     17                     18
                      A                      A                      A
 Frequencies --    808.1465               886.0893               922.2793
 Red. masses --      1.6469                 3.0447                 2.7496
 Frc consts  --      0.6337                 1.4085                 1.3780
 IR Inten    --     44.4039                17.7433                 4.4057

                     19                     20                     21
                      A                      A                      A
 Frequencies --    990.2475              1065.8428              1126.7406
 Red. masses --      1.1065                 3.8307                 2.0556
 Frc consts  --      0.6393                 2.5640                 1.5376
 IR Inten    --     53.2982                23.0701                20.2844

                     22                     23                     24
                      A                      A                      A
 Frequencies --   1159.3440              1202.6816              1260.8789
 Red. masses --      1.1442                 1.7715                 5.2838
 Frc consts  --      0.9061                 1.5097                 4.9493
 IR Inten    --     37.3370                 5.2922               539.4152

                     25                     26                     27
                      A                      A                      A
 Frequencies --   1345.4790              1401.8431              1430.9645
 Red. masses --      1.1556                 1.2520                 1.3513
 Frc consts  --      1.2326                 1.4496                 1.6303
 IR Inten    --     40.5210                12.7705                 9.0375

                     28                     29                     30
                      A                      A                      A
 Frequencies --   1493.7041              1503.2182              1515.0557
 Red. masses --      1.0403                 1.0626                 1.0798
 Frc consts  --      1.3676                 1.4147                 1.4604
 IR Inten    --     12.4216                 1.5571                15.6554

                     31                     32                     33
                      A                      A                      A
 Frequencies --   1825.4636              1882.0763              3075.4011
 Red. masses --     11.1254                 8.2079                 1.0354
 Frc consts  --     21.8430                17.1300                 5.7699
 IR Inten    --    277.9768               247.4979                 8.8463

                     34                     35                     36
                      A                      A                      A
 Frequencies --   3109.2065              3150.8893              3155.6786
 Red. masses --      1.0605                 1.1017                 1.1048
 Frc consts  --      6.0403                 6.4446                 6.4821
 IR Inten    --     16.2081                12.7465                 2.3444

                     37                     38                     39
                      A                      A                      A
 Frequencies --   3176.2250              3311.0911              3824.2443
 Red. masses --      1.1078                 1.1140                 1.0680
 Frc consts  --      6.5845                 7.1958                 9.2028
 IR Inten    --     11.6730                16.1177                45.4504

 - Thermochemistry -
 -------------------
 Temperature   298.150 Kelvin.  Pressure   1.00000 Atm.
 Atom     1 has atomic number  8 and mass  15.99491

 Molecular mass:   115.03952 amu.
 Principal axes and moments of inertia in atomic units:
                           1         2         3
     Eigenvalues --   485.354101565.671781905.23799
           X            0.99961   0.02728  -0.00543
           Y           -0.02728   0.99963  -0.00011
           Z            0.00542   0.00026   0.99999
 This molecule is an asymmetric top.
 Rotational symmetry number  1.
 Warning -- assumption of classical behavior for rotation
           may cause significant error
 Rotational temperatures (Kelvin)      0.17846     0.05532     0.04546
 Rotational constants (GHZ):           3.71840     1.15269     0.94725
    1 imaginary frequencies ignored.
 Zero-point vibrational energy     297516.8 (Joules/Mol)
                                   71.10823 (Kcal/Mol)
 Warning -- explicit consideration of  12 degrees of freedom as
           vibrations may cause significant error
 Vibrational temperatures:    101.18   154.98   163.69   248.62   314.27
          (Kelvin)            396.51   442.09   492.41   516.55   613.62
                              800.15   864.68  1104.09  1151.02  1162.74
                             1274.88  1326.95  1424.75  1533.51  1621.13
                             1668.04  1730.39  1814.12  1935.84  2016.94
                             2058.84  2149.11  2162.80  2179.83  2626.43
                             2707.89  4424.82  4473.45  4533.43  4540.32
                             4569.88  4763.92  5502.23

 Zero-point correction=                           0.113318 (Hartree/Particle)
 Thermal correction to Energy=                    0.122251
 Thermal correction to Enthalpy=                  0.123195
 Thermal correction to Gibbs Free Energy=         0.078634
 Sum of electronic and zero-point Energies=           -420.110094
 Sum of electronic and thermal Energies=              -420.101161
 Sum of electronic and thermal Enthalpies=            -420.100217
 Sum of electronic and thermal Free Energies=         -420.144778

                     E (Thermal)             CV                S
                      KCal/Mol        Cal/Mol-Kelvin    Cal/Mol-Kelvin
 Total                   76.714             30.731             93.786
 Electronic               0.000              0.000              1.377
 Translational            0.889              2.981             40.136
 Rotational               0.889              2.981             28.761
 Vibrational             74.936             24.769             23.512
 Vibration     1          0.598              1.968              4.144
 Vibration     2          0.606              1.943              3.310
 Vibration     3          0.607              1.938              3.204
 Vibration     4          0.626              1.876              2.405
 Vibration     5          0.646              1.813              1.972
 Vibration     6          0.677              1.719              1.561
 Vibration     7          0.697              1.660              1.377
 Vibration     8          0.721              1.591              1.202
 Vibration     9          0.734              1.557              1.126
 Vibration    10          0.788              1.413              0.870
 Vibration    11          0.912              1.126              0.532
 Vibration    12          0.959              1.030              0.448

 1\1\GINC-AJ\Freq\UM062X\6-311++G(d,p)\C5H7O3(2)\AAYUSH\23-Jun-2025\0\\
 # freq 6-311++g(d,p) m062x\\Title Card Required\\0,2\O,2.771787,-1.310
 514,0.027003\H,1.873132,-1.612156,-0.170153\C,2.553685,0.405159,0.2343
 9\H,3.549563,0.762504,0.437951\C,1.358869,0.808827,0.107487\C,-0.07879
 6,0.782715,-0.112886\O,-0.776007,1.757935,-0.073754\O,-0.498477,-0.461
 034,-0.365764\C,-1.918583,-0.622604,-0.586147\C,-2.671905,-0.652817,0.
 728392\H,-1.996066,-1.568165,-1.119508\H,-2.26297,0.188069,-1.228846\H
 ,-3.728687,-0.84875,0.537296\H,-2.284997,-1.44423,1.371922\H,-2.588026

 Normal termination of Gaussian 16 at Mon Jun 23 06:19:41 2025.
