 Gaussian 16, Revision A.03,
 Gaussian 16:  ES64L-G16RevA.03 25-Dec-2016

 --------------------------
 # ccsd(t)/6-311++g(d,p) sp
 --------------------------

 -------------------
 Title Card Required
 -------------------
 Symbolic Z-matrix:
 Charge =  0 Multiplicity = 2

                         Standard orientation:
 ---------------------------------------------------------------------
 Center     Atomic      Atomic             Coordinates (Angstroms)
 Number     Number       Type             X           Y           Z
 ---------------------------------------------------------------------
      1          8           0        2.784494   -1.431373    0.024640
      2          1           0        1.864165   -1.678617   -0.166769
      3          6           0        2.541725    0.620610    0.255975
      4          1           0        3.590538    0.706248    0.427801
      5          6           0        1.355443    0.789920    0.096353
      6          6           0       -0.082087    0.784536   -0.120382
      7          8           0       -0.781450    1.756349   -0.091048
      8          8           0       -0.498457   -0.464589   -0.361277
      9          6           0       -1.917058   -0.631451   -0.579844
     10          6           0       -2.670747   -0.651087    0.734845
     11          1           0       -1.993090   -1.582196   -1.104309
     12          1           0       -2.264167    0.172067   -1.230143
     13          1           0       -3.727092   -0.851347    0.545864
     14          1           0       -2.281808   -1.435182    1.386099
     15          1           0       -2.588898    0.310766    1.241254
 ---------------------------------------------------------------------

 SCF Done:  E(UHF) =  -417.985300410     A.U. after   35 cycles
 E2 =    -0.1256072784D+01 EUMP2 =    -0.41924137319383D+03
 CCSD(T)= -0.41935469734D+03

 The electronic state is 2-A.
 Alpha  occ. eigenvalues --  -20.62392 -20.61983 -20.57140 -11.42055 -11.30578
 Alpha  occ. eigenvalues --  -11.26942 -11.26477 -11.23286  -1.49148  -1.39369
 Alpha  occ. eigenvalues --   -1.37683  -1.09464  -1.04561  -0.92832  -0.84531
 Alpha  occ. eigenvalues --   -0.77414  -0.73818  -0.70716  -0.67494  -0.66324
 Alpha  occ. eigenvalues --   -0.64688  -0.64092  -0.59494  -0.56327  -0.55013
 Alpha  occ. eigenvalues --   -0.54874  -0.51525  -0.49337  -0.48091  -0.43167
 Alpha  occ. eigenvalues --   -0.42149
 Alpha virt. eigenvalues --    0.03697   0.04712   0.05469   0.05986   0.07471
 Alpha virt. eigenvalues --    0.08890   0.08918   0.09203   0.11359   0.12291
 Alpha virt. eigenvalues --    0.12743   0.13599   0.14609   0.15198   0.16709

  Beta  occ. eigenvalues --  -20.62360 -20.58076 -20.56741 -11.42378 -11.30566
  Beta  occ. eigenvalues --  -11.28458 -11.24700 -11.23286  -1.48898  -1.38691
  Beta  occ. eigenvalues --   -1.23409  -1.07733  -1.04575  -0.93380  -0.84347
  Beta  occ. eigenvalues --   -0.77245  -0.73522  -0.70200  -0.67145  -0.64098
  Beta  occ. eigenvalues --   -0.62331  -0.59115  -0.55521  -0.54883  -0.51423
  Beta  occ. eigenvalues --   -0.50699  -0.48516  -0.47148  -0.43963  -0.42646
  Beta virt. eigenvalues --    0.03669   0.04639   0.05403   0.05718   0.07337
  Beta virt. eigenvalues --    0.07532   0.08617   0.08954   0.10352   0.11943
  Beta virt. eigenvalues --    0.12692   0.13177   0.13833   0.14260   0.15055

 Mulliken charges and spin densities:
               1          2
     1  O   -0.246005   0.929100
     2  H    0.262554  -0.032102
     3  C   -2.578535  -0.810002
     4  H    0.200110   0.066086
     5  C    2.366583   0.797433
     6  C    0.118760  -0.028183
     7  O   -0.274011   0.079783
     8  O   -0.121128  -0.004853
     9  C   -0.182698   0.001008
    10  C   -0.347442   0.001352
    11  H    0.167420   0.000146
    12  H    0.180702  -0.000123
    13  H    0.136263   0.000194
    14  H    0.143400  -0.000056
    15  H    0.174029   0.000216
 Sum of Mulliken charges =  -0.00000   1.00000

 Dipole moment (field-independent basis, Debye):
    X=             -1.2986    Y=             -2.0145    Z=             -0.2855  Tot=              2.4138
 Quadrupole moment (field-independent basis, Debye-Ang):
   XX=            -42.6252   YY=            -52.3187   ZZ=            -47.4050
   XY=              7.8172   XZ=              1.6635   YZ=              1.0392

 8\PMP3-0=-419.2814978\MP4SDQ=-419.2968223\CCSD=-419.3012706\CCSD(T)=-4
 Normal termination of Gaussian 16 at Tue Aug  5 13:13:30 2025.
