 Gaussian 16, Revision A.03,
 Gaussian 16:  ES64L-G16RevA.03 25-Dec-2016

 -------------------
 # freq 6-31+g m062x
 -------------------

 -------------------
 Title Card Required
 -------------------
 Symbolic Z-matrix:
 Charge =  0 Multiplicity = 2

                         Standard orientation:
 ---------------------------------------------------------------------
 Center     Atomic      Atomic             Coordinates (Angstroms)
 Number     Number       Type             X           Y           Z
 ---------------------------------------------------------------------
      1          8           0        2.779992   -1.393454    0.025008
      2          1           0        1.866813   -1.661442   -0.168255
      3          6           0        2.544638    0.556602    0.249982
      4          1           0        3.584709    0.718638    0.431229
      5          6           0        1.356709    0.791713    0.099327
      6          6           0       -0.081523    0.784263   -0.118029
      7          8           0       -0.779422    1.757292   -0.085465
      8          8           0       -0.498249   -0.462994   -0.362596
      9          6           0       -1.917593   -0.628461   -0.581831
     10          6           0       -2.671140   -0.651458    0.732802
     11          1           0       -1.993535   -1.577660   -1.108966
     12          1           0       -2.263837    0.177163   -1.229922
     13          1           0       -3.727581   -0.850414    0.543026
     14          1           0       -2.282829   -1.437816    1.381653
     15          1           0       -2.588851    0.308817    1.242140
 ---------------------------------------------------------------------

 SCF Done:  E(UM062X) =  -419.958596614     A.U. after   23 cycles

 The electronic state is 2-A.
 Alpha  occ. eigenvalues --  -19.72151 -19.67661 -19.67585 -10.74295 -10.62709
 Alpha  occ. eigenvalues --  -10.62142 -10.60560 -10.55517  -1.29291  -1.20049
 Alpha  occ. eigenvalues --   -1.12156  -0.93083  -0.89067  -0.79874  -0.72645
 Alpha  occ. eigenvalues --   -0.65939  -0.63001  -0.59814  -0.58126  -0.55272
 Alpha  occ. eigenvalues --   -0.52619  -0.50731  -0.49322  -0.48151  -0.46381
 Alpha  occ. eigenvalues --   -0.43302  -0.41830  -0.40154  -0.39547  -0.37351
 Alpha  occ. eigenvalues --   -0.33687
 Alpha virt. eigenvalues --   -0.02859   0.01400   0.02804   0.03021   0.03716
 Alpha virt. eigenvalues --    0.04281   0.05510   0.06253   0.07127   0.07728
 Alpha virt. eigenvalues --    0.08097   0.08444   0.08802   0.10897   0.11923

  Beta  occ. eigenvalues --  -19.72131 -19.67612 -19.66211 -10.74326 -10.62705
  Beta  occ. eigenvalues --  -10.62247 -10.60233 -10.55517  -1.29212  -1.19935
  Beta  occ. eigenvalues --   -1.06908  -0.92289  -0.88640  -0.79739  -0.72313
  Beta  occ. eigenvalues --   -0.65851  -0.62606  -0.59668  -0.57943  -0.55132
  Beta  occ. eigenvalues --   -0.50800  -0.49979  -0.48044  -0.46503  -0.43221
  Beta  occ. eigenvalues --   -0.40745  -0.40321  -0.39716  -0.38633  -0.35282
  Beta virt. eigenvalues --   -0.09809  -0.02860   0.01435   0.02868   0.03046
  Beta virt. eigenvalues --    0.03964   0.04443   0.06156   0.06470   0.07200
  Beta virt. eigenvalues --    0.07841   0.08104   0.08607   0.09108   0.11128

 Mulliken charges and spin densities:
               1          2
     1  O   -0.501102   0.740931
     2  H    0.420879  -0.025807
     3  C   -0.182298  -0.213397
     4  H    0.301862   0.021793
     5  C    0.537953   0.451314
     6  C   -0.230508   0.012572
     7  O   -0.368016   0.013131
     8  O   -0.278488  -0.001852
     9  C   -0.260420  -0.000795
    10  C   -0.570328   0.001646
    11  H    0.223846   0.000310
    12  H    0.236722  -0.000035
    13  H    0.211867   0.000126
    14  H    0.221216   0.000021
    15  H    0.236815   0.000041
 Sum of Mulliken charges =  -0.00000   1.00000

 Dipole moment (field-independent basis, Debye):
    X=             -2.1238    Y=             -0.9992    Z=             -0.2440  Tot=              2.3598
 Quadrupole moment (field-independent basis, Debye-Ang):
   XX=            -45.0425   YY=            -53.1736   ZZ=            -47.6256
   XY=             10.6111   XZ=              1.7038   YZ=              1.1034

  Exact polarizability:  91.892 -11.094  79.339   2.993   2.191  46.097
 Approx polarizability:  99.542 -18.918  88.736   5.383   2.449  48.237

 ******    4 imaginary frequencies (negative Signs) ******

                      1                      2                      3
                      A                      A                      A
 Frequencies --   -647.0913              -409.9355              -106.5895
 Red. masses --     11.6516                 1.0670                 7.9109
 Frc consts  --      2.8745                 0.1056                 0.0530
 IR Inten    --     74.6295               142.4169                 1.0913

                      4                      5                      6
                      A                      A                      A
 Frequencies --    -80.0686                30.8865                74.6424
 Red. masses --      5.4366                 2.7640                 3.5467
 Frc consts  --      0.0205                 0.0016                 0.0116
 IR Inten    --      1.7529                 2.7527                11.9024

                      7                      8                      9
                      A                      A                      A
 Frequencies --    172.1976               226.8068               235.9985
 Red. masses --      1.3064                 4.0734                 3.9042
 Frc consts  --      0.0228                 0.1235                 0.1281
 IR Inten    --      3.9607                 5.7999                 2.7509

                     10                     11                     12
                      A                      A                      A
 Frequencies --    312.5782               415.5662               573.7499
 Red. masses --      3.0430                 3.8124                 4.8492
 Frc consts  --      0.1752                 0.3879                 0.9405
 IR Inten    --     10.7379                 3.7013                 2.2072

                     13                     14                     15
                      A                      A                      A
 Frequencies --    593.9834               696.8115               765.8461
 Red. masses --      6.3052                 1.1627                 5.1476
 Frc consts  --      1.3107                 0.3326                 1.7788
 IR Inten    --     15.4285               199.5111                54.1007

                     16                     17                     18
                      A                      A                      A
 Frequencies --    810.8080               816.0953               860.3143
 Red. masses --      1.5050                 1.3182                 1.0934
 Frc consts  --      0.5829                 0.5173                 0.4768
 IR Inten    --     18.3112                 2.5768                28.4592

                     19                     20                     21
                      A                      A                      A
 Frequencies --    896.8234               944.8472              1107.1218
 Red. masses --      2.9930                 2.6578                 4.2319
 Frc consts  --      1.4183                 1.3979                 3.0562
 IR Inten    --     21.6707                 4.4485                 5.9721

                     22                     23                     24
                      A                      A                      A
 Frequencies --   1155.8094              1226.7734              1306.3850
 Red. masses --      2.0416                 1.7574                 3.5971
 Frc consts  --      1.6070                 1.5583                 3.6170
 IR Inten    --     18.0506                10.0166               465.3520

                     25                     26                     27
                      A                      A                      A
 Frequencies --   1363.8739              1441.0499              1457.9636
 Red. masses --      1.3103                 1.3142                 1.2514
 Frc consts  --      1.4361                 1.6079                 1.5672
 IR Inten    --    112.9517                13.8206                18.8796

                     28                     29                     30
                      A                      A                      A
 Frequencies --   1528.5631              1537.3285              1545.3557
 Red. masses --      1.0415                 1.0671                 1.0724
 Frc consts  --      1.4337                 1.4859                 1.5090
 IR Inten    --     16.3237                 3.5528                22.5298

                     31                     32                     33
                      A                      A                      A
 Frequencies --   1912.6011              2159.8763              3108.2296
 Red. masses --     12.2608                 6.3415                 1.0352
 Frc consts  --     26.4252                17.4302                 5.8923
 IR Inten    --    355.3310                94.5958                11.4994

                     34                     35                     36
                      A                      A                      A
 Frequencies --   3140.0322              3188.3498              3192.4364
 Red. masses --      1.0600                 1.1007                 1.1025
 Frc consts  --      6.1576                 6.5926                 6.6200
 IR Inten    --     17.6792                12.1446                 5.7656

                     37                     38                     39
                      A                      A                      A
 Frequencies --   3213.0621              3480.2103              3810.0362
 Red. masses --      1.1056                 1.1491                 1.0677
 Frc consts  --      6.7250                 8.1999                 9.1318
 IR Inten    --     13.9884                61.0057                17.6374

 - Thermochemistry -
 -------------------
 Temperature   298.150 Kelvin.  Pressure   1.00000 Atm.
 Atom     1 has atomic number  8 and mass  15.99491

 Molecular mass:   115.03952 amu.
 Principal axes and moments of inertia in atomic units:
                           1         2         3
     Eigenvalues --   504.270641567.085601924.90675
           X            0.99962   0.02708  -0.00558
           Y           -0.02708   0.99963  -0.00029
           Z            0.00557   0.00044   0.99998
 This molecule is an asymmetric top.
 Rotational symmetry number  1.
 Warning -- assumption of classical behavior for rotation
           may cause significant error
 Rotational temperatures (Kelvin)      0.17176     0.05527     0.04500
 Rotational constants (GHZ):           3.57891     1.15165     0.93757
    4 imaginary frequencies ignored.
 Zero-point vibrational energy     294897.5 (Joules/Mol)
                                   70.48220 (Kcal/Mol)
 Warning -- explicit consideration of   9 degrees of freedom as
           vibrations may cause significant error
 Vibrational temperatures:     44.44   107.39   247.75   326.32   339.55
          (Kelvin)            449.73   597.91   825.50   854.61  1002.56
                             1101.88  1166.57  1174.18  1237.80  1290.33
                             1359.42  1592.90  1662.95  1765.05  1879.60
                             1962.31  2073.35  2097.68  2199.26  2211.87
                             2223.42  2751.81  3107.58  4472.05  4517.81
                             4587.32  4593.20  4622.88  5007.25  5481.79

 Zero-point correction=                           0.112321 (Hartree/Particle)
 Thermal correction to Energy=                    0.120102
 Thermal correction to Enthalpy=                  0.121046
 Thermal correction to Gibbs Free Energy=         0.077761
 Sum of electronic and zero-point Energies=           -419.846276
 Sum of electronic and thermal Energies=              -419.838495
 Sum of electronic and thermal Enthalpies=            -419.837550
 Sum of electronic and thermal Free Energies=         -419.880836

                     E (Thermal)             CV                S
                      KCal/Mol        Cal/Mol-Kelvin    Cal/Mol-Kelvin
 Total                   75.365             26.258             91.102
 Electronic               0.000              0.000              1.377
 Translational            0.889              2.981             40.136
 Rotational               0.889              2.981             28.810
 Vibrational             73.588             20.296             20.778
 Vibration     1          0.594              1.984              5.772
 Vibration     2          0.599              1.966              4.027
 Vibration     3          0.626              1.877              2.411
 Vibration     4          0.650              1.800              1.904
 Vibration     5          0.655              1.786              1.833
 Vibration     6          0.701              1.650              1.349
 Vibration     7          0.779              1.436              0.907
 Vibration     8          0.930              1.088              0.497
 Vibration     9          0.952              1.045              0.460

 Normal termination of Gaussian 16 at Fri Jun 20 14:18:29 2025.
