 Gaussian 16, Revision A.03,
 Gaussian 16:  ES64L-G16RevA.03 25-Dec-2016

 --------------------------
 # freq 6-311++g(d,p) m062x
 --------------------------

 -------------------
 Title Card Required
 -------------------
 Symbolic Z-matrix:
 Charge =  0 Multiplicity = 2

                         Standard orientation:
 ---------------------------------------------------------------------
 Center     Atomic      Atomic             Coordinates (Angstroms)
 Number     Number       Type             X           Y           Z
 ---------------------------------------------------------------------
      1          8           0        2.769299   -1.286047    0.027989
      2          1           0        1.875870   -1.600405   -0.170449
      3          6           0        2.554678    0.362616    0.229523
      4          1           0        3.534702    0.765778    0.437958
      5          6           0        1.361249    0.814572    0.110287
      6          6           0       -0.077108    0.782472   -0.111284
      7          8           0       -0.775190    1.757810   -0.070556
      8          8           0       -0.498664   -0.460800   -0.366756
      9          6           0       -1.918696   -0.620967   -0.587412
     10          6           0       -2.672133   -0.653200    0.727040
     11          1           0       -1.997116   -1.565498   -1.122568
     12          1           0       -2.262668    0.191150   -1.228506
     13          1           0       -3.729038   -0.848318    0.535688
     14          1           0       -2.285596   -1.445972    1.369167
     15          1           0       -2.587657    0.302599    1.244369
 ---------------------------------------------------------------------

 SCF Done:  E(UM062X) =  -420.233347592     A.U. after   19 cycles

 The electronic state is 2-A.
 Alpha  occ. eigenvalues --  -19.69482 -19.64841 -19.64145 -10.71483 -10.64360
 Alpha  occ. eigenvalues --  -10.61508 -10.59766 -10.54540  -1.26625  -1.17434
 Alpha  occ. eigenvalues --   -1.11753  -0.92371  -0.88238  -0.79161  -0.72380
 Alpha  occ. eigenvalues --   -0.65726  -0.62780  -0.59571  -0.57493  -0.54802
 Alpha  occ. eigenvalues --   -0.53616  -0.50413  -0.49068  -0.47685  -0.46084
 Alpha  occ. eigenvalues --   -0.43481  -0.42849  -0.39942  -0.39306  -0.35614
 Alpha  occ. eigenvalues --   -0.31984
 Alpha virt. eigenvalues --   -0.03209  -0.00730   0.00785   0.01255   0.01525
 Alpha virt. eigenvalues --    0.02829   0.04421   0.04960   0.05845   0.06412
 Alpha virt. eigenvalues --    0.07055   0.07594   0.08342   0.09110   0.10586

  Beta  occ. eigenvalues --  -19.69431 -19.64402 -19.64063 -10.71526 -10.64503
  Beta  occ. eigenvalues --  -10.61498 -10.59042 -10.54540  -1.26444  -1.17188
  Beta  occ. eigenvalues --   -1.10134  -0.90776  -0.87132  -0.78954  -0.71619
  Beta  occ. eigenvalues --   -0.65472  -0.62126  -0.59219  -0.57145  -0.54494
  Beta  occ. eigenvalues --   -0.52162  -0.50108  -0.47599  -0.46401  -0.44677
  Beta  occ. eigenvalues --   -0.43065  -0.42627  -0.39678  -0.38700  -0.34088
  Beta virt. eigenvalues --   -0.08233  -0.02931  -0.00695   0.00805   0.01308
  Beta virt. eigenvalues --    0.01736   0.02921   0.04791   0.05041   0.05817
  Beta virt. eigenvalues --    0.06354   0.07046   0.07905   0.08574   0.09009

 Mulliken charges and spin densities:
               1          2
     1  O   -0.317072   0.222767
     2  H    0.257769  -0.001507
     3  C   -1.087623  -0.199121
     4  H    0.201896   0.031631
     5  C    1.185214   0.794842
     6  C   -0.201549   0.122042
     7  O   -0.222579   0.016328
     8  O   -0.043015   0.004198
     9  C   -0.288265   0.004894
    10  C   -0.393883   0.003114
    11  H    0.197310   0.000418
    12  H    0.197280  -0.000320
    13  H    0.166390   0.000450
    14  H    0.164894  -0.000173
    15  H    0.183234   0.000437
 Sum of Mulliken charges =  -0.00000   1.00000

 Dipole moment (field-independent basis, Debye):
    X=             -1.8478    Y=             -0.9160    Z=             -0.1948  Tot=              2.0716
 Quadrupole moment (field-independent basis, Debye-Ang):
   XX=            -44.9750   YY=            -52.6948   ZZ=            -47.4274
   XY=             10.3634   XZ=              1.7194   YZ=              1.0424

  Exact polarizability:  94.214  -7.156  73.626   2.488   1.640  50.253
 Approx polarizability: 100.166 -16.155  93.173   3.962   2.473  58.497

 ******    1 imaginary frequencies (negative Signs) ******

                      1                      2                      3
                      A                      A                      A
 Frequencies --   -416.6313                73.1938               114.3838
 Red. masses --     11.8693                 3.5448                 4.6815
 Frc consts  --      1.2139                 0.0112                 0.0361
 IR Inten    --    108.2664                 0.0886                 0.8105

                      4                      5                      6
                      A                      A                      A
 Frequencies --    116.2424               178.7957               219.6238
 Red. masses --      4.4825                 5.7885                 1.2152
 Frc consts  --      0.0357                 0.1090                 0.0345
 IR Inten    --      0.8740                 2.1925                 3.0111

                      7                      8                      9
                      A                      A                      A
 Frequencies --    295.8567               312.9497               361.5865
 Red. masses --      1.3653                 2.7068                 3.5162
 Frc consts  --      0.0704                 0.1562                 0.2709
 IR Inten    --     29.4410                10.1675                26.5275

                     10                     11                     12
                      A                      A                      A
 Frequencies --    381.0189               431.5208               567.7855
 Red. masses --      2.3073                 3.9315                 5.3492
 Frc consts  --      0.1974                 0.4313                 1.0160
 IR Inten    --     59.2499                 0.4022                 5.6207

                     13                     14                     15
                      A                      A                      A
 Frequencies --    607.4399               769.3225               800.0198
 Red. masses --      5.5646                 7.1663                 1.2385
 Frc consts  --      1.2097                 2.4990                 0.4670
 IR Inten    --     13.1653                12.7792                 6.4377

                     16                     17                     18
                      A                      A                      A
 Frequencies --    826.7993               885.4223               921.6034
 Red. masses --      1.5420                 3.0480                 2.7351
 Frc consts  --      0.6211                 1.4079                 1.3687
 IR Inten    --     39.6813                15.9348                 1.7941

                     19                     20                     21
                      A                      A                      A
 Frequencies --   1047.0380              1066.2861              1126.7209
 Red. masses --      1.1191                 3.7056                 2.0546
 Frc consts  --      0.7228                 2.4823                 1.5368
 IR Inten    --     40.0290                22.8232                20.1620

                     22                     23                     24
                      A                      A                      A
 Frequencies --   1199.6413              1215.4684              1266.2263
 Red. masses --      1.6797                 1.3367                 3.6086
 Frc consts  --      1.4242                 1.1635                 3.4089
 IR Inten    --     36.8072                71.4819               478.2210

                     25                     26                     27
                      A                      A                      A
 Frequencies --   1345.4504              1401.6761              1430.8666
 Red. masses --      1.1556                 1.2520                 1.3517
 Frc consts  --      1.2325                 1.4493                 1.6305
 IR Inten    --     41.3509                12.4309                 9.3138

                     28                     29                     30
                      A                      A                      A
 Frequencies --   1493.6281              1503.2264              1515.0271
 Red. masses --      1.0404                 1.0631                 1.0794
 Frc consts  --      1.3675                 1.4154                 1.4597
 IR Inten    --     12.3265                 1.6476                15.2668

                     31                     32                     33
                      A                      A                      A
 Frequencies --   1812.5839              1848.3577              3075.1498
 Red. masses --      9.7947                 9.7832                 1.0354
 Frc consts  --     18.9599                19.6925                 5.7690
 IR Inten    --    141.9318               414.6720                 9.0756

                     34                     35                     36
                      A                      A                      A
 Frequencies --   3108.9263              3150.4145              3155.4605
 Red. masses --      1.0604                 1.1018                 1.1048
 Frc consts  --      6.0386                 6.4431                 6.4811
 IR Inten    --     16.5746                12.8174                 2.5591

                     37                     38                     39
                      A                      A                      A
 Frequencies --   3175.7731              3276.7151              3828.4164
 Red. masses --      1.1078                 1.1075                 1.0679
 Frc consts  --      6.5825                 7.0058                 9.2216
 IR Inten    --     11.9951                 9.4777                47.2744

 - Thermochemistry -
 -------------------
 Temperature   298.150 Kelvin.  Pressure   1.00000 Atm.
 Atom     1 has atomic number  8 and mass  15.99491

 Molecular mass:   115.03952 amu.
 Principal axes and moments of inertia in atomic units:
                           1         2         3
     Eigenvalues --   480.383691564.954481899.74246
           X            0.99961   0.02722  -0.00541
           Y           -0.02722   0.99963  -0.00011
           Z            0.00540   0.00026   0.99999
 This molecule is an asymmetric top.
 Rotational symmetry number  1.
 Warning -- assumption of classical behavior for rotation
           may cause significant error
 Rotational temperatures (Kelvin)      0.18030     0.05535     0.04559
 Rotational constants (GHZ):           3.75687     1.15322     0.94999
    1 imaginary frequencies ignored.
 Zero-point vibrational energy     298507.9 (Joules/Mol)
                                   71.34509 (Kcal/Mol)
 Warning -- explicit consideration of  12 degrees of freedom as
           vibrations may cause significant error
 Vibrational temperatures:    105.31   164.57   167.25   257.25   315.99
          (Kelvin)            425.67   450.26   520.24   548.20   620.86
                              816.92   873.97  1106.88  1151.05  1189.58
                             1273.93  1325.98  1506.45  1534.15  1621.10
                             1726.02  1748.79  1821.82  1935.80  2016.70
                             2058.70  2149.00  2162.81  2179.79  2607.90
                             2659.37  4424.45  4473.05  4532.74  4540.00
                             4569.23  4714.46  5508.24

 Zero-point correction=                           0.113696 (Hartree/Particle)
 Thermal correction to Energy=                    0.122484
 Thermal correction to Enthalpy=                  0.123428
 Thermal correction to Gibbs Free Energy=         0.079223
 Sum of electronic and zero-point Energies=           -420.119652
 Sum of electronic and thermal Energies=              -420.110863
 Sum of electronic and thermal Enthalpies=            -420.109919
 Sum of electronic and thermal Free Energies=         -420.154124

                     E (Thermal)             CV                S
                      KCal/Mol        Cal/Mol-Kelvin    Cal/Mol-Kelvin
 Total                   76.860             30.402             93.038
 Electronic               0.000              0.000              1.377
 Translational            0.889              2.981             40.136
 Rotational               0.889              2.981             28.748
 Vibrational             75.083             24.440             22.777
 Vibration     1          0.599              1.967              4.066
 Vibration     2          0.607              1.938              3.193
 Vibration     3          0.608              1.936              3.162
 Vibration     4          0.629              1.868              2.341
 Vibration     5          0.647              1.811              1.962
 Vibration     6          0.690              1.681              1.440
 Vibration     7          0.701              1.649              1.347
 Vibration     8          0.736              1.551              1.115
 Vibration     9          0.751              1.511              1.035
 Vibration    10          0.793              1.402              0.854
 Vibration    11          0.924              1.101              0.509
 Vibration    12          0.966              1.016              0.437

 1\1\GINC-AJ\Freq\UM062X\6-311++G(d,p)\C5H7O3(2)\AAYUSH\16-Aug-2025\0\\
 # freq 6-311++g(d,p) m062x\\Title Card Required\\0,2\O,2.708213,-1.315
 464,0.049782\H,1.81553,-1.633817,-0.145624\C,2.489697,0.334542,0.23552
 3\H,3.468765,0.741995,0.440073\C,1.295205,0.782516,0.111982\C,-0.14307
 ,0.744899,-0.10925\O,-0.843454,1.718931,-0.077853\O,-0.561687,-0.50175
 5,-0.352799\C,-1.981335,-0.66738,-0.571889\C,-2.734704,-0.688804,0.742
 822\H,-2.05752,-1.617175,-1.097975\H,-2.327219,0.137746,-1.220726\H,-3
 .791144,-0.888241,0.553363\H,-2.346301,-1.474476,1.392505\H,-2.652489,

 Normal termination of Gaussian 16 at Sat Aug 16 19:25:15 2025.
