 Gaussian 16, Revision A.03,
 Gaussian 16:  ES64L-G16RevA.03 25-Dec-2016

 -------------------
 # freq 6-31+g m062x
 -------------------

 -------------------
 Title Card Required
 -------------------
 Symbolic Z-matrix:
 Charge =  0 Multiplicity = 2

                         Standard orientation:
 ---------------------------------------------------------------------
 Center     Atomic      Atomic             Coordinates (Angstroms)
 Number     Number       Type             X           Y           Z
 ---------------------------------------------------------------------
      1          8           0        2.792806   -1.501595    0.024453
      2          1           0        1.858355   -1.698032   -0.162081
      3          6           0        2.539983    0.721053    0.264203
      4          1           0        3.592346    0.734699    0.426217
      5          6           0        1.352809    0.796358    0.092197
      6          6           0       -0.083741    0.783898   -0.124986
      7          8           0       -0.785785    1.753821   -0.101454
      8          8           0       -0.498457   -0.467887   -0.358862
      9          6           0       -1.916596   -0.637132   -0.576193
     10          6           0       -2.670180   -0.650097    0.738731
     11          1           0       -1.992553   -1.590720   -1.095562
     12          1           0       -2.264600    0.162643   -1.230607
     13          1           0       -3.726449   -0.852137    0.551206
     14          1           0       -2.280509   -1.430246    1.394306
     15          1           0       -2.588753    0.314610    1.239725
 ---------------------------------------------------------------------

 SCF Done:  E(UM062X) =  -419.963529421     A.U. after   23 cycles

 The electronic state is 2-A.
 Alpha  occ. eigenvalues --  -19.71919 -19.69269 -19.67365 -10.73948 -10.62556
 Alpha  occ. eigenvalues --  -10.60005 -10.59277 -10.55408  -1.28974  -1.19733
 Alpha  occ. eigenvalues --   -1.13576  -0.92307  -0.88607  -0.79531  -0.72080
 Alpha  occ. eigenvalues --   -0.65680  -0.62321  -0.59541  -0.57827  -0.55058
 Alpha  occ. eigenvalues --   -0.53945  -0.50560  -0.49540  -0.47980  -0.46312
 Alpha  occ. eigenvalues --   -0.43137  -0.42258  -0.39986  -0.39369  -0.37900
 Alpha  occ. eigenvalues --   -0.35771
 Alpha virt. eigenvalues --   -0.02421   0.01477   0.02633   0.03063   0.03872
 Alpha virt. eigenvalues --    0.04402   0.05331   0.06319   0.07161   0.07739
 Alpha virt. eigenvalues --    0.08419   0.08528   0.08782   0.11236   0.12027

  Beta  occ. eigenvalues --  -19.71915 -19.67648 -19.67347 -10.73960 -10.62555
  Beta  occ. eigenvalues --  -10.60019 -10.59154 -10.55408  -1.28948  -1.19693
  Beta  occ. eigenvalues --   -1.06376  -0.92018  -0.88394  -0.79470  -0.71949
  Beta  occ. eigenvalues --   -0.65641  -0.62060  -0.59482  -0.57756  -0.54974
  Beta  occ. eigenvalues --   -0.50977  -0.50395  -0.47935  -0.46354  -0.43096
  Beta  occ. eigenvalues --   -0.40426  -0.39648  -0.39486  -0.37850  -0.36688
  Beta virt. eigenvalues --   -0.08550  -0.02401   0.01522   0.02797   0.03086
  Beta virt. eigenvalues --    0.04018   0.04476   0.05655   0.06436   0.07259
  Beta virt. eigenvalues --    0.07843   0.08447   0.08648   0.08889   0.11258

 Mulliken charges and spin densities:
               1          2
     1  O   -0.460408   0.929292
     2  H    0.426404  -0.033581
     3  C   -0.061041  -0.147529
     4  H    0.356239   0.007103
     5  C    0.419323   0.201021
     6  C   -0.359150   0.040053
     7  O   -0.351788   0.004816
     8  O   -0.268277  -0.001697
     9  C   -0.261645  -0.000105
    10  C   -0.566775   0.000436
    11  H    0.221756   0.000145
    12  H    0.236147   0.000011
    13  H    0.211494   0.000026
    14  H    0.219979   0.000002
    15  H    0.237742   0.000007
 Sum of Mulliken charges =  -0.00000   1.00000

 Dipole moment (field-independent basis, Debye):
    X=             -1.8995    Y=             -1.5227    Z=             -0.2772  Tot=              2.4503
 Quadrupole moment (field-independent basis, Debye-Ang):
   XX=            -44.3923   YY=            -52.7623   ZZ=            -47.6789
   XY=              9.2821   XZ=              1.5047   YZ=              1.1273

  Exact polarizability:  89.390  -3.832  67.990   3.694   1.432  45.932
 Approx polarizability:  98.697 -10.227  75.958   6.545   1.856  47.994

 ******    4 imaginary frequencies (negative Signs) ******

                      1                      2                      3
                      A                      A                      A
 Frequencies --   -416.0412              -121.4084              -107.6098
 Red. masses --      1.0721                 6.5226                 5.5347
 Frc consts  --      0.1093                 0.0566                 0.0378
 IR Inten    --    155.9534                 2.7771                 6.0600

                      4                      5                      6
                      A                      A                      A
 Frequencies --    -10.2323                40.6881               145.0518
 Red. masses --      3.4982                 2.6927                 2.7711
 Frc consts  --      0.0002                 0.0026                 0.0344
 IR Inten    --      7.6022                 1.2173                 5.7811

                      7                      8                      9
                      A                      A                      A
 Frequencies --    187.7581               202.4278               243.8577
 Red. masses --      1.8127                 4.0790                 3.9474
 Frc consts  --      0.0377                 0.0985                 0.1383
 IR Inten    --      0.7104                10.4390                 1.1207

                     10                     11                     12
                      A                      A                      A
 Frequencies --    314.5207               414.7617               429.8223
 Red. masses --      2.9997                 2.2047                 1.4754
 Frc consts  --      0.1748                 0.2235                 0.1606
 IR Inten    --     11.8046                59.1723               113.3213

                     13                     14                     15
                      A                      A                      A
 Frequencies --    583.1129               620.7163               776.9618
 Red. masses --      4.2146                 7.8699                 3.3939
 Frc consts  --      0.8443                 1.7865                 1.2071
 IR Inten    --      7.8666                13.0445                66.2211

                     16                     17                     18
                      A                      A                      A
 Frequencies --    807.0631               816.0838               866.1013
 Red. masses --      1.1873                 1.2840                 1.8176
 Frc consts  --      0.4556                 0.5038                 0.8033
 IR Inten    --     70.1345                11.2152                13.7059

                     19                     20                     21
                      A                      A                      A
 Frequencies --    897.3234               947.0162              1111.0247
 Red. masses --      3.2605                 2.5987                 4.2550
 Frc consts  --      1.5468                 1.3732                 3.0946
 IR Inten    --     18.4617                 4.5716                 6.8385

                     22                     23                     24
                      A                      A                      A
 Frequencies --   1156.9257              1227.2539              1312.3063
 Red. masses --      2.0665                 1.7620                 3.2628
 Frc consts  --      1.6296                 1.5636                 3.3106
 IR Inten    --     18.6704                 6.9057               463.8957

                     25                     26                     27
                      A                      A                      A
 Frequencies --   1365.4306              1441.5035              1457.4905
 Red. masses --      1.3549                 1.3222                 1.2542
 Frc consts  --      1.4883                 1.6187                 1.5698
 IR Inten    --    140.9060                16.9915                18.6243

                     28                     29                     30
                      A                      A                      A
 Frequencies --   1528.3419              1536.9653              1545.0727
 Red. masses --      1.0416                 1.0685                 1.0717
 Frc consts  --      1.4335                 1.4871                 1.5073
 IR Inten    --     15.2140                 4.3340                22.4093

                     31                     32                     33
                      A                      A                      A
 Frequencies --   1917.4952              2303.4635              3108.1552
 Red. masses --     12.3295                 5.6966                 1.0352
 Frc consts  --     26.7095                17.8087                 5.8921
 IR Inten    --    330.7193                84.5912                11.9613

                     34                     35                     36
                      A                      A                      A
 Frequencies --   3139.3223              3187.6814              3192.1700
 Red. masses --      1.0599                 1.1010                 1.1024
 Frc consts  --      6.1542                 6.5914                 6.6184
 IR Inten    --     18.6339                11.7419                 6.7938

                     37                     38                     39
                      A                      A                      A
 Frequencies --   3212.5162              3533.1826              3788.3717
 Red. masses --      1.1054                 1.1734                 1.0675
 Frc consts  --      6.7216                 8.6305                 9.0263
 IR Inten    --     15.3254                69.6811                 9.9155

 - Thermochemistry -
 -------------------
 Temperature   298.150 Kelvin.  Pressure   1.00000 Atm.
 Atom     1 has atomic number  8 and mass  15.99491

 Molecular mass:   115.03952 amu.
 Principal axes and moments of inertia in atomic units:
                           1         2         3
     Eigenvalues --   532.419371570.397801955.47699
           X            0.99960   0.02786  -0.00577
           Y           -0.02786   0.99961  -0.00030
           Z            0.00576   0.00046   0.99998
 This molecule is an asymmetric top.
 Rotational symmetry number  1.
 Warning -- assumption of classical behavior for rotation
           may cause significant error
 Rotational temperatures (Kelvin)      0.16268     0.05515     0.04429
 Rotational constants (GHZ):           3.38970     1.14923     0.92292
    4 imaginary frequencies ignored.
 Zero-point vibrational energy     295226.0 (Joules/Mol)
                                   70.56072 (Kcal/Mol)
 Warning -- explicit consideration of  10 degrees of freedom as
           vibrations may cause significant error
 Vibrational temperatures:     58.54   208.70   270.14   291.25   350.86
          (Kelvin)            452.53   596.75   618.42   838.97   893.07
                             1117.87  1161.18  1174.16  1246.13  1291.05
                             1362.55  1598.52  1664.56  1765.74  1888.12
                             1964.55  2074.00  2097.00  2198.94  2211.35
                             2223.02  2758.85  3314.17  4471.94  4516.78
                             4586.36  4592.82  4622.09  5083.46  5450.62

 Zero-point correction=                           0.112446 (Hartree/Particle)
 Thermal correction to Energy=                    0.120215
 Thermal correction to Enthalpy=                  0.121159
 Thermal correction to Gibbs Free Energy=         0.078498
 Sum of electronic and zero-point Energies=           -419.851084
 Sum of electronic and thermal Energies=              -419.843315
 Sum of electronic and thermal Enthalpies=            -419.842370
 Sum of electronic and thermal Free Energies=         -419.885032

                     E (Thermal)             CV                S
                      KCal/Mol        Cal/Mol-Kelvin    Cal/Mol-Kelvin
 Total                   75.436             26.657             89.789
 Electronic               0.000              0.000              1.377
 Translational            0.889              2.981             40.136
 Rotational               0.889              2.981             28.882
 Vibrational             73.659             20.695             19.393
 Vibration     1          0.594              1.981              5.225
 Vibration     2          0.616              1.908              2.736
 Vibration     3          0.632              1.857              2.250
 Vibration     4          0.639              1.836              2.111
 Vibration     5          0.659              1.773              1.775
 Vibration     6          0.702              1.646              1.338
 Vibration     7          0.778              1.438              0.910
 Vibration     8          0.791              1.405              0.859
 Vibration     9          0.940              1.068              0.480
 Vibration    10          0.981              0.988              0.415

 Normal termination of Gaussian 16 at Fri Jun 20 14:24:47 2025.
