 Gaussian 16, Revision A.03,
 Gaussian 16:  ES64L-G16RevA.03 25-Dec-2016

 --------------------------
 # freq 6-311++g(d,p) m062x
 --------------------------

 -------------------
 Title Card Required
 -------------------
 Symbolic Z-matrix:
 Charge =  0 Multiplicity = 2

                         Standard orientation:
 ---------------------------------------------------------------------
 Center     Atomic      Atomic             Coordinates (Angstroms)
 Number     Number       Type             X           Y           Z
 ---------------------------------------------------------------------
      1          8           0        2.776302   -1.357817    0.025610
      2          1           0        1.869020   -1.639699   -0.169408
      3          6           0        2.548857    0.491533    0.243562
      4          1           0        3.573863    0.740294    0.435190
      5          6           0        1.357100    0.797527    0.102524
      6          6           0       -0.080840    0.783624   -0.115848
      7          8           0       -0.777790    1.757809   -0.080285
      8          8           0       -0.498201   -0.461868   -0.363900
      9          6           0       -1.918136   -0.625812   -0.583689
     10          6           0       -2.671487   -0.651991    0.730928
     11          1           0       -1.994380   -1.573410   -1.113540
     12          1           0       -2.263485    0.182014   -1.229471
     13          1           0       -3.728059   -0.849579    0.540475
     14          1           0       -2.283826   -1.440618    1.377379
     15          1           0       -2.588588    0.306722    1.243113
 ---------------------------------------------------------------------

 SCF Done:  E(UM062X) =  -420.208966082     A.U. after   20 cycles

 The electronic state is 2-A.
 Alpha  occ. eigenvalues --  -19.69769 -19.64610 -19.64185 -10.72031 -10.62475
 Alpha  occ. eigenvalues --  -10.61697 -10.59714 -10.54681  -1.27007  -1.17869
 Alpha  occ. eigenvalues --   -1.10237  -0.92713  -0.88538  -0.79444  -0.72302
 Alpha  occ. eigenvalues --   -0.65853  -0.62921  -0.59872  -0.57811  -0.54934
 Alpha  occ. eigenvalues --   -0.52368  -0.50564  -0.49012  -0.47938  -0.46242
 Alpha  occ. eigenvalues --   -0.43241  -0.41867  -0.40279  -0.39694  -0.36710
 Alpha  occ. eigenvalues --   -0.32580
 Alpha virt. eigenvalues --   -0.03120  -0.00730   0.00768   0.01248   0.01577
 Alpha virt. eigenvalues --    0.02681   0.04547   0.04930   0.05586   0.05937
 Alpha virt. eigenvalues --    0.06666   0.06998   0.08144   0.08776   0.10061

  Beta  occ. eigenvalues --  -19.69737 -19.64544 -19.63172 -10.72071 -10.62619
  Beta  occ. eigenvalues --  -10.61690 -10.59257 -10.54681  -1.26883  -1.17681
  Beta  occ. eigenvalues --   -1.06470  -0.91417  -0.87837  -0.79294  -0.71836
  Beta  occ. eigenvalues --   -0.65691  -0.62401  -0.59620  -0.57567  -0.54696
  Beta  occ. eigenvalues --   -0.50755  -0.50031  -0.47820  -0.46429  -0.43146
  Beta  occ. eigenvalues --   -0.41286  -0.40783  -0.39955  -0.38978  -0.34758
  Beta virt. eigenvalues --   -0.09848  -0.03016  -0.00667   0.00918   0.01285
  Beta virt. eigenvalues --    0.01758   0.02833   0.04890   0.05049   0.05806
  Beta virt. eigenvalues --    0.06249   0.06961   0.07451   0.08448   0.08866

 Mulliken charges and spin densities:
               1          2
     1  O   -0.328890   0.544421
     2  H    0.246709  -0.007683
     3  C   -1.584799  -0.275678
     4  H    0.203320   0.029075
     5  C    1.629095   0.550904
     6  C   -0.146646   0.138824
     7  O   -0.211058   0.015433
     8  O   -0.037626  -0.000391
     9  C   -0.292333   0.002581
    10  C   -0.392104   0.001980
    11  H    0.200333   0.000249
    12  H    0.196990  -0.000175
    13  H    0.167471   0.000316
    14  H    0.166485  -0.000187
    15  H    0.183054   0.000332
 Sum of Mulliken charges =  -0.00000   1.00000

 Dipole moment (field-independent basis, Debye):
    X=             -2.0554    Y=             -0.6626    Z=             -0.1782  Tot=              2.1669
 Quadrupole moment (field-independent basis, Debye-Ang):
   XX=            -44.5192   YY=            -52.6591   ZZ=            -47.3975
   XY=             10.8548   XZ=              1.8127   YZ=              1.0775

  Exact polarizability:  95.768 -10.149  80.646   2.331   2.104  50.182
 Approx polarizability: 103.497 -18.139  97.768   4.349   2.672  58.087

 ******    1 imaginary frequencies (negative Signs) ******

                      1                      2                      3
                      A                      A                      A
 Frequencies --   -790.4439                65.4286                90.4843
 Red. masses --     10.6795                 3.7696                 5.9291
 Frc consts  --      3.9313                 0.0095                 0.0286
 IR Inten    --     19.3408                 0.0670                 1.9774

                      4                      5                      6
                      A                      A                      A
 Frequencies --    112.9789               144.2611               215.7928
 Red. masses --      3.8821                 4.2562                 1.2760
 Frc consts  --      0.0292                 0.0522                 0.0350
 IR Inten    --      2.4331                 3.3526                 2.9116

                      7                      8                      9
                      A                      A                      A
 Frequencies --    245.2378               283.3337               290.3870
 Red. masses --      1.2765                 3.3473                 2.4596
 Frc consts  --      0.0452                 0.1583                 0.1222
 IR Inten    --     58.8694                 4.0697                47.7281

                     10                     11                     12
                      A                      A                      A
 Frequencies --    341.2197               422.0655               556.1267
 Red. masses --      3.3776                 3.9720                 5.9986
 Frc consts  --      0.2317                 0.4169                 1.0931
 IR Inten    --      6.0800                 1.6671                 5.2486

                     13                     14                     15
                      A                      A                      A
 Frequencies --    593.4605               768.1943               788.4749
 Red. masses --      5.7155                 3.0413                 1.9490
 Frc consts  --      1.1860                 1.0574                 0.7139
 IR Inten    --      7.0661                 0.3502                54.9174

                     16                     17                     18
                      A                      A                      A
 Frequencies --    801.1513               877.9960               887.9665
 Red. masses --      1.2537                 1.1714                 2.8126
 Frc consts  --      0.4741                 0.5320                 1.3066
 IR Inten    --      9.5539               140.5177                 7.4339

                     19                     20                     21
                      A                      A                      A
 Frequencies --    924.3367              1014.4857              1067.9025
 Red. masses --      2.5265                 1.1187                 3.9980
 Frc consts  --      1.2718                 0.6783                 2.6863
 IR Inten    --      1.7854                13.0456                24.8107

                     22                     23                     24
                      A                      A                      A
 Frequencies --   1126.9163              1202.4016              1259.1225
 Red. masses --      2.0592                 1.7817                 5.6160
 Frc consts  --      1.5408                 1.5177                 5.2458
 IR Inten    --     21.0069                10.7377               556.7054

                     25                     26                     27
                      A                      A                      A
 Frequencies --   1345.4764              1402.0434              1431.1073
 Red. masses --      1.1545                 1.2520                 1.3512
 Frc consts  --      1.2313                 1.4500                 1.6305
 IR Inten    --     39.0588                13.8302                 8.6142

                     28                     29                     30
                      A                      A                      A
 Frequencies --   1493.7485              1503.1386              1515.0454
 Red. masses --      1.0403                 1.0621                 1.0803
 Frc consts  --      1.3676                 1.4139                 1.4610
 IR Inten    --     12.6202                 1.5037                16.5159

                     31                     32                     33
                      A                      A                      A
 Frequencies --   1838.3150              1983.8872              3075.6944
 Red. masses --     11.8880                 6.9528                 1.0354
 Frc consts  --     23.6700                16.1229                 5.7709
 IR Inten    --    379.2883               111.3287                 8.6582

                     34                     35                     36
                      A                      A                      A
 Frequencies --   3109.3763              3151.3519              3155.8989
 Red. masses --      1.0606                 1.1017                 1.1048
 Frc consts  --      6.0416                 6.4462                 6.4831
 IR Inten    --     15.9387                12.6788                 2.1972

                     37                     38                     39
                      A                      A                      A
 Frequencies --   3176.5991              3382.7971              3807.8877
 Red. masses --      1.1077                 1.1301                 1.0681
 Frc consts  --      6.5859                 7.6193                 9.1247
 IR Inten    --     11.2652                42.1509                44.3147

 - Thermochemistry -
 -------------------
 Temperature   298.150 Kelvin.  Pressure   1.00000 Atm.
 Atom     1 has atomic number  8 and mass  15.99491

 Molecular mass:   115.03952 amu.
 Principal axes and moments of inertia in atomic units:
                           1         2         3
     Eigenvalues --   495.721501566.541431916.10054
           X            0.99961   0.02720  -0.00550
           Y           -0.02720   0.99963  -0.00019
           Z            0.00550   0.00034   0.99998
 This molecule is an asymmetric top.
 Rotational symmetry number  1.
 Warning -- assumption of classical behavior for rotation
           may cause significant error
 Rotational temperatures (Kelvin)      0.17472     0.05529     0.04520
 Rotational constants (GHZ):           3.64064     1.15205     0.94188
    1 imaginary frequencies ignored.
 Zero-point vibrational energy     295789.2 (Joules/Mol)
                                   70.69532 (Kcal/Mol)
 Warning -- explicit consideration of  12 degrees of freedom as
           vibrations may cause significant error
 Vibrational temperatures:     94.14   130.19   162.55   207.56   310.48
          (Kelvin)            352.84   407.65   417.80   490.94   607.26
                              800.14   853.86  1105.26  1134.44  1152.68
                             1263.24  1277.59  1329.91  1459.62  1536.47
                             1621.38  1729.99  1811.60  1935.84  2017.23
                             2059.04  2149.17  2162.68  2179.81  2644.93
                             2854.37  4425.24  4473.70  4534.09  4540.63
                             4570.42  4867.09  5478.70

 Zero-point correction=                           0.112660 (Hartree/Particle)
 Thermal correction to Energy=                    0.121892
 Thermal correction to Enthalpy=                  0.122836
 Thermal correction to Gibbs Free Energy=         0.077462
 Sum of electronic and zero-point Energies=           -420.096306
 Sum of electronic and thermal Energies=              -420.087074
 Sum of electronic and thermal Enthalpies=            -420.086130
 Sum of electronic and thermal Free Energies=         -420.131504

                     E (Thermal)             CV                S
                      KCal/Mol        Cal/Mol-Kelvin    Cal/Mol-Kelvin
 Total                   76.488             31.331             95.496
 Electronic               0.000              0.000              1.377
 Translational            0.889              2.981             40.136
 Rotational               0.889              2.981             28.788
 Vibrational             74.711             25.369             25.195
 Vibration     1          0.597              1.971              4.286
 Vibration     2          0.602              1.956              3.650
 Vibration     3          0.607              1.939              3.217
 Vibration     4          0.616              1.909              2.747
 Vibration     5          0.645              1.817              1.994
 Vibration     6          0.660              1.771              1.765
 Vibration     7          0.682              1.705              1.513
 Vibration     8          0.686              1.692              1.472
 Vibration     9          0.721              1.593              1.206
 Vibration    10          0.784              1.422              0.885
 Vibration    11          0.912              1.126              0.532
 Vibration    12          0.951              1.046              0.461

 1\1\GINC-AJ\Freq\UM062X\6-311++G(d,p)\C5H7O3(2)\AAYUSH\23-Jun-2025\0\\
 # freq 6-311++g(d,p) m062x\\Title Card Required\\0,2\O,2.776302,-1.357
 817,0.02561\H,1.86902,-1.639699,-0.169408\C,2.548857,0.491533,0.243562
 \H,3.573863,0.740294,0.43519\C,1.3571,0.797527,0.102524\C,-0.08084,0.7
 83624,-0.115848\O,-0.77779,1.757809,-0.080285\O,-0.498201,-0.461868,-0
 .3639\C,-1.918136,-0.625812,-0.583689\C,-2.671487,-0.651991,0.730928\H
 ,-1.99438,-1.57341,-1.11354\H,-2.263485,0.182014,-1.229471\H,-3.728059
 ,-0.849579,0.540475\H,-2.283826,-1.440618,1.377379\H,-2.588588,0.30672

 Normal termination of Gaussian 16 at Mon Jun 23 06:24:28 2025.
