 Gaussian 16, Revision A.03,
 Gaussian 16:  ES64L-G16RevA.03 25-Dec-2016

 --------------------------
 # ccsd(t)/6-311++g(d,p) sp
 --------------------------

 -------------------
 Title Card Required
 -------------------
 Symbolic Z-matrix:
 Charge =  0 Multiplicity = 2

                         Standard orientation:
 ---------------------------------------------------------------------
 Center     Atomic      Atomic             Coordinates (Angstroms)
 Number     Number       Type             X           Y           Z
 ---------------------------------------------------------------------
      1          8           0        2.771787   -1.310514    0.027003
      2          1           0        1.873132   -1.612156   -0.170153
      3          6           0        2.553685    0.405159    0.234390
      4          1           0        3.549563    0.762504    0.437951
      5          6           0        1.358869    0.808827    0.107487
      6          6           0       -0.078796    0.782715   -0.112886
      7          8           0       -0.776007    1.757935   -0.073754
      8          8           0       -0.498477   -0.461034   -0.365764
      9          6           0       -1.918583   -0.622604   -0.586147
     10          6           0       -2.671905   -0.652817    0.728392
     11          1           0       -1.996066   -1.568165   -1.119508
     12          1           0       -2.262970    0.188069   -1.228846
     13          1           0       -3.728687   -0.848749    0.537296
     14          1           0       -2.284997   -1.444230    1.371922
     15          1           0       -2.588026    0.303945    1.244047
 ---------------------------------------------------------------------

 SCF Done:  E(UHF) =  -417.989855087     A.U. after   30 cycles
 E2 =    -0.1259700951D+01 EUMP2 =    -0.41924955603790D+03
 CCSD(T)= -0.41937123751D+03

 The electronic state is 2-A.
 Alpha  occ. eigenvalues --  -20.62558 -20.59791 -20.57580 -11.42078 -11.30812
 Alpha  occ. eigenvalues --  -11.30715 -11.28681 -11.23394  -1.49456  -1.39779
 Alpha  occ. eigenvalues --   -1.35029  -1.10915  -1.04869  -0.92958  -0.85357
 Alpha  occ. eigenvalues --   -0.77829  -0.74012  -0.70987  -0.67819  -0.65077
 Alpha  occ. eigenvalues --   -0.63689  -0.61171  -0.59682  -0.56761  -0.55104
 Alpha  occ. eigenvalues --   -0.53040  -0.51663  -0.49648  -0.48547  -0.43783
 Alpha  occ. eigenvalues --   -0.42909
 Alpha virt. eigenvalues --    0.03728   0.04849   0.05443   0.05986   0.07406
 Alpha virt. eigenvalues --    0.08852   0.08861   0.09161   0.11192   0.12116
 Alpha virt. eigenvalues --    0.12619   0.13573   0.14707   0.15056   0.16893

  Beta  occ. eigenvalues --  -20.62485 -20.57463 -20.56935 -11.42584 -11.33119
  Beta  occ. eigenvalues --  -11.30690 -11.25453 -11.23393  -1.48997  -1.38662
  Beta  occ. eigenvalues --   -1.27716  -1.07213  -1.04301  -0.93565  -0.84603
  Beta  occ. eigenvalues --   -0.77438  -0.73432  -0.70189  -0.67222  -0.64205
  Beta  occ. eigenvalues --   -0.61615  -0.59097  -0.55540  -0.54980  -0.52524
  Beta  occ. eigenvalues --   -0.51434  -0.49272  -0.48056  -0.46938  -0.41765
  Beta virt. eigenvalues --    0.03726   0.04827   0.05046   0.05485   0.06597
  Beta virt. eigenvalues --    0.07419   0.08102   0.08884   0.09856   0.11610
  Beta virt. eigenvalues --    0.12390   0.13419   0.13685   0.14155   0.15130

 Mulliken charges and spin densities:
               1          2
     1  O   -0.310131   0.545878
     2  H    0.262070  -0.017596
     3  C   -1.545633  -1.105874
     4  H    0.207672   0.086638
     5  C    1.597582   1.369196
     6  C   -0.092644  -0.014199
     7  O   -0.279374   0.131346
     8  O   -0.124098  -0.002920
     9  C   -0.170066   0.004490
    10  C   -0.347207   0.001966
    11  H    0.167364   0.000593
    12  H    0.181343  -0.000376
    13  H    0.135386   0.000411
    14  H    0.144424  -0.000078
    15  H    0.173312   0.000525
 Sum of Mulliken charges =  -0.00000   1.00000

 Dipole moment (field-independent basis, Debye):
    X=             -1.7006    Y=             -1.0982    Z=             -0.2320  Tot=              2.0377
 Quadrupole moment (field-independent basis, Debye-Ang):
   XX=            -44.9900   YY=            -53.0184   ZZ=            -47.2361
   XY=             10.3487   XZ=              1.7899   YZ=              1.0529

 MP3-0=-419.2988483\MP4SDQ=-419.3077654\CCSD=-419.3161305\CCSD(T)=-419.
 Normal termination of Gaussian 16 at Tue Aug  5 13:57:10 2025.
