 Gaussian 16, Revision A.03,
 Gaussian 16:  ES64L-G16RevA.03 25-Dec-2016

 -------------------
 # freq 6-31+g m062x
 -------------------

 -------------------
 Title Card Required
 -------------------
 Symbolic Z-matrix:
 Charge =  0 Multiplicity = 2

                         Standard orientation:
 ---------------------------------------------------------------------
 Center     Atomic      Atomic             Coordinates (Angstroms)
 Number     Number       Type             X           Y           Z
 ---------------------------------------------------------------------
      1          8           0        2.778674   -1.381348    0.025182
      2          1           0        1.867548   -1.654533   -0.168841
      3          6           0        2.545869    0.534987    0.247881
      4          1           0        3.581956    0.725203    0.432621
      5          6           0        1.356974    0.793157    0.100367
      6          6           0       -0.081356    0.784101   -0.117286
      7          8           0       -0.778846    1.757516   -0.083693
      8          8           0       -0.498194   -0.462554   -0.363022
      9          6           0       -1.917789   -0.627526   -0.582461
     10          6           0       -2.671261   -0.651632    0.732167
     11          1           0       -1.993772   -1.576155   -1.110561
     12          1           0       -2.263716    0.178872   -1.229749
     13          1           0       -3.727745   -0.850106    0.542124
     14          1           0       -2.283188   -1.438800    1.380158
     15          1           0       -2.588774    0.308090    1.242513
 ---------------------------------------------------------------------

 SCF Done:  E(UM062X) =  -419.958956845     A.U. after   23 cycles

 The electronic state is 2-A.
 Alpha  occ. eigenvalues --  -19.72205 -19.67724 -19.67320 -10.74362 -10.62743
 Alpha  occ. eigenvalues --  -10.62683 -10.60845 -10.55542  -1.29358  -1.20115
 Alpha  occ. eigenvalues --   -1.11896  -0.93246  -0.89155  -0.79949  -0.72775
 Alpha  occ. eigenvalues --   -0.65996  -0.63092  -0.59875  -0.58191  -0.55321
 Alpha  occ. eigenvalues --   -0.52491  -0.50769  -0.49211  -0.48185  -0.46391
 Alpha  occ. eigenvalues --   -0.43339  -0.41829  -0.40207  -0.39597  -0.37179
 Alpha  occ. eigenvalues --   -0.33319
 Alpha virt. eigenvalues --   -0.02979   0.01376   0.02822   0.03014   0.03661
 Alpha virt. eigenvalues --    0.04283   0.05505   0.06230   0.07126   0.07702
 Alpha virt. eigenvalues --    0.08070   0.08419   0.08819   0.10864   0.11860

  Beta  occ. eigenvalues --  -19.72182 -19.67668 -19.66026 -10.74398 -10.62807
  Beta  occ. eigenvalues --  -10.62738 -10.60471 -10.55542  -1.29265  -1.19983
  Beta  occ. eigenvalues --   -1.07106  -0.92325  -0.88685  -0.79800  -0.72394
  Beta  occ. eigenvalues --   -0.65896  -0.62680  -0.59708  -0.57981  -0.55164
  Beta  occ. eigenvalues --   -0.50827  -0.49959  -0.48071  -0.46535  -0.43252
  Beta  occ. eigenvalues --   -0.40871  -0.40480  -0.39774  -0.38787  -0.35063
  Beta virt. eigenvalues --   -0.10001  -0.02982   0.01409   0.02842   0.03021
  Beta virt. eigenvalues --    0.03944   0.04430   0.06165   0.06496   0.07156
  Beta virt. eigenvalues --    0.07788   0.08103   0.08586   0.09140   0.11111

 Mulliken charges and spin densities:
               1          2
     1  O   -0.510089   0.690840
     2  H    0.420069  -0.023619
     3  C   -0.195861  -0.236264
     4  H    0.294363   0.024938
     5  C    0.536098   0.517357
     6  C   -0.196420   0.011908
     7  O   -0.368852   0.014770
     8  O   -0.280588  -0.001534
     9  C   -0.259120  -0.000861
    10  C   -0.570707   0.001949
    11  H    0.224209   0.000343
    12  H    0.236828  -0.000053
    13  H    0.211970   0.000151
    14  H    0.221445   0.000026
    15  H    0.236653   0.000050
 Sum of Mulliken charges =  -0.00000   1.00000

 Dipole moment (field-independent basis, Debye):
    X=             -2.1802    Y=             -0.8812    Z=             -0.2364  Tot=              2.3634
 Quadrupole moment (field-independent basis, Debye-Ang):
   XX=            -45.2674   YY=            -53.2919   ZZ=            -47.6219
   XY=             10.9513   XZ=              1.7347   YZ=              1.1077

  Exact polarizability:  92.003 -11.482  79.936   2.943   2.248  46.117
 Approx polarizability:  99.392 -19.860  90.730   5.204   2.605  48.295

 ******    4 imaginary frequencies (negative Signs) ******

                      1                      2                      3
                      A                      A                      A
 Frequencies --   -731.3062              -405.3226              -100.9225
 Red. masses --     11.1507                 1.0660                 7.7643
 Frc consts  --      3.5136                 0.1032                 0.0466
 IR Inten    --     74.6816               140.0983                 0.6462

                      4                      5                      6
                      A                      A                      A
 Frequencies --    -71.8595                32.9947                92.6802
 Red. masses --      5.2013                 2.7714                 3.7834
 Frc consts  --      0.0158                 0.0018                 0.0191
 IR Inten    --      1.5697                 2.1638                14.0152

                      7                      8                      9
                      A                      A                      A
 Frequencies --    173.5929               237.7350               239.7876
 Red. masses --      1.2625                 4.4229                 3.7736
 Frc consts  --      0.0224                 0.1473                 0.1278
 IR Inten    --      3.4989                 4.5947                 5.2169

                     10                     11                     12
                      A                      A                      A
 Frequencies --    313.0985               415.3092               570.8439
 Red. masses --      3.1039                 3.8215                 5.4751
 Frc consts  --      0.1793                 0.3883                 1.0512
 IR Inten    --     10.1246                 3.5194                 3.4328

                     13                     14                     15
                      A                      A                      A
 Frequencies --    592.6292               738.2737               764.1673
 Red. masses --      5.8897                 1.1629                 6.4444
 Frc consts  --      1.2187                 0.3734                 2.2172
 IR Inten    --     12.4455               205.3270                48.4418

                     16                     17                     18
                      A                      A                      A
 Frequencies --    808.2663               816.3769               885.3923
 Red. masses --      1.4506                 1.2953                 1.4831
 Frc consts  --      0.5583                 0.5086                 0.6850
 IR Inten    --     23.3763                 1.2819                 9.1340

                     19                     20                     21
                      A                      A                      A
 Frequencies --    903.2263               944.7198              1106.2288
 Red. masses --      1.7237                 2.6728                 4.2205
 Frc consts  --      0.8285                 1.4055                 3.0430
 IR Inten    --     23.1543                 4.1506                 6.1660

                     22                     23                     24
                      A                      A                      A
 Frequencies --   1155.5653              1226.6741              1305.7182
 Red. masses --      2.0372                 1.7564                 3.6310
 Frc consts  --      1.6028                 1.5571                 3.6473
 IR Inten    --     18.0854                10.1349               463.2880

                     25                     26                     27
                      A                      A                      A
 Frequencies --   1363.6674              1440.9488              1458.0265
 Red. masses --      1.3065                 1.3132                 1.2509
 Frc consts  --      1.4314                 1.6065                 1.5668
 IR Inten    --    110.2877                13.2955                18.9649

                     28                     29                     30
                      A                      A                      A
 Frequencies --   1528.5929              1537.3826              1545.3816
 Red. masses --      1.0414                 1.0668                 1.0726
 Frc consts  --      1.4337                 1.4856                 1.5092
 IR Inten    --     16.4267                 3.4445                22.4912

                     31                     32                     33
                      A                      A                      A
 Frequencies --   1910.8668              2121.8723              3108.2554
 Red. masses --     12.2219                 6.4856                 1.0352
 Frc consts  --     26.2935                17.2043                 5.8924
 IR Inten    --    353.8823                97.0091                11.4136

                     34                     35                     36
                      A                      A                      A
 Frequencies --   3140.1929              3188.4974              3192.5168
 Red. masses --      1.0600                 1.1006                 1.1025
 Frc consts  --      6.1584                 6.5927                 6.6206
 IR Inten    --     17.5090                12.3251                 5.4672

                     37                     38                     39
                      A                      A                      A
 Frequencies --   3213.2222              3461.2715              3813.9865
 Red. masses --      1.1056                 1.1440                 1.0678
 Frc consts  --      6.7258                 8.0750                 9.1512
 IR Inten    --     13.8235                55.3529                20.3449

 - Thermochemistry -
 -------------------
 Temperature   298.150 Kelvin.  Pressure   1.00000 Atm.
 Atom     1 has atomic number  8 and mass  15.99491

 Molecular mass:   115.03952 amu.
 Principal axes and moments of inertia in atomic units:
                           1         2         3
     Eigenvalues --   501.303731566.873481921.82576
           X            0.99962   0.02711  -0.00556
           Y           -0.02711   0.99963  -0.00026
           Z            0.00555   0.00041   0.99998
 This molecule is an asymmetric top.
 Rotational symmetry number  1.
 Warning -- assumption of classical behavior for rotation
           may cause significant error
 Rotational temperatures (Kelvin)      0.17278     0.05528     0.04507
 Rotational constants (GHZ):           3.60010     1.15181     0.93908
    4 imaginary frequencies ignored.
 Zero-point vibrational energy     295166.4 (Joules/Mol)
                                   70.54645 (Kcal/Mol)
 Warning -- explicit consideration of   9 degrees of freedom as
           vibrations may cause significant error
 Vibrational temperatures:     47.47   133.35   249.76   342.05   345.00
          (Kelvin)            450.48   597.54   821.32   852.66  1062.21
                             1099.47  1162.91  1174.58  1273.88  1299.54
                             1359.24  1591.62  1662.60  1764.91  1878.64
                             1962.01  2073.20  2097.77  2199.30  2211.95
                             2223.46  2749.31  3052.90  4472.09  4518.04
                             4587.54  4593.32  4623.11  4980.00  5487.48

 Zero-point correction=                           0.112423 (Hartree/Particle)
 Thermal correction to Energy=                    0.120121
 Thermal correction to Enthalpy=                  0.121066
 Thermal correction to Gibbs Free Energy=         0.078134
 Sum of electronic and zero-point Energies=           -419.846534
 Sum of electronic and thermal Energies=              -419.838835
 Sum of electronic and thermal Enthalpies=            -419.837891
 Sum of electronic and thermal Free Energies=         -419.880822

                     E (Thermal)             CV                S
                      KCal/Mol        Cal/Mol-Kelvin    Cal/Mol-Kelvin
 Total                   75.377             26.116             90.356
 Electronic               0.000              0.000              1.377
 Translational            0.889              2.981             40.136
 Rotational               0.889              2.981             28.803
 Vibrational             73.600             20.155             20.040
 Vibration     1          0.594              1.983              5.641
 Vibration     2          0.602              1.954              3.603
 Vibration     3          0.627              1.875              2.396
 Vibration     4          0.656              1.783              1.820
 Vibration     5          0.657              1.780              1.804
 Vibration     6          0.701              1.649              1.346
 Vibration     7          0.779              1.437              0.908
 Vibration     8          0.927              1.094              0.503
 Vibration     9          0.950              1.047              0.463

 Normal termination of Gaussian 16 at Fri Jun 20 14:25:37 2025.
