 Gaussian 16, Revision A.03,
 Gaussian 16:  ES64L-G16RevA.03 25-Dec-2016

 --------------------------
 # ccsd(t)/6-311++g(d,p) sp
 --------------------------

 -------------------
 Title Card Required
 -------------------
 Symbolic Z-matrix:
 Charge =  0 Multiplicity = 2

                         Standard orientation:
 ---------------------------------------------------------------------
 Center     Atomic      Atomic             Coordinates (Angstroms)
 Number     Number       Type             X           Y           Z
 ---------------------------------------------------------------------
      1          8           0        2.791207   -1.486912    0.024439
      2          1           0        1.859466   -1.694219   -0.163120
      3          6           0        2.540232    0.701813    0.262805
      4          1           0        3.592387    0.723527    0.425960
      5          6           0        1.353214    0.793992    0.092860
      6          6           0       -0.083357    0.784098   -0.123979
      7          8           0       -0.784773    1.754443   -0.099253
      8          8           0       -0.498575   -0.467196   -0.359384
      9          6           0       -1.916688   -0.635919   -0.576960
     10          6           0       -2.670288   -0.650339    0.737920
     11          1           0       -1.992765   -1.588907   -1.097423
     12          1           0       -2.264574    0.164644   -1.230485
     13          1           0       -3.726564   -0.852100    0.550142
     14          1           0       -2.280694   -1.431276    1.392602
     15          1           0       -2.588804    0.313784    1.240040
 ---------------------------------------------------------------------

 SCF Done:  E(UHF) =  -417.990800514     A.U. after   32 cycles
 E2 =    -0.1258766028D+01 EUMP2 =    -0.41924956654144D+03
 CCSD(T)= -0.41935673609D+03

 The electronic state is 2-A.
 Alpha  occ. eigenvalues --  -20.62434 -20.62297 -20.57093 -11.42145 -11.30592
 Alpha  occ. eigenvalues --  -11.26798 -11.26255 -11.23293  -1.49131  -1.39298
 Alpha  occ. eigenvalues --   -1.37896  -1.09150  -1.04554  -0.92950  -0.84509
 Alpha  occ. eigenvalues --   -0.77377  -0.73660  -0.70677  -0.67462  -0.66830
 Alpha  occ. eigenvalues --   -0.64938  -0.64192  -0.59462  -0.56232  -0.55101
 Alpha  occ. eigenvalues --   -0.54975  -0.51520  -0.49296  -0.47994  -0.43042
 Alpha  occ. eigenvalues --   -0.42169
 Alpha virt. eigenvalues --    0.03688   0.04757   0.05484   0.05991   0.07477
 Alpha virt. eigenvalues --    0.08734   0.08969   0.09214   0.11527   0.12381
 Alpha virt. eigenvalues --    0.12742   0.13547   0.14671   0.15212   0.16898

  Beta  occ. eigenvalues --  -20.62414 -20.58254 -20.56792 -11.42384 -11.30585
  Beta  occ. eigenvalues --  -11.27879 -11.24970 -11.23293  -1.48951  -1.38793
  Beta  occ. eigenvalues --   -1.22793  -1.07917  -1.04576  -0.93366  -0.84402
  Beta  occ. eigenvalues --   -0.77265  -0.73475  -0.70284  -0.67202  -0.64145
  Beta  occ. eigenvalues --   -0.62492  -0.59178  -0.55617  -0.54911  -0.51433
  Beta  occ. eigenvalues --   -0.50435  -0.48674  -0.47295  -0.43463  -0.42718
  Beta virt. eigenvalues --    0.03662   0.04704   0.05445   0.05764   0.07411
  Beta virt. eigenvalues --    0.07718   0.08545   0.08994   0.10650   0.12029
  Beta virt. eigenvalues --    0.12816   0.12984   0.13799   0.14484   0.15128

 Mulliken charges and spin densities:
               1          2
     1  O   -0.247887   0.969815
     2  H    0.260170  -0.034492
     3  C   -0.587987  -0.588720
     4  H    0.226152   0.048779
     5  C    1.124449   0.626417
     6  C   -0.648707  -0.079674
     7  O   -0.273191   0.059951
     8  O   -0.113226  -0.003186
     9  C   -0.187493  -0.000365
    10  C   -0.349907   0.001159
    11  H    0.162347   0.000162
    12  H    0.181408   0.000010
    13  H    0.136701   0.000154
    14  H    0.142737  -0.000050
    15  H    0.174435   0.000041
 Sum of Mulliken charges =  -0.00000   1.00000

 Dipole moment (field-independent basis, Debye):
    X=             -1.2811    Y=             -2.0915    Z=             -0.2849  Tot=              2.4692
 Quadrupole moment (field-independent basis, Debye-Ang):
   XX=            -42.4318   YY=            -52.3683   ZZ=            -47.4567
   XY=              7.7294   XZ=              1.6406   YZ=              1.0648

 MP3-0=-419.2838672\MP4SDQ=-419.3024663\CCSD=-419.3040546\CCSD(T)=-419.
 Normal termination of Gaussian 16 at Wed Aug 27 00:50:49 2025.
