 Gaussian 16, Revision A.03,
 Gaussian 16:  ES64L-G16RevA.03 25-Dec-2016

 --------------------------
 # ccsd(t)/6-311++g(d,p) sp
 --------------------------

 -------------------
 Title Card Required
 -------------------
 Symbolic Z-matrix:
 Charge =  0 Multiplicity = 2

                         Standard orientation:
 ---------------------------------------------------------------------
 Center     Atomic      Atomic             Coordinates (Angstroms)
 Number     Number       Type             X           Y           Z
 ---------------------------------------------------------------------
      1          8           0        2.792806   -1.501595    0.024453
      2          1           0        1.858355   -1.698032   -0.162081
      3          6           0        2.539983    0.721053    0.264203
      4          1           0        3.592346    0.734699    0.426217
      5          6           0        1.352809    0.796358    0.092197
      6          6           0       -0.083741    0.783898   -0.124986
      7          8           0       -0.785785    1.753821   -0.101454
      8          8           0       -0.498457   -0.467887   -0.358862
      9          6           0       -1.916596   -0.637132   -0.576193
     10          6           0       -2.670180   -0.650097    0.738731
     11          1           0       -1.992553   -1.590720   -1.095562
     12          1           0       -2.264600    0.162643   -1.230607
     13          1           0       -3.726449   -0.852137    0.551206
     14          1           0       -2.280509   -1.430246    1.394306
     15          1           0       -2.588753    0.314610    1.239725
 ---------------------------------------------------------------------

 SCF Done:  E(UHF) =  -417.992050387     A.U. after   32 cycles
 E2 =    -0.1259208488D+01 EUMP2 =    -0.41925125887501D+03
 CCSD(T)= -0.41935733358D+03

 The electronic state is 2-A.
 Alpha  occ. eigenvalues --  -20.62452 -20.62347 -20.57088 -11.42172 -11.30603
 Alpha  occ. eigenvalues --  -11.26803 -11.26239 -11.23299  -1.49136  -1.39289
 Alpha  occ. eigenvalues --   -1.37908  -1.09092  -1.04561  -0.92977  -0.84512
 Alpha  occ. eigenvalues --   -0.77375  -0.73607  -0.70672  -0.67461  -0.66907
 Alpha  occ. eigenvalues --   -0.64980  -0.64203  -0.59461  -0.56216  -0.55115
 Alpha  occ. eigenvalues --   -0.54981  -0.51524  -0.49293  -0.47981  -0.43027
 Alpha  occ. eigenvalues --   -0.42201
 Alpha virt. eigenvalues --    0.03685   0.04757   0.05482   0.05990   0.07477
 Alpha virt. eigenvalues --    0.08693   0.08968   0.09218   0.11505   0.12373
 Alpha virt. eigenvalues --    0.12741   0.13513   0.14654   0.15206   0.16895

  Beta  occ. eigenvalues --  -20.62434 -20.58286 -20.56809 -11.42393 -11.30596
  Beta  occ. eigenvalues --  -11.27795 -11.25054 -11.23299  -1.48970  -1.38820
  Beta  occ. eigenvalues --   -1.22679  -1.07957  -1.04581  -0.93363  -0.84420
  Beta  occ. eigenvalues --   -0.77276  -0.73452  -0.70307  -0.67220  -0.64159
  Beta  occ. eigenvalues --   -0.62517  -0.59196  -0.55643  -0.54921  -0.51443
  Beta  occ. eigenvalues --   -0.50379  -0.48714  -0.47333  -0.43391  -0.42734
  Beta virt. eigenvalues --    0.03661   0.04713   0.05444   0.05767   0.07411
  Beta virt. eigenvalues --    0.07758   0.08521   0.08992   0.10690   0.12042
  Beta virt. eigenvalues --    0.12813   0.12889   0.13784   0.14484   0.15145

 Mulliken charges and spin densities:
               1          2
     1  O   -0.248163   0.976555
     2  H    0.258989  -0.034896
     3  C   -0.570037  -0.544920
     4  H    0.228164   0.045089
     5  C    1.103417   0.578589
     6  C   -0.648569  -0.074263
     7  O   -0.273293   0.055713
     8  O   -0.111051  -0.002879
     9  C   -0.187180  -0.000352
    10  C   -0.350314   0.001070
    11  H    0.162523   0.000154
    12  H    0.181489   0.000010
    13  H    0.136764   0.000141
    14  H    0.142763  -0.000046
    15  H    0.174498   0.000035
 Sum of Mulliken charges =  -0.00000   1.00000

 Dipole moment (field-independent basis, Debye):
    X=             -1.2875    Y=             -2.0900    Z=             -0.2835  Tot=              2.4711
 Quadrupole moment (field-independent basis, Debye-Ang):
   XX=            -42.4321   YY=            -52.3876   ZZ=            -47.4665
   XY=              7.7775   XZ=              1.6369   YZ=              1.0761

 MP3-0=-419.2846015\MP4SDQ=-419.3037049\CCSD=-419.3047822\CCSD(T)=-419.
 Normal termination of Gaussian 16 at Wed Aug  6 03:53:20 2025.
