 Gaussian 16, Revision A.03,
 Gaussian 16:  ES64L-G16RevA.03 25-Dec-2016

 --------------------------
 # freq 6-311++g(d,p) m062x
 --------------------------

 -------------------
 Title Card Required
 -------------------
 Symbolic Z-matrix:
 Charge =  0 Multiplicity = 2

                         Standard orientation:
 ---------------------------------------------------------------------
 Center     Atomic      Atomic             Coordinates (Angstroms)
 Number     Number       Type             X           Y           Z
 ---------------------------------------------------------------------
      1          8           0        2.779992   -1.393454    0.025008
      2          1           0        1.866813   -1.661442   -0.168255
      3          6           0        2.544638    0.556602    0.249982
      4          1           0        3.584709    0.718638    0.431229
      5          6           0        1.356709    0.791713    0.099327
      6          6           0       -0.081523    0.784263   -0.118029
      7          8           0       -0.779422    1.757292   -0.085465
      8          8           0       -0.498249   -0.462994   -0.362596
      9          6           0       -1.917593   -0.628461   -0.581831
     10          6           0       -2.671140   -0.651458    0.732802
     11          1           0       -1.993535   -1.577660   -1.108966
     12          1           0       -2.263837    0.177163   -1.229922
     13          1           0       -3.727581   -0.850414    0.543026
     14          1           0       -2.282829   -1.437816    1.381653
     15          1           0       -2.588851    0.308817    1.242140
 ---------------------------------------------------------------------

 SCF Done:  E(UM062X) =  -420.204810994     A.U. after   23 cycles

 The electronic state is 2-A.
 Alpha  occ. eigenvalues --  -19.69668 -19.64903 -19.64498 -10.71925 -10.61635
 Alpha  occ. eigenvalues --  -10.60765 -10.58944 -10.54633  -1.26885  -1.17749
 Alpha  occ. eigenvalues --   -1.10925  -0.92322  -0.88342  -0.79284  -0.71984
 Alpha  occ. eigenvalues --   -0.65724  -0.62771  -0.59752  -0.57682  -0.54823
 Alpha  occ. eigenvalues --   -0.52751  -0.50479  -0.49301  -0.47881  -0.46250
 Alpha  occ. eigenvalues --   -0.43164  -0.41781  -0.40179  -0.39602  -0.37271
 Alpha  occ. eigenvalues --   -0.33544
 Alpha virt. eigenvalues --   -0.02763  -0.00727   0.00790   0.01272   0.01612
 Alpha virt. eigenvalues --    0.02727   0.04626   0.04949   0.05390   0.05941
 Alpha virt. eigenvalues --    0.06596   0.07015   0.08132   0.08812   0.10075

  Beta  occ. eigenvalues --  -19.69648 -19.64449 -19.63604 -10.71953 -10.61631
  Beta  occ. eigenvalues --  -10.60859 -10.58631 -10.54633  -1.26801  -1.17616
  Beta  occ. eigenvalues --   -1.05710  -0.91447  -0.87819  -0.79158  -0.71668
  Beta  occ. eigenvalues --   -0.65609  -0.62329  -0.59572  -0.57510  -0.54642
  Beta  occ. eigenvalues --   -0.50725  -0.50046  -0.47770  -0.46375  -0.43088
  Beta  occ. eigenvalues --   -0.40636  -0.40262  -0.39815  -0.38529  -0.35300
  Beta virt. eigenvalues --   -0.09815  -0.02700  -0.00645   0.00979   0.01311
  Beta virt. eigenvalues --    0.01771   0.02867   0.04909   0.05047   0.05812
  Beta virt. eigenvalues --    0.06358   0.06989   0.07231   0.08393   0.08933

 Mulliken charges and spin densities:
               1          2
     1  O   -0.310128   0.714279
     2  H    0.248134  -0.011786
     3  C   -1.849403  -0.222753
     4  H    0.202182   0.024449
     5  C    1.828827   0.365118
     6  C   -0.099537   0.118576
     7  O   -0.208995   0.011060
     8  O   -0.036981  -0.002229
     9  C   -0.295689   0.001867
    10  C   -0.392353   0.001066
    11  H    0.200089   0.000177
    12  H    0.196849  -0.000105
    13  H    0.167351   0.000202
    14  H    0.166282  -0.000159
    15  H    0.183371   0.000239
 Sum of Mulliken charges =  -0.00000   1.00000

 Dipole moment (field-independent basis, Debye):
    X=             -1.9192    Y=             -0.9660    Z=             -0.1989  Tot=              2.1578
 Quadrupole moment (field-independent basis, Debye-Ang):
   XX=            -43.7947   YY=            -52.4049   ZZ=            -47.4140
   XY=              9.9578   XZ=              1.7497   YZ=              1.0578

  Exact polarizability:  96.439 -10.857  82.432   2.352   2.174  50.207
 Approx polarizability: 104.854 -16.919  94.424   4.800   2.315  57.934

 ******    1 imaginary frequencies (negative Signs) ******

                      1                      2                      3
                      A                      A                      A
 Frequencies --   -692.0601                51.3978                63.9219
 Red. masses --     10.9719                 4.7086                 6.1149
 Frc consts  --      3.0961                 0.0073                 0.0147
 IR Inten    --    100.9758                 1.5013                 2.1573

                      4                      5                      6
                      A                      A                      A
 Frequencies --     93.0985               116.4325               210.1979
 Red. masses --      4.0089                 3.2470                 1.4666
 Frc consts  --      0.0205                 0.0259                 0.0382
 IR Inten    --      4.5172                 0.6204                 3.7522

                      7                      8                      9
                      A                      A                      A
 Frequencies --    230.2843               256.3735               270.1011
 Red. masses --      1.1803                 2.6940                 3.2224
 Frc consts  --      0.0369                 0.1043                 0.1385
 IR Inten    --     80.2771                 6.3907                21.0657

                     10                     11                     12
                      A                      A                      A
 Frequencies --    337.6863               422.5070               569.1954
 Red. masses --      3.0279                 3.9191                 5.3105
 Frc consts  --      0.2034                 0.4122                 1.0137
 IR Inten    --      8.2450                 2.0707                 2.6220

                     13                     14                     15
                      A                      A                      A
 Frequencies --    593.3747               771.9313               784.0075
 Red. masses --      6.9379                 2.3454                 2.3153
 Frc consts  --      1.4392                 0.8234                 0.8385
 IR Inten    --      7.0893                 0.5613                57.1103

                     16                     17                     18
                      A                      A                      A
 Frequencies --    800.6262               813.5831               873.5826
 Red. masses --      1.2481                 1.1229                 1.2570
 Frc consts  --      0.4714                 0.4379                 0.5652
 IR Inten    --     28.0681               169.2187                14.7341

                     19                     20                     21
                      A                      A                      A
 Frequencies --    896.0718               929.8006              1070.5123
 Red. masses --      2.1180                 2.7819                 4.0708
 Frc consts  --      1.0020                 1.4170                 2.7486
 IR Inten    --      4.2178                 2.2977                23.0021

                     22                     23                     24
                      A                      A                      A
 Frequencies --   1127.2314              1202.6109              1260.4926
 Red. masses --      2.0643                 1.7816                 5.5889
 Frc consts  --      1.5454                 1.5182                 5.2319
 IR Inten    --     21.6300                11.2480               572.4717

                     25                     26                     27
                      A                      A                      A
 Frequencies --   1345.7289              1402.1275              1431.2385
 Red. masses --      1.1551                 1.2529                 1.3528
 Frc consts  --      1.2325                 1.4513                 1.6328
 IR Inten    --     39.9554                14.9917                 8.4123

                     28                     29                     30
                      A                      A                      A
 Frequencies --   1493.6942              1503.0282              1514.9902
 Red. masses --      1.0403                 1.0621                 1.0804
 Frc consts  --      1.3676                 1.4136                 1.4610
 IR Inten    --     12.5688                 1.6066                17.0400

                     31                     32                     33
                      A                      A                      A
 Frequencies --   1844.6371              2092.8666              3075.7009
 Red. masses --     12.0382                 6.4727                 1.0354
 Frc consts  --     24.1343                16.7039                 5.7710
 IR Inten    --    398.8157                95.5967                 8.8040

                     34                     35                     36
                      A                      A                      A
 Frequencies --   3109.0658              3151.1992              3155.8132
 Red. masses --      1.0606                 1.1018                 1.1048
 Frc consts  --      6.0402                 6.4460                 6.4827
 IR Inten    --     16.2196                12.6721                 2.3859

                     37                     38                     39
                      A                      A                      A
 Frequencies --   3176.2879              3437.4818              3794.3780
 Red. masses --      1.1077                 1.1442                 1.0678
 Frc consts  --      6.5842                 7.9656                 9.0582
 IR Inten    --     11.4421                66.6490                36.8111

 - Thermochemistry -
 -------------------
 Temperature   298.150 Kelvin.  Pressure   1.00000 Atm.
 Atom     1 has atomic number  8 and mass  15.99491

 Molecular mass:   115.03952 amu.
 Principal axes and moments of inertia in atomic units:
                           1         2         3
     Eigenvalues --   504.270641567.085601924.90675
           X            0.99962   0.02708  -0.00558
           Y           -0.02708   0.99963  -0.00029
           Z            0.00557   0.00044   0.99998
 This molecule is an asymmetric top.
 Rotational symmetry number  1.
 Warning -- assumption of classical behavior for rotation
           may cause significant error
 Rotational temperatures (Kelvin)      0.17176     0.05527     0.04500
 Rotational constants (GHZ):           3.57891     1.15165     0.93757
    1 imaginary frequencies ignored.
 Zero-point vibrational energy     294719.5 (Joules/Mol)
                                   70.43966 (Kcal/Mol)
 Warning -- explicit consideration of  12 degrees of freedom as
           vibrations may cause significant error
 Vibrational temperatures:     73.95    91.97   133.95   167.52   302.43
          (Kelvin)            331.33   368.86   388.62   485.86   607.89
                              818.95   853.73  1110.64  1128.01  1151.92
                             1170.56  1256.89  1289.25  1337.78  1540.23
                             1621.83  1730.29  1813.57  1936.20  2017.35
                             2059.23  2149.09  2162.52  2179.73  2654.02
                             3011.17  4425.25  4473.25  4533.87  4540.51
                             4569.97  4945.77  5459.26

 Zero-point correction=                           0.112253 (Hartree/Particle)
 Thermal correction to Energy=                    0.121780
 Thermal correction to Enthalpy=                  0.122725
 Thermal correction to Gibbs Free Energy=         0.076154
 Sum of electronic and zero-point Energies=           -420.092558
 Sum of electronic and thermal Energies=              -420.083031
 Sum of electronic and thermal Enthalpies=            -420.082086
 Sum of electronic and thermal Free Energies=         -420.128657

                     E (Thermal)             CV                S
                      KCal/Mol        Cal/Mol-Kelvin    Cal/Mol-Kelvin
 Total                   76.418             31.737             98.015
 Electronic               0.000              0.000              1.377
 Translational            0.889              2.981             40.136
 Rotational               0.889              2.981             28.810
 Vibrational             74.641             25.776             27.692
 Vibration     1          0.596              1.977              4.763
 Vibration     2          0.597              1.972              4.332
 Vibration     3          0.602              1.954              3.594
 Vibration     4          0.608              1.936              3.159
 Vibration     5          0.642              1.825              2.042
 Vibration     6          0.652              1.795              1.877
 Vibration     7          0.666              1.752              1.686
 Vibration     8          0.674              1.728              1.596
 Vibration     9          0.718              1.600              1.223
 Vibration    10          0.785              1.421              0.883
 Vibration    11          0.925              1.098              0.506
 Vibration    12          0.951              1.046              0.461

 1\1\GINC-AJ\Freq\UM062X\6-311++G(d,p)\C5H7O3(2)\AAYUSH\16-Aug-2025\0\\
 # freq 6-311++g(d,p) m062x\\Title Card Required\\0,2\O,2.716578,-1.429
 969,0.035885\H,1.803473,-1.698403,-0.157109\C,2.480695,0.520253,0.2588
 55\H,3.520721,0.682756,0.439942\C,1.292704,0.754888,0.107951\C,-0.1455
 24,0.746826,-0.109407\O,-0.843687,1.719699,-0.077846\O,-0.561911,-0.50
 0795,-0.352696\C,-1.981209,-0.66687,-0.57177\C,-2.734759,-0.688722,0.7
 42881\H,-2.056891,-1.616631,-1.097931\H,-2.327667,0.137994,-1.22069\H,
 -3.791145,-0.888158,0.553302\H,-2.34624,-1.474308,1.392541\H,-2.652733

 Normal termination of Gaussian 16 at Sat Aug 16 19:05:09 2025.
