 Gaussian 16, Revision A.03,
 Gaussian 16:  ES64L-G16RevA.03 25-Dec-2016

 --------------------------
 # freq 6-311++g(d,p) m062x
 --------------------------

 -------------------
 Title Card Required
 -------------------
 Symbolic Z-matrix:
 Charge =  0 Multiplicity = 2

                         Standard orientation:
 ---------------------------------------------------------------------
 Center     Atomic      Atomic             Coordinates (Angstroms)
 Number     Number       Type             X           Y           Z
 ---------------------------------------------------------------------
      1          8           0        2.784494   -1.431373    0.024640
      2          1           0        1.864165   -1.678617   -0.166769
      3          6           0        2.541725    0.620610    0.255975
      4          1           0        3.590538    0.706248    0.427801
      5          6           0        1.355443    0.789920    0.096353
      6          6           0       -0.082087    0.784536   -0.120382
      7          8           0       -0.781450    1.756349   -0.091048
      8          8           0       -0.498457   -0.464589   -0.361277
      9          6           0       -1.917058   -0.631451   -0.579844
     10          6           0       -2.670747   -0.651087    0.734845
     11          1           0       -1.993090   -1.582196   -1.104309
     12          1           0       -2.264167    0.172067   -1.230143
     13          1           0       -3.727092   -0.851346    0.545864
     14          1           0       -2.281808   -1.435182    1.386099
     15          1           0       -2.588898    0.310766    1.241254
 ---------------------------------------------------------------------

 SCF Done:  E(UM062X) =  -420.205213406     A.U. after   23 cycles

 The electronic state is 2-A.
 Alpha  occ. eigenvalues --  -19.69522 -19.65808 -19.64311 -10.71720 -10.61539
 Alpha  occ. eigenvalues --  -10.59410 -10.58139 -10.54563  -1.26703  -1.17562
 Alpha  occ. eigenvalues --   -1.11790  -0.91897  -0.88076  -0.79085  -0.71670
 Alpha  occ. eigenvalues --   -0.65560  -0.62498  -0.59587  -0.57503  -0.54707
 Alpha  occ. eigenvalues --   -0.53483  -0.50365  -0.49543  -0.47766  -0.46210
 Alpha  occ. eigenvalues --   -0.43066  -0.42048  -0.40040  -0.39475  -0.37535
 Alpha  occ. eigenvalues --   -0.34478
 Alpha virt. eigenvalues --   -0.02459  -0.00736   0.00789   0.01297   0.01637
 Alpha virt. eigenvalues --    0.02815   0.04651   0.04972   0.05332   0.06051
 Alpha virt. eigenvalues --    0.06578   0.07042   0.08138   0.08895   0.10174

  Beta  occ. eigenvalues --  -19.69510 -19.64349 -19.64279 -10.71739 -10.61536
  Beta  occ. eigenvalues --  -10.59459 -10.57930 -10.54563  -1.26650  -1.17475
  Beta  occ. eigenvalues --   -1.05341  -0.91341  -0.87691  -0.78991  -0.71458
  Beta  occ. eigenvalues --   -0.65477  -0.62120  -0.59465  -0.57390  -0.54544
  Beta  occ. eigenvalues --   -0.50981  -0.50168  -0.47685  -0.46292  -0.43006
  Beta  occ. eigenvalues --   -0.40399  -0.39970  -0.39655  -0.38011  -0.35971
  Beta virt. eigenvalues --   -0.09085  -0.02410  -0.00630   0.00996   0.01340
  Beta virt. eigenvalues --    0.01789   0.02911   0.04918   0.05048   0.05740
  Beta virt. eigenvalues --    0.06460   0.06925   0.07116   0.08349   0.09015

 Mulliken charges and spin densities:
               1          2
     1  O   -0.294306   0.826757
     2  H    0.251178  -0.014468
     3  C   -2.076227  -0.152017
     4  H    0.198551   0.018623
     5  C    2.014250   0.228214
     6  C   -0.071265   0.086426
     7  O   -0.207652   0.007001
     8  O   -0.034651  -0.002702
     9  C   -0.299139   0.001578
    10  C   -0.393415   0.000409
    11  H    0.199246   0.000124
    12  H    0.196725  -0.000090
    13  H    0.167095   0.000123
    14  H    0.165849  -0.000132
    15  H    0.183760   0.000153
 Sum of Mulliken charges =  -0.00000   1.00000

 Dipole moment (field-independent basis, Debye):
    X=             -1.7565    Y=             -1.3060    Z=             -0.2213  Tot=              2.2000
 Quadrupole moment (field-independent basis, Debye-Ang):
   XX=            -43.2265   YY=            -52.1752   ZZ=            -47.4458
   XY=              9.0280   XZ=              1.6606   YZ=              1.0437

  Exact polarizability:  95.481  -8.181  78.254   2.615   1.868  50.220
 Approx polarizability: 104.823 -13.618  88.477   5.302   1.940  57.842

 ******    2 imaginary frequencies (negative Signs) ******

                      1                      2                      3
                      A                      A                      A
 Frequencies --   -382.8957               -54.1007                18.1492
 Red. masses --     12.8461                 5.9232                 6.2505
 Frc consts  --      1.1096                 0.0102                 0.0012
 IR Inten    --     46.6948                 5.3791                 1.0980

                      4                      5                      6
                      A                      A                      A
 Frequencies --     77.4624               115.4715               199.6972
 Red. masses --      3.3528                 3.4338                 1.9988
 Frc consts  --      0.0119                 0.0270                 0.0470
 IR Inten    --      1.2947                 1.3377                 4.3705

                      7                      8                      9
                      A                      A                      A
 Frequencies --    224.2275               241.0414               263.3547
 Red. masses --      1.1265                 1.8198                 3.8126
 Frc consts  --      0.0334                 0.0623                 0.1558
 IR Inten    --     89.8266                 7.9909                10.3807

                     10                     11                     12
                      A                      A                      A
 Frequencies --    337.1771               422.8474               573.9540
 Red. masses --      2.9404                 3.8940                 4.6597
 Frc consts  --      0.1970                 0.4102                 0.9044
 IR Inten    --      8.9961                 2.3417                 1.2200

                     13                     14                     15
                      A                      A                      A
 Frequencies --    597.7362               742.5890               776.9305
 Red. masses --      8.4658                 1.0779                 2.6818
 Frc consts  --      1.7821                 0.3502                 0.9538
 IR Inten    --      7.5123               162.5221                 0.1201

                     16                     17                     18
                      A                      A                      A
 Frequencies --    784.8506               800.6338               809.9343
 Red. masses --      1.9843                 1.2236                 1.0914
 Frc consts  --      0.7202                 0.4621                 0.4218
 IR Inten    --     57.9010                 2.9578                48.2428

                     19                     20                     21
                      A                      A                      A
 Frequencies --    892.4908               929.2771              1073.0139
 Red. masses --      3.1175                 2.8077                 4.1320
 Frc consts  --      1.4631                 1.4285                 2.8030
 IR Inten    --     15.9698                 4.8954                22.5340

                     22                     23                     24
                      A                      A                      A
 Frequencies --   1127.5770              1202.8985              1263.8116
 Red. masses --      2.0695                 1.7811                 5.5239
 Frc consts  --      1.5503                 1.5184                 5.1983
 IR Inten    --     21.9712                 9.7732               583.5856

                     25                     26                     27
                      A                      A                      A
 Frequencies --   1346.1716              1402.1887              1431.3695
 Red. masses --      1.1579                 1.2546                 1.3552
 Frc consts  --      1.2363                 1.4533                 1.6359
 IR Inten    --     42.9942                15.9301                 8.3847

                     28                     29                     30
                      A                      A                      A
 Frequencies --   1493.6175              1502.9177              1514.9264
 Red. masses --      1.0404                 1.0621                 1.0805
 Frc consts  --      1.3675                 1.4135                 1.4611
 IR Inten    --     12.1578                 1.7728                17.1780

                     31                     32                     33
                      A                      A                      A
 Frequencies --   1848.3951              2181.5753              3075.6399
 Red. masses --     12.0869                 6.1302                 1.0354
 Frc consts  --     24.3307                17.1897                 5.7709
 IR Inten    --    392.2139                84.7503                 9.0291

                     34                     35                     36
                      A                      A                      A
 Frequencies --   3108.6196              3150.9084              3155.6568
 Red. masses --      1.0605                 1.1018                 1.1048
 Frc consts  --      6.0381                 6.4453                 6.4820
 IR Inten    --     16.6573                12.6754                 2.6441

                     37                     38                     39
                      A                      A                      A
 Frequencies --   3175.8525              3466.6924              3784.0924
 Red. masses --      1.1076                 1.1569                 1.0676
 Frc consts  --      6.5818                 8.1917                 9.0074
 IR Inten    --     12.0118                75.3608                30.5482

 - Thermochemistry -
 -------------------
 Temperature   298.150 Kelvin.  Pressure   1.00000 Atm.
 Atom     1 has atomic number  8 and mass  15.99491

 Molecular mass:   115.03952 amu.
 Principal axes and moments of inertia in atomic units:
                           1         2         3
     Eigenvalues --   513.873931567.994891935.10448
           X            0.99962   0.02712  -0.00566
           Y           -0.02712   0.99963  -0.00036
           Z            0.00565   0.00052   0.99998
 This molecule is an asymmetric top.
 Rotational symmetry number  1.
 Warning -- assumption of classical behavior for rotation
           may cause significant error
 Rotational temperatures (Kelvin)      0.16855     0.05524     0.04476
 Rotational constants (GHZ):           3.51203     1.15099     0.93263
    2 imaginary frequencies ignored.
 Zero-point vibrational energy     293765.5 (Joules/Mol)
                                   70.21163 (Kcal/Mol)
 Warning -- explicit consideration of  11 degrees of freedom as
           vibrations may cause significant error
 Vibrational temperatures:     26.11   111.45   166.14   287.32   322.61
          (Kelvin)            346.80   378.91   485.12   608.38   825.79
                              860.01  1068.42  1117.83  1129.22  1151.93
                             1165.31  1284.10  1337.02  1543.83  1622.33
                             1730.70  1818.34  1936.84  2017.44  2059.42
                             2148.98  2162.36  2179.64  2659.43  3138.80
                             4425.16  4472.61  4533.45  4540.29  4569.34
                             4987.80  5444.47

 Zero-point correction=                           0.111889 (Hartree/Particle)
 Thermal correction to Energy=                    0.120802
 Thermal correction to Enthalpy=                  0.121747
 Thermal correction to Gibbs Free Energy=         0.075882
 Sum of electronic and zero-point Energies=           -420.093324
 Sum of electronic and thermal Energies=              -420.084411
 Sum of electronic and thermal Enthalpies=            -420.083467
 Sum of electronic and thermal Free Energies=         -420.129331

                     E (Thermal)             CV                S
                      KCal/Mol        Cal/Mol-Kelvin    Cal/Mol-Kelvin
 Total                   75.805             30.035             96.530
 Electronic               0.000              0.000              1.377
 Translational            0.889              2.981             40.136
 Rotational               0.889              2.981             28.835
 Vibrational             74.027             24.073             26.182
 Vibration     1          0.593              1.986              6.827
 Vibration     2          0.599              1.964              3.954
 Vibration     3          0.608              1.937              3.175
 Vibration     4          0.638              1.840              2.136
 Vibration     5          0.649              1.804              1.925
 Vibration     6          0.658              1.778              1.795
 Vibration     7          0.670              1.740              1.639
 Vibration     8          0.718              1.601              1.225
 Vibration     9          0.785              1.421              0.882
 Vibration    10          0.930              1.088              0.497
 Vibration    11          0.956              1.037              0.454

 1\1\GINC-AJ\Freq\UM062X\6-311++G(d,p)\C5H7O3(2)\AAYUSH\16-Aug-2025\0\\
 # freq 6-311++g(d,p) m062x\\Title Card Required\\0,2\O,2.719932,-1.470
 522,0.031016\H,1.799467,-1.716862,-0.160905\C,2.478286,0.581105,0.2666
 47\H,3.527146,0.66581,0.438646\C,1.292096,0.751396,0.107387\C,-0.14543
 8,0.747252,-0.109351\O,-0.84427,1.719383,-0.077979\O,-0.562492,-0.5011
 39,-0.352858\C,-1.981185,-0.666768,-0.571766\C,-2.734878,-0.688744,0.7
 42884\H,-2.057739,-1.616371,-1.098219\H,-2.327858,0.1383,-1.220379\H,-
 3.791333,-0.88803,0.55349\H,-2.346365,-1.474413,1.392492\H,-2.652502,0

 Normal termination of Gaussian 16 at Sat Aug 16 18:58:21 2025.
