 Gaussian 16, Revision A.03,
 Gaussian 16:  ES64L-G16RevA.03 25-Dec-2016

 -------------------
 # freq 6-31+g m062x
 -------------------

 -------------------
 Title Card Required
 -------------------
 Symbolic Z-matrix:
 Charge =  0 Multiplicity = 2

                         Standard orientation:
 ---------------------------------------------------------------------
 Center     Atomic      Atomic             Coordinates (Angstroms)
 Number     Number       Type             X           Y           Z
 ---------------------------------------------------------------------
      1          8           0        2.772944   -1.322504    0.026582
      2          1           0        1.871949   -1.618595   -0.169990
      3          6           0        2.552783    0.426625    0.236754
      4          1           0        3.556461    0.758670    0.437612
      5          6           0        1.358084    0.805886    0.106160
      6          6           0       -0.079459    0.782902   -0.113652
      7          8           0       -0.776424    1.757954   -0.075365
      8          8           0       -0.498389   -0.461189   -0.365283
      9          6           0       -1.918501   -0.623402   -0.585526
     10          6           0       -2.671799   -0.652609    0.729044
     11          1           0       -1.995591   -1.569472   -1.118000
     12          1           0       -2.263109    0.186556   -1.229009
     13          1           0       -3.728525   -0.848947    0.538091
     14          1           0       -2.284707   -1.443337    1.373288
     15          1           0       -2.588188    0.304637    1.243850
 ---------------------------------------------------------------------

 SCF Done:  E(UM062X) =  -419.970489580     A.U. after   19 cycles

 The electronic state is 2-A.
 Alpha  occ. eigenvalues --  -19.72263 -19.67734 -19.66873 -10.74330 -10.65087
 Alpha  occ. eigenvalues --  -10.62770 -10.61704 -10.55565  -1.29401  -1.20144
 Alpha  occ. eigenvalues --   -1.11768  -0.93630  -0.89281  -0.80090  -0.73230
 Alpha  occ. eigenvalues --   -0.66116  -0.63296  -0.59951  -0.58271  -0.55403
 Alpha  occ. eigenvalues --   -0.53068  -0.50837  -0.48726  -0.48099  -0.46296
 Alpha  occ. eigenvalues --   -0.43403  -0.42483  -0.40240  -0.39636  -0.36158
 Alpha  occ. eigenvalues --   -0.32088
 Alpha virt. eigenvalues --   -0.03455   0.01280   0.02807   0.02993   0.03638
 Alpha virt. eigenvalues --    0.04450   0.05834   0.06150   0.07329   0.07660
 Alpha virt. eigenvalues --    0.08099   0.08359   0.09130   0.10989   0.11541

  Beta  occ. eigenvalues --  -19.72219 -19.67651 -19.66129 -10.74383 -10.65265
  Beta  occ. eigenvalues --  -10.62760 -10.61067 -10.55565  -1.29248  -1.19937
  Beta  occ. eigenvalues --   -1.09232  -0.92109  -0.88515  -0.79874  -0.72568
  Beta  occ. eigenvalues --   -0.65945  -0.62747  -0.59684  -0.57929  -0.55160
  Beta  occ. eigenvalues --   -0.51348  -0.50520  -0.48084  -0.46580  -0.43331
  Beta  occ. eigenvalues --   -0.42447  -0.41668  -0.39864  -0.39109  -0.34466
  Beta virt. eigenvalues --   -0.09508  -0.03386   0.01250   0.02596   0.02933
  Beta virt. eigenvalues --    0.03846   0.04484   0.06147   0.06608   0.07021
  Beta virt. eigenvalues --    0.07667   0.08180   0.08536   0.09375   0.11078

 Mulliken charges and spin densities:
               1          2
     1  O   -0.541452   0.385749
     2  H    0.423211  -0.010113
     3  C   -0.312620  -0.275523
     4  H    0.267257   0.035686
     5  C    0.492653   0.820981
     6  C    0.026776   0.016982
     7  O   -0.372122   0.020457
     8  O   -0.292640   0.001523
     9  C   -0.249557   0.000250
    10  C   -0.572769   0.003320
    11  H    0.224510   0.000480
    12  H    0.237032  -0.000209
    13  H    0.211917   0.000271
    14  H    0.221522   0.000056
    15  H    0.236281   0.000091
 Sum of Mulliken charges =  -0.00000   1.00000

 Dipole moment (field-independent basis, Debye):
    X=             -2.2848    Y=             -0.6256    Z=             -0.2200  Tot=              2.3791
 Quadrupole moment (field-independent basis, Debye-Ang):
   XX=            -46.2799   YY=            -53.7484   ZZ=            -47.6362
   XY=             11.8182   XZ=              1.7789   YZ=              1.0992

  Exact polarizability:  90.739  -9.382  75.598   3.007   2.048  46.193
 Approx polarizability:  96.474 -20.128  93.158   4.576   3.051  48.630

 ******    4 imaginary frequencies (negative Signs) ******

                      1                      2                      3
                      A                      A                      A
 Frequencies --   -656.6908              -364.3549               -84.6370
 Red. masses --     11.9086                 1.0620                 7.0543
 Frc consts  --      3.0257                 0.0831                 0.0298
 IR Inten    --     14.3979               130.3241                 0.0538

                      4                      5                      6
                      A                      A                      A
 Frequencies --    -33.4149                50.3226               148.9238
 Red. masses --      3.3389                 3.7649                 5.2596
 Frc consts  --      0.0022                 0.0056                 0.0687
 IR Inten    --      1.5553                 1.5722                12.7198

                      7                      8                      9
                      A                      A                      A
 Frequencies --    176.3158               284.1904               290.4246
 Red. masses --      1.1997                 2.8252                 3.6245
 Frc consts  --      0.0220                 0.1344                 0.1801
 IR Inten    --      3.1291                15.5702                14.9052

                     10                     11                     12
                      A                      A                      A
 Frequencies --    331.9185               416.4937               555.2183
 Red. masses --      4.6624                 3.8587                 6.2727
 Frc consts  --      0.3026                 0.3944                 1.1393
 IR Inten    --      3.1252                 2.5223                 8.9327

                     13                     14                     15
                      A                      A                      A
 Frequencies --    596.9060               752.5913               813.8390
 Red. masses --      5.0841                11.4245                 1.3330
 Frc consts  --      1.0673                 3.8125                 0.5202
 IR Inten    --     10.3701                28.3966                15.2537

                     16                     17                     18
                      A                      A                      A
 Frequencies --    819.9477               887.8532               922.6198
 Red. masses --      1.3809                 2.6228                 1.4409
 Frc consts  --      0.5470                 1.2181                 0.7227
 IR Inten    --     36.9298                37.6942                59.1988

                     19                     20                     21
                      A                      A                      A
 Frequencies --    946.9763              1097.5103              1108.7158
 Red. masses --      1.8394                 1.6490                 1.8938
 Frc consts  --      0.9719                 1.1703                 1.3716
 IR Inten    --     18.1255                 1.0282                11.2979

                     22                     23                     24
                      A                      A                      A
 Frequencies --   1154.8692              1226.4551              1305.3398
 Red. masses --      2.0267                 1.7553                 3.6495
 Frc consts  --      1.5926                 1.5556                 3.6638
 IR Inten    --     18.4277                 7.9752               445.7645

                     25                     26                     27
                      A                      A                      A
 Frequencies --   1363.5154              1440.6628              1458.0879
 Red. masses --      1.3060                 1.3111                 1.2502
 Frc consts  --      1.4306                 1.6033                 1.5660
 IR Inten    --    108.4292                11.1890                19.4078

                     28                     29                     30
                      A                      A                      A
 Frequencies --   1528.6510              1537.5865              1545.5041
 Red. masses --      1.0414                 1.0663                 1.0729
 Frc consts  --      1.4338                 1.4853                 1.5099
 IR Inten    --     16.4142                 3.2244                21.8412

                     31                     32                     33
                      A                      A                      A
 Frequencies --   1895.5428              1962.3791              3108.0705
 Red. masses --     11.4150                 7.8463                 1.0352
 Frc consts  --     24.1654                17.8024                 5.8917
 IR Inten    --    279.9273               179.3634                11.3561

                     34                     35                     36
                      A                      A                      A
 Frequencies --   3140.4786              3188.3928              3192.5188
 Red. masses --      1.0600                 1.1005                 1.1026
 Frc consts  --      6.1594                 6.5917                 6.6210
 IR Inten    --     17.3428                12.5951                 5.0813

                     37                     38                     39
                      A                      A                      A
 Frequencies --   3213.2685              3371.3122              3838.4522
 Red. masses --      1.1057                 1.1194                 1.0678
 Frc consts  --      6.7265                 7.4962                 9.2691
 IR Inten    --     13.8452                19.6301                29.2555

 - Thermochemistry -
 -------------------
 Temperature   298.150 Kelvin.  Pressure   1.00000 Atm.
 Atom     1 has atomic number  8 and mass  15.99491

 Molecular mass:   115.03952 amu.
 Principal axes and moments of inertia in atomic units:
                           1         2         3
     Eigenvalues --   487.880261565.946861907.94467
           X            0.99961   0.02728  -0.00544
           Y           -0.02728   0.99963  -0.00012
           Z            0.00544   0.00027   0.99999
 This molecule is an asymmetric top.
 Rotational symmetry number  1.
 Warning -- assumption of classical behavior for rotation
           may cause significant error
 Rotational temperatures (Kelvin)      0.17753     0.05531     0.04540
 Rotational constants (GHZ):           3.69915     1.15249     0.94591
    4 imaginary frequencies ignored.
 Zero-point vibrational energy     297103.7 (Joules/Mol)
                                   71.00948 (Kcal/Mol)
 Warning -- explicit consideration of   9 degrees of freedom as
           vibrations may cause significant error
 Vibrational temperatures:     72.40   214.27   253.68   408.89   417.86
          (Kelvin)            477.56   599.24   798.84   858.81  1082.81
                             1170.93  1179.72  1277.42  1327.44  1362.49
                             1579.07  1595.19  1661.60  1764.60  1878.09
                             1961.79  2072.79  2097.86  2199.39  2212.24
                             2223.64  2727.26  2823.43  4471.82  4518.45
                             4587.39  4593.32  4623.18  4850.57  5522.68

 Zero-point correction=                           0.113161 (Hartree/Particle)
 Thermal correction to Energy=                    0.120490
 Thermal correction to Enthalpy=                  0.121434
 Thermal correction to Gibbs Free Energy=         0.079808
 Sum of electronic and zero-point Energies=           -419.857329
 Sum of electronic and thermal Energies=              -419.850000
 Sum of electronic and thermal Enthalpies=            -419.849056
 Sum of electronic and thermal Free Energies=         -419.890682

                     E (Thermal)             CV                S
                      KCal/Mol        Cal/Mol-Kelvin    Cal/Mol-Kelvin
 Total                   75.608             25.379             87.610
 Electronic               0.000              0.000              1.377
 Translational            0.889              2.981             40.136
 Rotational               0.889              2.981             28.768
 Vibrational             73.831             19.417             17.329
 Vibration     1          0.595              1.977              4.805
 Vibration     2          0.618              1.904              2.686
 Vibration     3          0.628              1.872              2.367
 Vibration     4          0.683              1.703              1.508
 Vibration     5          0.686              1.692              1.471
 Vibration     6          0.714              1.612              1.251
 Vibration     7          0.780              1.434              0.904
 Vibration     8          0.911              1.128              0.533
 Vibration     9          0.955              1.038              0.455

 Normal termination of Gaussian 16 at Fri Jun 20 14:21:37 2025.
