 Gaussian 16, Revision A.03,
 Gaussian 16:  ES64L-G16RevA.03 25-Dec-2016

 -------------------
 # freq 6-31+g m062x
 -------------------

 -------------------
 Title Card Required
 -------------------
 Symbolic Z-matrix:
 Charge =  0 Multiplicity = 2

                         Standard orientation:
 ---------------------------------------------------------------------
 Center     Atomic      Atomic             Coordinates (Angstroms)
 Number     Number       Type             X           Y           Z
 ---------------------------------------------------------------------
      1          8           0        2.794343   -1.516447    0.024481
      2          1           0        1.857322   -1.701872   -0.161033
      3          6           0        2.539685    0.739948    0.265540
      4          1           0        3.592275    0.748071    0.426723
      5          6           0        1.352438    0.799012    0.091510
      6          6           0       -0.084119    0.783785   -0.125933
      7          8           0       -0.786964    1.753156   -0.103696
      8          8           0       -0.498204   -0.468559   -0.358313
      9          6           0       -1.916419   -0.638390   -0.575412
     10          6           0       -2.670055   -0.649894    0.739519
     11          1           0       -1.992236   -1.592611   -1.093643
     12          1           0       -2.264567    0.160540   -1.230771
     13          1           0       -3.726298   -0.852261    0.552199
     14          1           0       -2.280348   -1.429240    1.396029
     15          1           0       -2.588729    0.315407    1.239379
 ---------------------------------------------------------------------

 SCF Done:  E(UM062X) =  -419.964148559     A.U. after   23 cycles

 The electronic state is 2-A.
 Alpha  occ. eigenvalues --  -19.71917 -19.69388 -19.67358 -10.73940 -10.62555
 Alpha  occ. eigenvalues --  -10.59926 -10.59233 -10.55407  -1.28965  -1.19721
 Alpha  occ. eigenvalues --   -1.13650  -0.92264  -0.88585  -0.79515  -0.72058
 Alpha  occ. eigenvalues --   -0.65671  -0.62258  -0.59532  -0.57817  -0.55051
 Alpha  occ. eigenvalues --   -0.54046  -0.50556  -0.49527  -0.47976  -0.46313
 Alpha  occ. eigenvalues --   -0.43134  -0.42288  -0.39996  -0.39373  -0.37929
 Alpha  occ. eigenvalues --   -0.35924
 Alpha virt. eigenvalues --   -0.02413   0.01476   0.02616   0.03063   0.03865
 Alpha virt. eigenvalues --    0.04407   0.05271   0.06318   0.07160   0.07730
 Alpha virt. eigenvalues --    0.08425   0.08533   0.08792   0.11260   0.12013

  Beta  occ. eigenvalues --  -19.71914 -19.67758 -19.67341 -10.73950 -10.62554
  Beta  occ. eigenvalues --  -10.59935 -10.59122 -10.55407  -1.28942  -1.19686
  Beta  occ. eigenvalues --   -1.06355  -0.92002  -0.88388  -0.79460  -0.71939
  Beta  occ. eigenvalues --   -0.65637  -0.62018  -0.59478  -0.57753  -0.54969
  Beta  occ. eigenvalues --   -0.51023  -0.50412  -0.47935  -0.46350  -0.43096
  Beta  occ. eigenvalues --   -0.40421  -0.39595  -0.39482  -0.37805  -0.36792
  Beta virt. eigenvalues --   -0.08530  -0.02392   0.01523   0.02772   0.03084
  Beta virt. eigenvalues --    0.04013   0.04471   0.05569   0.06432   0.07253
  Beta virt. eigenvalues --    0.07828   0.08476   0.08634   0.08884   0.11267

 Mulliken charges and spin densities:
               1          2
     1  O   -0.458108   0.939085
     2  H    0.426622  -0.034075
     3  C   -0.035698  -0.151245
     4  H    0.358893   0.006265
     5  C    0.389678   0.192659
     6  C   -0.362672   0.044064
     7  O   -0.350087   0.004317
     8  O   -0.268117  -0.001564
     9  C   -0.261307  -0.000052
    10  C   -0.566265   0.000371
    11  H    0.221660   0.000135
    12  H    0.236168   0.000011
    13  H    0.211507   0.000021
    14  H    0.219933   0.000002
    15  H    0.237793   0.000005
 Sum of Mulliken charges =  -0.00000   1.00000

 Dipole moment (field-independent basis, Debye):
    X=             -1.8975    Y=             -1.5340    Z=             -0.2771  Tot=              2.4557
 Quadrupole moment (field-independent basis, Debye-Ang):
   XX=            -44.4018   YY=            -52.7559   ZZ=            -47.6853
   XY=              9.2911   XZ=              1.4920   YZ=              1.1388

  Exact polarizability:  89.236  -3.183  67.156   3.760   1.385  45.921
 Approx polarizability:  98.638  -9.451  75.150   6.645   1.843  47.977

 ******    3 imaginary frequencies (negative Signs) ******

                      1                      2                      3
                      A                      A                      A
 Frequencies --   -418.4030              -121.4853              -108.2901
 Red. masses --      1.0721                 5.8601                 5.8002
 Frc consts  --      0.1106                 0.0510                 0.0401
 IR Inten    --    157.1109                 4.7033                 6.8461

                      4                      5                      6
                      A                      A                      A
 Frequencies --      2.6872                42.1646               141.7634
 Red. masses --      3.4191                 2.7317                 3.0247
 Frc consts  --      0.0000                 0.0029                 0.0358
 IR Inten    --      7.1905                 1.5380                 5.0512

                      7                      8                      9
                      A                      A                      A
 Frequencies --    186.5223               205.4047               245.7009
 Red. masses --      1.6572                 3.9379                 3.9230
 Frc consts  --      0.0340                 0.0979                 0.1395
 IR Inten    --      1.6153                19.4383                 1.1395

                     10                     11                     12
                      A                      A                      A
 Frequencies --    314.6841               397.4687               421.8590
 Red. masses --      2.9926                 1.2659                 3.1850
 Frc consts  --      0.1746                 0.1178                 0.3340
 IR Inten    --     11.7000               149.6820                15.5449

                     13                     14                     15
                      A                      A                      A
 Frequencies --    582.2842               622.2677               777.7230
 Red. masses --      4.2108                 7.3831                 3.3806
 Frc consts  --      0.8412                 1.6844                 1.2047
 IR Inten    --      7.1639                14.1048                66.5295

                     16                     17                     18
                      A                      A                      A
 Frequencies --    807.4583               816.0239               869.7144
 Red. masses --      1.2187                 1.2862                 1.8208
 Frc consts  --      0.4682                 0.5046                 0.8115
 IR Inten    --     71.3061                 8.1097                14.0100

                     19                     20                     21
                      A                      A                      A
 Frequencies --    897.4128               946.8900              1110.9849
 Red. masses --      3.2682                 2.5971                 4.2571
 Frc consts  --      1.5508                 1.3719                 3.0958
 IR Inten    --     18.2706                 4.4798                 7.0366

                     22                     23                     24
                      A                      A                      A
 Frequencies --   1156.8771              1227.2331              1312.6850
 Red. masses --      2.0662                 1.7621                 3.2357
 Frc consts  --      1.6293                 1.5636                 3.2850
 IR Inten    --     18.8464                 6.6839               463.6976

                     25                     26                     27
                      A                      A                      A
 Frequencies --   1365.4732              1441.4848              1457.4512
 Red. masses --      1.3587                 1.3231                 1.2543
 Frc consts  --      1.4926                 1.6198                 1.5698
 IR Inten    --    143.3251                17.2769                18.6353

                     28                     29                     30
                      A                      A                      A
 Frequencies --   1528.3183              1536.9256              1545.0317
 Red. masses --      1.0416                 1.0686                 1.0716
 Frc consts  --      1.4335                 1.4873                 1.5071
 IR Inten    --     15.1275                 4.4100                22.3936

                     31                     32                     33
                      A                      A                      A
 Frequencies --   1917.4617              2308.1271              3108.1732
 Red. masses --     12.3309                 5.6712                 1.0352
 Frc consts  --     26.7115                17.8009                 5.8922
 IR Inten    --    328.2899                84.6885                11.9784

                     34                     35                     36
                      A                      A                      A
 Frequencies --   3139.3745              3187.6793              3192.2072
 Red. masses --      1.0599                 1.1010                 1.1024
 Frc consts  --      6.1543                 6.5913                 6.6186
 IR Inten    --     18.6612                11.8174                 6.7345

                     37                     38                     39
                      A                      A                      A
 Frequencies --   3212.5520              3533.7221              3786.7367
 Red. masses --      1.1054                 1.1744                 1.0675
 Frc consts  --      6.7218                 8.6406                 9.0184
 IR Inten    --     15.3974                69.4764                 9.5253

 - Thermochemistry -
 -------------------
 Temperature   298.150 Kelvin.  Pressure   1.00000 Atm.
 Atom     1 has atomic number  8 and mass  15.99491

 Molecular mass:   115.03952 amu.
 Principal axes and moments of inertia in atomic units:
                           1         2         3
     Eigenvalues --   536.471141570.855811959.87760
           X            0.99959   0.02811  -0.00578
           Y           -0.02811   0.99960  -0.00025
           Z            0.00577   0.00041   0.99998
 This molecule is an asymmetric top.
 Rotational symmetry number  1.
 Warning -- assumption of classical behavior for rotation
           may cause significant error
 Rotational temperatures (Kelvin)      0.16145     0.05514     0.04419
 Rotational constants (GHZ):           3.36410     1.14889     0.92084
    3 imaginary frequencies ignored.
 Zero-point vibrational energy     295157.8 (Joules/Mol)
                                   70.54440 (Kcal/Mol)
 Warning -- explicit consideration of  10 degrees of freedom as
           vibrations may cause significant error
 Vibrational temperatures:      3.87    60.67   203.97   268.36   295.53
          (Kelvin)            353.51   452.76   571.87   606.96   837.78
                              895.30  1118.97  1161.75  1174.08  1251.32
                             1291.18  1362.36  1598.46  1664.49  1765.71
                             1888.66  1964.61  2073.98  2096.95  2198.91
                             2211.29  2222.96  2758.80  3320.88  4471.97
                             4516.86  4586.36  4592.87  4622.15  5084.24
                             5448.27

 Zero-point correction=                           0.112420 (Hartree/Particle)
 Thermal correction to Energy=                    0.121146
 Thermal correction to Enthalpy=                  0.122091
 Thermal correction to Gibbs Free Energy=         0.074364
 Sum of electronic and zero-point Energies=           -419.851729
 Sum of electronic and thermal Energies=              -419.843002
 Sum of electronic and thermal Enthalpies=            -419.842058
 Sum of electronic and thermal Free Energies=         -419.889785

                     E (Thermal)             CV                S
                      KCal/Mol        Cal/Mol-Kelvin    Cal/Mol-Kelvin
 Total                   76.021             28.687            100.450
 Electronic               0.000              0.000              1.377
 Translational            0.889              2.981             40.136
 Rotational               0.889              2.981             28.892
 Vibrational             74.243             22.725             30.045
 Vibration     1          0.592              1.987             10.622
 Vibration     2          0.595              1.980              5.155
 Vibration     3          0.615              1.911              2.780
 Vibration     4          0.632              1.858              2.262
 Vibration     5          0.640              1.832              2.084
 Vibration     6          0.660              1.770              1.761
 Vibration     7          0.702              1.646              1.338
 Vibration     8          0.764              1.476              0.972
 Vibration     9          0.784              1.423              0.886
 Vibration    10          0.939              1.070              0.481

 Normal termination of Gaussian 16 at Fri Jun 20 14:26:26 2025.
