 Gaussian 16, Revision A.03,
 Gaussian 16:  ES64L-G16RevA.03 25-Dec-2016

 --------------------------
 # freq 6-311++g(d,p) m062x
 --------------------------

 -------------------
 Title Card Required
 -------------------
 Symbolic Z-matrix:
 Charge =  0 Multiplicity = 2

                         Standard orientation:
 ---------------------------------------------------------------------
 Center     Atomic      Atomic             Coordinates (Angstroms)
 Number     Number       Type             X           Y           Z
 ---------------------------------------------------------------------
      1          8           0        2.782904   -1.418440    0.024748
      2          1           0        1.865160   -1.673450   -0.167375
      3          6           0        2.542551    0.599457    0.254046
      4          1           0        3.589043    0.708751    0.428782
      5          6           0        1.355940    0.790101    0.097321
      6          6           0       -0.081888    0.784501   -0.119575
      7          8           0       -0.780739    1.756712   -0.089150
      8          8           0       -0.498381   -0.464010   -0.361722
      9          6           0       -1.917216   -0.630442   -0.580519
     10          6           0       -2.670878   -0.651198    0.734143
     11          1           0       -1.993178   -1.580709   -1.105820
     12          1           0       -2.264066    0.173726   -1.230129
     13          1           0       -3.727246   -0.851067    0.544900
     14          1           0       -2.282121   -1.436000    1.384638
     15          1           0       -2.588925    0.310153    1.241496
 ---------------------------------------------------------------------

 SCF Done:  E(UM062X) =  -420.204766894     A.U. after   23 cycles

 The electronic state is 2-A.
 Alpha  occ. eigenvalues --  -19.69565 -19.65523 -19.64368 -10.71784 -10.61568
 Alpha  occ. eigenvalues --  -10.59787 -10.58378 -10.54584  -1.26758  -1.17619
 Alpha  occ. eigenvalues --   -1.11529  -0.92022  -0.88157  -0.79143  -0.71762
 Alpha  occ. eigenvalues --   -0.65610  -0.62590  -0.59636  -0.57557  -0.54737
 Alpha  occ. eigenvalues --   -0.53246  -0.50399  -0.49474  -0.47801  -0.46223
 Alpha  occ. eigenvalues --   -0.43095  -0.41944  -0.40080  -0.39511  -0.37477
 Alpha  occ. eigenvalues --   -0.34197
 Alpha virt. eigenvalues --   -0.02543  -0.00732   0.00792   0.01290   0.01630
 Alpha virt. eigenvalues --    0.02787   0.04650   0.04965   0.05351   0.06009
 Alpha virt. eigenvalues --    0.06585   0.07034   0.08138   0.08868   0.10136

  Beta  occ. eigenvalues --  -19.69552 -19.64331 -19.64104 -10.71805 -10.61565
  Beta  occ. eigenvalues --  -10.59849 -10.58139 -10.54584  -1.26696  -1.17519
  Beta  occ. eigenvalues --   -1.05437  -0.91378  -0.87731  -0.79039  -0.71521
  Beta  occ. eigenvalues --   -0.65518  -0.62193  -0.59498  -0.57427  -0.54574
  Beta  occ. eigenvalues --   -0.50866  -0.50145  -0.47711  -0.46317  -0.43031
  Beta  occ. eigenvalues --   -0.40453  -0.40045  -0.39701  -0.38166  -0.35761
  Beta virt. eigenvalues --   -0.09339  -0.02491  -0.00634   0.00995   0.01332
  Beta virt. eigenvalues --    0.01783   0.02897   0.04914   0.05047   0.05777
  Beta virt. eigenvalues --    0.06433   0.06968   0.07134   0.08364   0.08988

 Mulliken charges and spin densities:
               1          2
     1  O   -0.298585   0.796436
     2  H    0.250311  -0.013724
     3  C   -2.002908  -0.172441
     4  H    0.200217   0.020507
     5  C    1.948825   0.264890
     6  C   -0.076001   0.096367
     7  O   -0.208173   0.008187
     8  O   -0.035707  -0.002669
     9  C   -0.298041   0.001631
    10  C   -0.393004   0.000581
    11  H    0.199531   0.000138
    12  H    0.196750  -0.000089
    13  H    0.167173   0.000144
    14  H    0.165978  -0.000139
    15  H    0.183635   0.000179
 Sum of Mulliken charges =  -0.00000   1.00000

 Dipole moment (field-independent basis, Debye):
    X=             -1.8039    Y=             -1.2059    Z=             -0.2149  Tot=              2.1805
 Quadrupole moment (field-independent basis, Debye-Ang):
   XX=            -43.3779   YY=            -52.2387   ZZ=            -47.4349
   XY=              9.2945   XZ=              1.6886   YZ=              1.0465

  Exact polarizability:  95.923  -9.336  80.110   2.510   1.998  50.219
 Approx polarizability: 104.929 -14.797  90.430   5.142   2.047  57.867

 ******    2 imaginary frequencies (negative Signs) ******

                      1                      2                      3
                      A                      A                      A
 Frequencies --   -493.4491               -36.3431                35.7062
 Red. masses --     12.3165                 5.8106                 6.1855
 Frc consts  --      1.7669                 0.0045                 0.0046
 IR Inten    --     71.8668                 4.9115                 1.2419

                      4                      5                      6
                      A                      A                      A
 Frequencies --     79.4803               115.5487               203.4715
 Red. masses --      3.3778                 3.3953                 1.7935
 Frc consts  --      0.0126                 0.0267                 0.0437
 IR Inten    --      1.6162                 1.2659                 4.3100

                      7                      8                      9
                      A                      A                      A
 Frequencies --    223.8577               244.5153               264.9525
 Red. masses --      1.1329                 2.0446                 3.6891
 Frc consts  --      0.0334                 0.0720                 0.1526
 IR Inten    --     88.9430                 6.9552                12.0099

                     10                     11                     12
                      A                      A                      A
 Frequencies --    337.2160               422.7575               573.2349
 Red. masses --      2.9584                 3.9003                 4.8148
 Frc consts  --      0.1982                 0.4107                 0.9322
 IR Inten    --      8.8225                 2.2560                 1.4495

                     13                     14                     15
                      A                      A                      A
 Frequencies --    596.1471               768.7491               775.1049
 Red. masses --      8.0714                 1.1008                 2.3427
 Frc consts  --      1.6901                 0.3833                 0.8292
 IR Inten    --      7.4824               188.7844                 0.5966

                     16                     17                     18
                      A                      A                      A
 Frequencies --    784.1076               801.3068               821.1153
 Red. masses --      2.2504                 1.2319                 1.0696
 Frc consts  --      0.8152                 0.4661                 0.4249
 IR Inten    --     57.8208                 0.8088                22.3190

                     19                     20                     21
                      A                      A                      A
 Frequencies --    892.4241               929.0636              1072.2785
 Red. masses --      3.0787                 2.8211                 4.1149
 Frc consts  --      1.4446                 1.4347                 2.7876
 IR Inten    --     15.0479                 4.5964                22.5585

                     22                     23                     24
                      A                      A                      A
 Frequencies --   1127.4713              1202.8021              1262.5920
 Red. masses --      2.0679                 1.7814                 5.5477
 Frc consts  --      1.5488                 1.5184                 5.2106
 IR Inten    --     21.8764                10.4099               580.4069

                     25                     26                     27
                      A                      A                      A
 Frequencies --   1346.0206              1402.1700              1431.3280
 Red. masses --      1.1568                 1.2540                 1.3545
 Frc consts  --      1.2349                 1.4526                 1.6349
 IR Inten    --     41.8434                15.6553                 8.3730

                     28                     29                     30
                      A                      A                      A
 Frequencies --   1493.6411              1502.9498              1514.9459
 Red. masses --      1.0404                 1.0621                 1.0805
 Frc consts  --      1.3675                 1.4135                 1.4610
 IR Inten    --     12.3211                 1.7177                17.1654

                     31                     32                     33
                      A                      A                      A
 Frequencies --   1847.4171              2156.6741              3075.6602
 Red. masses --     12.0764                 6.2350                 1.0354
 Frc consts  --     24.2839                17.0867                 5.7709
 IR Inten    --    396.4758                88.2178                 8.9584

                     34                     35                     36
                      A                      A                      A
 Frequencies --   3108.7716              3151.0046              3155.6999
 Red. masses --      1.0605                 1.1018                 1.1048
 Frc consts  --      6.0388                 6.4456                 6.4822
 IR Inten    --     16.5187                12.6682                 2.5726

                     37                     38                     39
                      A                      A                      A
 Frequencies --   3175.9836              3460.0139              3787.6841
 Red. masses --      1.1076                 1.1530                 1.0677
 Frc consts  --      6.5826                 8.1326                 9.0250
 IR Inten    --     11.8057                74.2916                31.9574

 - Thermochemistry -
 -------------------
 Temperature   298.150 Kelvin.  Pressure   1.00000 Atm.
 Atom     1 has atomic number  8 and mass  15.99491

 Molecular mass:   115.03952 amu.
 Principal axes and moments of inertia in atomic units:
                           1         2         3
     Eigenvalues --   510.556011567.643361931.54267
           X            0.99962   0.02708  -0.00564
           Y           -0.02708   0.99963  -0.00034
           Z            0.00563   0.00050   0.99998
 This molecule is an asymmetric top.
 Rotational symmetry number  1.
 Warning -- assumption of classical behavior for rotation
           may cause significant error
 Rotational temperatures (Kelvin)      0.16965     0.05525     0.04484
 Rotational constants (GHZ):           3.53485     1.15124     0.93435
    2 imaginary frequencies ignored.
 Zero-point vibrational energy     293945.6 (Joules/Mol)
                                   70.25469 (Kcal/Mol)
 Warning -- explicit consideration of  11 degrees of freedom as
           vibrations may cause significant error
 Vibrational temperatures:     51.37   114.35   166.25   292.75   322.08
          (Kelvin)            351.80   381.21   485.18   608.25   824.76
                              857.72  1106.06  1115.20  1128.16  1152.90
                             1181.40  1284.00  1336.72  1542.77  1622.18
                             1730.56  1816.59  1936.62  2017.41  2059.36
                             2149.02  2162.41  2179.67  2658.02  3102.97
                             4425.19  4472.83  4533.59  4540.35  4569.53
                             4978.19  5449.63

 Zero-point correction=                           0.111958 (Hartree/Particle)
 Thermal correction to Energy=                    0.120807
 Thermal correction to Enthalpy=                  0.121751
 Thermal correction to Gibbs Free Energy=         0.076598
 Sum of electronic and zero-point Energies=           -420.092809
 Sum of electronic and thermal Energies=              -420.083960
 Sum of electronic and thermal Enthalpies=            -420.083016
 Sum of electronic and thermal Free Energies=         -420.128169

                     E (Thermal)             CV                S
                      KCal/Mol        Cal/Mol-Kelvin    Cal/Mol-Kelvin
 Total                   75.807             29.964             95.032
 Electronic               0.000              0.000              1.377
 Translational            0.889              2.981             40.136
 Rotational               0.889              2.981             28.826
 Vibrational             74.030             24.002             24.693
 Vibration     1          0.594              1.982              5.484
 Vibration     2          0.600              1.963              3.904
 Vibration     3          0.608              1.937              3.173
 Vibration     4          0.639              1.835              2.101
 Vibration     5          0.649              1.805              1.928
 Vibration     6          0.660              1.772              1.770
 Vibration     7          0.671              1.737              1.629
 Vibration     8          0.718              1.601              1.225
 Vibration     9          0.785              1.421              0.883
 Vibration    10          0.929              1.089              0.498
 Vibration    11          0.954              1.040              0.456

 1\1\GINC-AJ\Freq\UM062X\6-311++G(d,p)\C5H7O3(2)\AAYUSH\16-Aug-2025\0\\
 # freq 6-311++g(d,p) m062x\\Title Card Required\\0,2\O,2.718737,-1.456
 732,0.032668\H,1.800922,-1.711292,-0.159711\C,2.47894,0.560994,0.26404
 5\H,3.525463,0.669821,0.438886\C,1.29238,0.752125,0.107525\C,-0.145451
 ,0.747143,-0.109367\O,-0.844035,1.719514,-0.077936\O,-0.562288,-0.5010
 04,-0.352796\C,-1.981171,-0.666821,-0.571755\C,-2.734829,-0.688723,0.7
 42891\H,-2.057397,-1.616526,-1.098033\H,-2.327804,0.138111,-1.220534\H
 ,-3.791254,-0.888107,0.553449\H,-2.346284,-1.474301,1.392575\H,-2.6526

 Normal termination of Gaussian 16 at Sat Aug 16 19:00:37 2025.
