 Gaussian 16, Revision A.03,
 Gaussian 16:  ES64L-G16RevA.03 25-Dec-2016

 --------------------------
 # ccsd(t)/6-311++g(d,p) sp
 --------------------------

 -------------------
 Title Card Required
 -------------------
 Symbolic Z-matrix:
 Charge =  0 Multiplicity = 2

                         Standard orientation:
 ---------------------------------------------------------------------
 Center     Atomic      Atomic             Coordinates (Angstroms)
 Number     Number       Type             X           Y           Z
 ---------------------------------------------------------------------
      1          8           0        2.787854   -1.458517    0.024490
      2          1           0        1.861777   -1.686726   -0.165057
      3          6           0        2.540798    0.661910    0.259592
      4          1           0        3.591963    0.709729    0.426363
      5          6           0        1.354240    0.791074    0.094516
      6          6           0       -0.082643    0.784395   -0.122122
      7          8           0       -0.782991    1.755486   -0.095040
      8          8           0       -0.498595   -0.465859   -0.360362
      9          6           0       -1.916837   -0.633622   -0.578436
     10          6           0       -2.670504   -0.650756    0.736341
     11          1           0       -1.992955   -1.585464   -1.100959
     12          1           0       -2.264391    0.168446   -1.230297
     13          1           0       -3.726810   -0.851804    0.547973
     14          1           0       -2.281194   -1.433278    1.389286
     15          1           0       -2.588858    0.312215    1.240649
 ---------------------------------------------------------------------

 SCF Done:  E(UHF) =  -417.988133884     A.U. after   32 cycles
 E2 =    -0.1257640523D+01 EUMP2 =    -0.41924577440713D+03
 CCSD(T)= -0.41935566951D+03

 The electronic state is 2-A.
 Alpha  occ. eigenvalues --  -20.62406 -20.62167 -20.57108 -11.42094 -11.30579
 Alpha  occ. eigenvalues --  -11.26828 -11.26327 -11.23285  -1.49130  -1.39325
 Alpha  occ. eigenvalues --   -1.37829  -1.09288  -1.04550  -0.92890  -0.84510
 Alpha  occ. eigenvalues --   -0.77388  -0.73752  -0.70691  -0.67471  -0.66621
 Alpha  occ. eigenvalues --   -0.64827  -0.64161  -0.59471  -0.56272  -0.55051
 Alpha  occ. eigenvalues --   -0.54956  -0.51517  -0.49308  -0.48032  -0.43089
 Alpha  occ. eigenvalues --   -0.42132
 Alpha virt. eigenvalues --    0.03690   0.04688   0.05468   0.05984   0.07475
 Alpha virt. eigenvalues --    0.08814   0.08926   0.09206   0.11330   0.12291
 Alpha virt. eigenvalues --    0.12740   0.13580   0.14578   0.15204   0.16544

  Beta  occ. eigenvalues --  -20.62381 -20.58176 -20.56761 -11.42373 -11.30569
  Beta  occ. eigenvalues --  -11.28111 -11.24814 -11.23285  -1.48918  -1.38738
  Beta  occ. eigenvalues --   -1.23065  -1.07829  -1.04572  -0.93371  -0.84370
  Beta  occ. eigenvalues --   -0.77249  -0.73510  -0.70238  -0.67168  -0.64119
  Beta  occ. eigenvalues --   -0.62425  -0.59143  -0.55565  -0.54893  -0.51421
  Beta  occ. eigenvalues --   -0.50559  -0.48592  -0.47218  -0.43661  -0.42684
  Beta virt. eigenvalues --    0.03663   0.04631   0.05410   0.05743   0.07396
  Beta virt. eigenvalues --    0.07620   0.08587   0.08958   0.10455   0.11991
  Beta virt. eigenvalues --    0.12710   0.13015   0.13825   0.14310   0.15088

 Mulliken charges and spin densities:
               1          2
     1  O   -0.247299   0.952894
     2  H    0.261448  -0.033395
     3  C   -2.766943  -0.711478
     4  H    0.194818   0.057389
     5  C    2.558038   0.692025
     6  C    0.122434  -0.024670
     7  O   -0.273463   0.069217
     8  O   -0.116711  -0.004181
     9  C   -0.186202   0.000708
    10  C   -0.348503   0.001170
    11  H    0.167479   0.000120
    12  H    0.180847  -0.000078
    13  H    0.136521   0.000156
    14  H    0.143404  -0.000048
    15  H    0.174132   0.000172
 Sum of Mulliken charges =  -0.00000   1.00000

 Dipole moment (field-independent basis, Debye):
    X=             -1.2789    Y=             -2.0721    Z=             -0.2865  Tot=              2.4518
 Quadrupole moment (field-independent basis, Debye-Ang):
   XX=            -42.4831   YY=            -52.3335   ZZ=            -47.4323
   XY=              7.7093   XZ=              1.6501   YZ=              1.0474

 \PMP3-0=-419.2825616\MP4SDQ=-419.2998066\CCSD=-419.3026581\CCSD(T)=-41
 Normal termination of Gaussian 16 at Wed Aug  6 02:26:27 2025.
