 Gaussian 16, Revision A.03,
 Gaussian 16:  ES64L-G16RevA.03 25-Dec-2016

 -------------------
 # freq 6-31+g m062x
 -------------------

 -------------------
 Title Card Required
 -------------------
 Symbolic Z-matrix:
 Charge =  0 Multiplicity = 2

                         Standard orientation:
 ---------------------------------------------------------------------
 Center     Atomic      Atomic             Coordinates (Angstroms)
 Number     Number       Type             X           Y           Z
 ---------------------------------------------------------------------
      1          8           0        2.777459   -1.369534    0.025377
      2          1           0        1.868246   -1.647121   -0.169150
      3          6           0        2.547331    0.513261    0.245740
      4          1           0        3.578297    0.732756    0.433960
      5          6           0        1.357055    0.795164    0.101428
      6          6           0       -0.081133    0.783875   -0.116565
      7          8           0       -0.778300    1.757684   -0.081972
      8          8           0       -0.498182   -0.462184   -0.363457
      9          6           0       -1.917973   -0.626652   -0.583079
     10          6           0       -2.671378   -0.651804    0.731544
     11          1           0       -1.994053   -1.574766   -1.112053
     12          1           0       -2.263603    0.180458   -1.229617
     13          1           0       -3.727905   -0.849828    0.541288
     14          1           0       -2.283514   -1.439706    1.378760
     15          1           0       -2.588691    0.307411    1.242819
 ---------------------------------------------------------------------

 SCF Done:  E(UM062X) =  -419.959909821     A.U. after   21 cycles

 The electronic state is 2-A.
 Alpha  occ. eigenvalues --  -19.72252 -19.67775 -19.67092 -10.74414 -10.63257
 Alpha  occ. eigenvalues --  -10.62771 -10.61124 -10.55563  -1.29414  -1.20169
 Alpha  occ. eigenvalues --   -1.11676  -0.93402  -0.89232  -0.80020  -0.72907
 Alpha  occ. eigenvalues --   -0.66048  -0.63177  -0.59929  -0.58249  -0.55365
 Alpha  occ. eigenvalues --   -0.52439  -0.50804  -0.49083  -0.48207  -0.46392
 Alpha  occ. eigenvalues --   -0.43372  -0.41873  -0.40254  -0.39641  -0.36977
 Alpha  occ. eigenvalues --   -0.32959
 Alpha virt. eigenvalues --   -0.03107   0.01351   0.02834   0.03010   0.03613
 Alpha virt. eigenvalues --    0.04297   0.05513   0.06207   0.07135   0.07675
 Alpha virt. eigenvalues --    0.08055   0.08395   0.08845   0.10846   0.11790

  Beta  occ. eigenvalues --  -19.72224 -19.67712 -19.65897 -10.74455 -10.63400
  Beta  occ. eigenvalues --  -10.62765 -10.60697 -10.55563  -1.29308  -1.20020
  Beta  occ. eigenvalues --   -1.07372  -0.92339  -0.88712  -0.79857  -0.72472
  Beta  occ. eigenvalues --   -0.65935  -0.62744  -0.59740  -0.58011  -0.55190
  Beta  occ. eigenvalues --   -0.50859  -0.50003  -0.48095  -0.46562  -0.43278
  Beta  occ. eigenvalues --   -0.41043  -0.40664  -0.39828  -0.38927  -0.34876
  Beta virt. eigenvalues --   -0.10102  -0.03109   0.01380   0.02806   0.02993
  Beta virt. eigenvalues --    0.03923   0.04421   0.06163   0.06528   0.07103
  Beta virt. eigenvalues --    0.07737   0.08110   0.08567   0.09173   0.11095

 Mulliken charges and spin densities:
               1          2
     1  O   -0.519070   0.633079
     2  H    0.419643  -0.021009
     3  C   -0.213659  -0.258207
     4  H    0.287374   0.028078
     5  C    0.531981   0.587773
     6  C   -0.156987   0.012958
     7  O   -0.369441   0.016419
     8  O   -0.282811  -0.001079
     9  C   -0.257554  -0.000858
    10  C   -0.571091   0.002277
    11  H    0.224509   0.000377
    12  H    0.236916  -0.000077
    13  H    0.212053   0.000177
    14  H    0.221629   0.000032
    15  H    0.236507   0.000059
 Sum of Mulliken charges =  -0.00000   1.00000

 Dipole moment (field-independent basis, Debye):
    X=             -2.2321    Y=             -0.7710    Z=             -0.2289  Tot=              2.3726
 Quadrupole moment (field-independent basis, Debye-Ang):
   XX=            -45.5132   YY=            -53.4142   ZZ=            -47.6204
   XY=             11.2786   XZ=              1.7612   YZ=              1.1108

  Exact polarizability:  91.930 -11.482  79.864   2.921   2.263  46.133
 Approx polarizability:  99.050 -20.509  92.373   5.034   2.761  48.358

 ******    4 imaginary frequencies (negative Signs) ******

                      1                      2                      3
                      A                      A                      A
 Frequencies --   -792.1981              -400.7088               -95.9490
 Red. masses --     10.8659                 1.0650                 7.5639
 Frc consts  --      4.0178                 0.1008                 0.0410
 IR Inten    --     55.7450               137.9429                 0.3515

                      4                      5                      6
                      A                      A                      A
 Frequencies --    -63.4983                35.2785               110.8211
 Red. masses --      4.8580                 2.8369                 4.0731
 Frc consts  --      0.0115                 0.0021                 0.0295
 IR Inten    --      1.5685                 1.8632                15.1145

                      7                      8                      9
                      A                      A                      A
 Frequencies --    174.5510               242.9559               252.0849
 Red. masses --      1.2369                 3.8450                 4.1693
 Frc consts  --      0.0222                 0.1337                 0.1561
 IR Inten    --      3.2298                 5.7331                 6.1344

                     10                     11                     12
                      A                      A                      A
 Frequencies --    314.2358               415.0399               566.2073
 Red. masses --      3.2163                 3.8315                 5.9902
 Frc consts  --      0.1871                 0.3889                 1.1315
 IR Inten    --      9.1844                 3.3641                 5.3144

                     13                     14                     15
                      A                      A                      A
 Frequencies --    592.1748               761.9198               777.1131
 Red. masses --      5.5073                 7.8689                 1.1897
 Frc consts  --      1.1379                 2.6914                 0.4233
 IR Inten    --     10.3707                42.9081               201.9994

                     16                     17                     18
                      A                      A                      A
 Frequencies --    806.1999               817.4330               891.6650
 Red. masses --      1.4034                 1.2728                 2.6136
 Frc consts  --      0.5374                 0.5011                 1.2243
 IR Inten    --     27.9331                 0.3872                10.7781

                     19                     20                     21
                      A                      A                      A
 Frequencies --    931.4204               947.4245              1105.3747
 Red. masses --      1.2460                 2.2322                 4.2074
 Frc consts  --      0.6369                 1.1805                 3.0289
 IR Inten    --      6.7737                 4.8452                 6.4613

                     22                     23                     24
                      A                      A                      A
 Frequencies --   1155.3421              1226.5859              1305.2676
 Red. masses --      2.0333                 1.7555                 3.6549
 Frc consts  --      1.5991                 1.5561                 3.6688
 IR Inten    --     18.1109                10.0214               460.0276

                     25                     26                     27
                      A                      A                      A
 Frequencies --   1363.5157              1440.8558              1458.0832
 Red. masses --      1.3040                 1.3124                 1.2505
 Frc consts  --      1.4284                 1.6053                 1.5664
 IR Inten    --    108.3567                12.7604                19.0595

                     28                     29                     30
                      A                      A                      A
 Frequencies --   1528.6179              1537.4330              1545.4110
 Red. masses --      1.0414                 1.0666                 1.0727
 Frc consts  --      1.4338                 1.4854                 1.5095
 IR Inten    --     16.4905                 3.3619                22.4003

                     31                     32                     33
                      A                      A                      A
 Frequencies --   1908.5754              2081.1542              3108.2593
 Red. masses --     12.1575                 6.6605                 1.0352
 Frc consts  --     26.0924                16.9968                 5.8924
 IR Inten    --    349.1101                99.9102                11.3413

                     34                     35                     36
                      A                      A                      A
 Frequencies --   3140.3540              3188.5897              3192.5744
 Red. masses --      1.0600                 1.1006                 1.1025
 Frc consts  --      6.1591                 6.5928                 6.6210
 IR Inten    --     17.3784                12.4070                 5.2868

                     37                     38                     39
                      A                      A                      A
 Frequencies --   3213.3282              3443.4060              3819.3020
 Red. masses --      1.1057                 1.1384                 1.0678
 Frc consts  --      6.7265                 7.9531                 9.1773
 IR Inten    --     13.7052                48.1289                23.4562

 - Thermochemistry -
 -------------------
 Temperature   298.150 Kelvin.  Pressure   1.00000 Atm.
 Atom     1 has atomic number  8 and mass  15.99491

 Molecular mass:   115.03952 amu.
 Principal axes and moments of inertia in atomic units:
                           1         2         3
     Eigenvalues --   498.465931566.702441918.91240
           X            0.99962   0.02716  -0.00553
           Y           -0.02716   0.99963  -0.00023
           Z            0.00552   0.00038   0.99998
 This molecule is an asymmetric top.
 Rotational symmetry number  1.
 Warning -- assumption of classical behavior for rotation
           may cause significant error
 Rotational temperatures (Kelvin)      0.17376     0.05528     0.04514
 Rotational constants (GHZ):           3.62059     1.15194     0.94050
    4 imaginary frequencies ignored.
 Zero-point vibrational energy     295469.0 (Joules/Mol)
                                   70.61878 (Kcal/Mol)
 Warning -- explicit consideration of   9 degrees of freedom as
           vibrations may cause significant error
 Vibrational temperatures:     50.76   159.45   251.14   349.56   362.69
          (Kelvin)            452.12   597.15   814.65   852.01  1096.23
                             1118.09  1159.94  1176.10  1282.91  1340.11
                             1363.13  1590.39  1662.28  1764.78  1877.99
                             1961.79  2073.07  2097.86  2199.34  2212.02
                             2223.50  2746.01  2994.32  4472.09  4518.27
                             4587.67  4593.40  4623.26  4954.29  5495.12

 Zero-point correction=                           0.112538 (Hartree/Particle)
 Thermal correction to Energy=                    0.120154
 Thermal correction to Enthalpy=                  0.121098
 Thermal correction to Gibbs Free Energy=         0.078487
 Sum of electronic and zero-point Energies=           -419.847372
 Sum of electronic and thermal Energies=              -419.839756
 Sum of electronic and thermal Enthalpies=            -419.838812
 Sum of electronic and thermal Free Energies=         -419.881423

                     E (Thermal)             CV                S
                      KCal/Mol        Cal/Mol-Kelvin    Cal/Mol-Kelvin
 Total                   75.398             25.972             89.682
 Electronic               0.000              0.000              1.377
 Translational            0.889              2.981             40.136
 Rotational               0.889              2.981             28.795
 Vibrational             73.620             20.010             19.373
 Vibration     1          0.594              1.982              5.508
 Vibration     2          0.607              1.941              3.254
 Vibration     3          0.627              1.874              2.386
 Vibration     4          0.659              1.774              1.781
 Vibration     5          0.664              1.759              1.716
 Vibration     6          0.702              1.646              1.340
 Vibration     7          0.778              1.438              0.909
 Vibration     8          0.922              1.104              0.512
 Vibration     9          0.950              1.048              0.463

 Normal termination of Gaussian 16 at Fri Jun 20 14:12:58 2025.
