 Gaussian 16, Revision A.03,
 Gaussian 16:  ES64L-G16RevA.03 25-Dec-2016

 --------------------------
 # ccsd(t)/6-311++g(d,p) sp
 --------------------------

 -------------------
 Title Card Required
 -------------------
 Symbolic Z-matrix:
 Charge =  0 Multiplicity = 2

                         Standard orientation:
 ---------------------------------------------------------------------
 Center     Atomic      Atomic             Coordinates (Angstroms)
 Number     Number       Type             X           Y           Z
 ---------------------------------------------------------------------
      1          8           0        2.772944   -1.322504    0.026582
      2          1           0        1.871949   -1.618595   -0.169990
      3          6           0        2.552783    0.426625    0.236754
      4          1           0        3.556461    0.758670    0.437612
      5          6           0        1.358084    0.805886    0.106160
      6          6           0       -0.079459    0.782902   -0.113652
      7          8           0       -0.776424    1.757954   -0.075365
      8          8           0       -0.498389   -0.461189   -0.365283
      9          6           0       -1.918501   -0.623402   -0.585526
     10          6           0       -2.671799   -0.652609    0.729044
     11          1           0       -1.995591   -1.569472   -1.118000
     12          1           0       -2.263109    0.186556   -1.229009
     13          1           0       -3.728525   -0.848947    0.538091
     14          1           0       -2.284707   -1.443337    1.373288
     15          1           0       -2.588188    0.304637    1.243850
 ---------------------------------------------------------------------

 SCF Done:  E(UHF) =  -417.986503006     A.U. after   29 cycles
 E2 =    -0.1257180044D+01 EUMP2 =    -0.41924368304956D+03
 CCSD(T)= -0.41936717330D+03

 The electronic state is 2-A.
 Alpha  occ. eigenvalues --  -20.62545 -20.60072 -20.57552 -11.42081 -11.30706
 Alpha  occ. eigenvalues --  -11.30161 -11.28460 -11.23387  -1.49445  -1.39765
 Alpha  occ. eigenvalues --   -1.35373  -1.10786  -1.04836  -0.92915  -0.85238
 Alpha  occ. eigenvalues --   -0.77781  -0.73953  -0.70976  -0.67802  -0.65064
 Alpha  occ. eigenvalues --   -0.63826  -0.61578  -0.59704  -0.56740  -0.55110
 Alpha  occ. eigenvalues --   -0.53227  -0.51665  -0.49641  -0.48525  -0.43792
 Alpha  occ. eigenvalues --   -0.42904
 Alpha virt. eigenvalues --    0.03725   0.04845   0.05445   0.05987   0.07411
 Alpha virt. eigenvalues --    0.08861   0.08885   0.09174   0.11220   0.12143
 Alpha virt. eigenvalues --    0.12634   0.13564   0.14714   0.15073   0.16908

  Beta  occ. eigenvalues --  -20.62476 -20.57448 -20.56919 -11.42581 -11.32519
  Beta  occ. eigenvalues --  -11.30683 -11.25335 -11.23387  -1.49002  -1.38672
  Beta  occ. eigenvalues --   -1.26939  -1.07274  -1.04387  -0.93570  -0.84578
  Beta  occ. eigenvalues --   -0.77420  -0.73417  -0.70197  -0.67222  -0.64188
  Beta  occ. eigenvalues --   -0.61648  -0.59103  -0.55525  -0.54968  -0.52211
  Beta  occ. eigenvalues --   -0.51411  -0.48703  -0.47758  -0.46938  -0.41952
  Beta virt. eigenvalues --    0.03720   0.04825   0.05081   0.05494   0.06640
  Beta virt. eigenvalues --    0.07424   0.08169   0.08887   0.09888   0.11644
  Beta virt. eigenvalues --    0.12430   0.13432   0.13692   0.14156   0.15099

 Mulliken charges and spin densities:
               1          2
     1  O   -0.296394   0.616274
     2  H    0.262025  -0.019905
     3  C   -1.638256  -1.127804
     4  H    0.207254   0.087153
     5  C    1.662720   1.331942
     6  C   -0.079008  -0.019508
     7  O   -0.278403   0.128642
     8  O   -0.124478  -0.003674
     9  C   -0.170569   0.003951
    10  C   -0.346688   0.001938
    11  H    0.167421   0.000531
    12  H    0.181204  -0.000354
    13  H    0.135476   0.000394
    14  H    0.144328  -0.000081
    15  H    0.173369   0.000499
 Sum of Mulliken charges =  -0.00000   1.00000

 Dipole moment (field-independent basis, Debye):
    X=             -1.6675    Y=             -1.1908    Z=             -0.2389  Tot=              2.0630
 Quadrupole moment (field-independent basis, Debye-Ang):
   XX=            -44.7332   YY=            -52.9067   ZZ=            -47.2522
   XY=             10.0755   XZ=              1.7772   YZ=              1.0544

 3-0=-419.2951333\MP4SDQ=-419.3027246\CCSD=-419.311995\CCSD(T)=-419.367
 Normal termination of Gaussian 16 at Wed Aug  6 00:59:57 2025.
