 Gaussian 16, Revision A.03,
 Gaussian 16:  ES64L-G16RevA.03 25-Dec-2016

 --------------------------
 # freq 6-311++g(d,p) m062x
 --------------------------

 -------------------
 Title Card Required
 -------------------
 Symbolic Z-matrix:
 Charge =  0 Multiplicity = 2

                         Standard orientation:
 ---------------------------------------------------------------------
 Center     Atomic      Atomic             Coordinates (Angstroms)
 Number     Number       Type             X           Y           Z
 ---------------------------------------------------------------------
      1          8           0        2.786166   -1.444803    0.024554
      2          1           0        1.862963   -1.682822   -0.165941
      3          6           0        2.541211    0.641399    0.257829
      4          1           0        3.591348    0.706964    0.426972
      5          6           0        1.354834    0.790291    0.095413
      6          6           0       -0.082338    0.784488   -0.121237
      7          8           0       -0.782195    1.755936   -0.093021
      8          8           0       -0.498542   -0.465216   -0.360826
      9          6           0       -1.916936   -0.632520   -0.579148
     10          6           0       -2.670624   -0.650926    0.735583
     11          1           0       -1.993025   -1.583816   -1.102642
     12          1           0       -2.264282    0.170270   -1.230224
     13          1           0       -3.726948   -0.851586    0.546911
     14          1           0       -2.281491   -1.434229    1.387685
     15          1           0       -2.588881    0.311487    1.240945
 ---------------------------------------------------------------------

 SCF Done:  E(UM062X) =  -420.205824597     A.U. after   23 cycles

 The electronic state is 2-A.
 Alpha  occ. eigenvalues --  -19.69489 -19.66055 -19.64267 -10.71670 -10.61517
 Alpha  occ. eigenvalues --  -10.59114 -10.57953 -10.54547  -1.26661  -1.17518
 Alpha  occ. eigenvalues --   -1.12005  -0.91795  -0.88008  -0.79040  -0.71600
 Alpha  occ. eigenvalues --   -0.65521  -0.62415  -0.59549  -0.57462  -0.54692
 Alpha  occ. eigenvalues --   -0.53689  -0.50338  -0.49593  -0.47738  -0.46200
 Alpha  occ. eigenvalues --   -0.43044  -0.42141  -0.40013  -0.39451  -0.37576
 Alpha  occ. eigenvalues --   -0.34727
 Alpha virt. eigenvalues --   -0.02399  -0.00740   0.00785   0.01302   0.01642
 Alpha virt. eigenvalues --    0.02838   0.04649   0.04977   0.05294   0.06091
 Alpha virt. eigenvalues --    0.06569   0.07047   0.08136   0.08920   0.10209

  Beta  occ. eigenvalues --  -19.69480 -19.64567 -19.64238 -10.71686 -10.61515
  Beta  occ. eigenvalues --  -10.59152 -10.57769 -10.54547  -1.26615  -1.17442
  Beta  occ. eigenvalues --   -1.05264  -0.91311  -0.87658  -0.78955  -0.71411
  Beta  occ. eigenvalues --   -0.65446  -0.62059  -0.59440  -0.57362  -0.54521
  Beta  occ. eigenvalues --   -0.51100  -0.50179  -0.47666  -0.46272  -0.42988
  Beta  occ. eigenvalues --   -0.40361  -0.39907  -0.39621  -0.37880  -0.36152
  Beta virt. eigenvalues --   -0.08869  -0.02352  -0.00628   0.00993   0.01346
  Beta virt. eigenvalues --    0.01794   0.02922   0.04923   0.05047   0.05690
  Beta virt. eigenvalues --    0.06479   0.06869   0.07110   0.08332   0.09039

 Mulliken charges and spin densities:
               1          2
     1  O   -0.291015   0.851111
     2  H    0.251736  -0.015094
     3  C   -2.143300  -0.137142
     4  H    0.196374   0.016838
     5  C    2.080586   0.200604
     6  C   -0.072405   0.078380
     7  O   -0.207065   0.006011
     8  O   -0.033399  -0.002668
     9  C   -0.300056   0.001555
    10  C   -0.393851   0.000278
    11  H    0.198994   0.000114
    12  H    0.196730  -0.000095
    13  H    0.167043   0.000107
    14  H    0.165753  -0.000127
    15  H    0.183877   0.000129
 Sum of Mulliken charges =  -0.00000   1.00000

 Dipole moment (field-independent basis, Debye):
    X=             -1.7206    Y=             -1.3842    Z=             -0.2260  Tot=              2.2198
 Quadrupole moment (field-independent basis, Debye-Ang):
   XX=            -43.1188   YY=            -52.1295   ZZ=            -47.4568
   XY=              8.8290   XZ=              1.6362   YZ=              1.0433

  Exact polarizability:  95.040  -7.000  76.367   2.721   1.742  50.221
 Approx polarizability: 104.719 -12.493  86.738   5.452   1.855  57.823

 ******    3 imaginary frequencies (negative Signs) ******

                      1                      2                      3
                      A                      A                      A
 Frequencies --   -270.2354               -62.2646               -18.0678
 Red. masses --     12.9904                 5.9770                 6.3177
 Frc consts  --      0.5589                 0.0137                 0.0012
 IR Inten    --     26.9465                 5.5345                 1.0804

                      4                      5                      6
                      A                      A                      A
 Frequencies --     76.5485               115.4532               196.2081
 Red. masses --      3.3489                 3.4630                 2.1782
 Frc consts  --      0.0116                 0.0272                 0.0494
 IR Inten    --      1.2131                 1.3570                 4.2170

                      7                      8                      9
                      A                      A                      A
 Frequencies --    225.0106               238.8177               262.7551
 Red. masses --      1.1233                 1.6745                 3.9017
 Frc consts  --      0.0335                 0.0563                 0.1587
 IR Inten    --     89.9841                 9.4950                 9.2114

                     10                     11                     12
                      A                      A                      A
 Frequencies --    337.2209               422.9537               574.2281
 Red. masses --      2.9309                 3.8871                 4.5231
 Frc consts  --      0.1964                 0.4097                 0.8787
 IR Inten    --      9.1207                 2.4038                 1.1204

                     13                     14                     15
                      A                      A                      A
 Frequencies --    599.3521               717.7058               777.6441
 Red. masses --      8.7565                 1.0681                 2.4950
 Frc consts  --      1.8533                 0.3242                 0.8890
 IR Inten    --      7.5107               149.7828                 0.4089

                     16                     17                     18
                      A                      A                      A
 Frequencies --    784.5107               796.4576               803.6827
 Red. masses --      2.0625                 1.1402                 1.1883
 Frc consts  --      0.7479                 0.4261                 0.4522
 IR Inten    --     57.4690                36.2302                28.0577

                     19                     20                     21
                      A                      A                      A
 Frequencies --    892.6350               929.5090              1073.6140
 Red. masses --      3.1351                 2.7976                 4.1457
 Frc consts  --      1.4718                 1.4241                 2.8154
 IR Inten    --     16.2387                 4.9411                22.6263

                     22                     23                     24
                      A                      A                      A
 Frequencies --   1127.6620              1202.9788              1265.0592
 Red. masses --      2.0710                 1.7806                 5.4983
 Frc consts  --      1.5516                 1.5182                 5.1844
 IR Inten    --     22.0587                 9.1140               586.3781

                     25                     26                     27
                      A                      A                      A
 Frequencies --   1346.2967              1402.2065              1431.4011
 Red. masses --      1.1589                 1.2552                 1.3560
 Frc consts  --      1.2376                 1.4541                 1.6369
 IR Inten    --     44.1760                16.1970                 8.4119

                     28                     29                     30
                      A                      A                      A
 Frequencies --   1493.5909              1502.8815              1514.9032
 Red. masses --      1.0404                 1.0622                 1.0806
 Frc consts  --      1.3675                 1.4135                 1.4611
 IR Inten    --     11.9949                 1.8344                17.1712

                     31                     32                     33
                      A                      A                      A
 Frequencies --   1849.1022              2200.1600              3075.6336
 Red. masses --     12.0931                 6.0568                 1.0354
 Frc consts  --     24.3617                17.2744                 5.7709
 IR Inten    --    387.2535                82.5125                 9.0850

                     34                     35                     36
                      A                      A                      A
 Frequencies --   3108.5486              3150.8436              3155.6259
 Red. masses --      1.0605                 1.1019                 1.1048
 Frc consts  --      6.0377                 6.4452                 6.4818
 IR Inten    --     16.7809                12.6531                 2.7302

                     37                     38                     39
                      A                      A                      A
 Frequencies --   3175.7539              3474.8260              3781.0667
 Red. masses --      1.1076                 1.1597                 1.0676
 Frc consts  --      6.5813                 8.2499                 8.9927
 IR Inten    --     12.1920                75.5209                29.5632

 - Thermochemistry -
 -------------------
 Temperature   298.150 Kelvin.  Pressure   1.00000 Atm.
 Atom     1 has atomic number  8 and mass  15.99491

 Molecular mass:   115.03952 amu.
 Principal axes and moments of inertia in atomic units:
                           1         2         3
     Eigenvalues --   517.342011568.424521938.88983
           X            0.99961   0.02720  -0.00569
           Y           -0.02720   0.99963  -0.00037
           Z            0.00568   0.00053   0.99998
 This molecule is an asymmetric top.
 Rotational symmetry number  1.
 Warning -- assumption of classical behavior for rotation
           may cause significant error
 Rotational temperatures (Kelvin)      0.16742     0.05522     0.04467
 Rotational constants (GHZ):           3.48849     1.15067     0.93081
    3 imaginary frequencies ignored.
 Zero-point vibrational energy     293580.6 (Joules/Mol)
                                   70.16745 (Kcal/Mol)
 Warning -- explicit consideration of  10 degrees of freedom as
           vibrations may cause significant error
 Vibrational temperatures:    110.14   166.11   282.30   323.74   343.61
          (Kelvin)            378.05   485.19   608.54   826.19   862.33
                             1032.62  1118.86  1128.74  1145.92  1156.32
                             1284.30  1337.36  1544.69  1622.45  1730.82
                             1820.14  1937.02  2017.46  2059.47  2148.94
                             2162.31  2179.61  2660.45  3165.54  4425.15
                             4472.51  4533.36  4540.24  4569.20  4999.50
                             5440.11

 Zero-point correction=                           0.111819 (Hartree/Particle)
 Thermal correction to Energy=                    0.119849
 Thermal correction to Enthalpy=                  0.120793
 Thermal correction to Gibbs Free Energy=         0.078121
 Sum of electronic and zero-point Energies=           -420.094006
 Sum of electronic and thermal Energies=              -420.085975
 Sum of electronic and thermal Enthalpies=            -420.085031
 Sum of electronic and thermal Free Energies=         -420.127704

                     E (Thermal)             CV                S
                      KCal/Mol        Cal/Mol-Kelvin    Cal/Mol-Kelvin
 Total                   75.207             28.113             89.812
 Electronic               0.000              0.000              1.377
 Translational            0.889              2.981             40.136
 Rotational               0.889              2.981             28.844
 Vibrational             73.429             22.152             19.455
 Vibration     1          0.599              1.965              3.977
 Vibration     2          0.608              1.937              3.175
 Vibration     3          0.636              1.845              2.168
 Vibration     4          0.650              1.803              1.918
 Vibration     5          0.657              1.781              1.812
 Vibration     6          0.670              1.741              1.643
 Vibration     7          0.718              1.601              1.225
 Vibration     8          0.785              1.420              0.882
 Vibration     9          0.931              1.087              0.496
 Vibration    10          0.957              1.033              0.451

 1\1\GINC-AJ\Freq\UM062X\6-311++G(d,p)\C5H7O3(2)\AAYUSH\16-Aug-2025\0\\
 # freq 6-311++g(d,p) m062x\\Title Card Required\\0,2\O,2.721221,-1.484
 723,0.029323\H,1.797828,-1.721394,-0.161931\C,2.477934,0.600919,0.2692
 55\H,3.528123,0.665104,0.438606\C,1.291677,0.751278,0.107315\C,-0.1454
 99,0.747315,-0.109353\O,-0.844579,1.719228,-0.078037\O,-0.562702,-0.50
 1284,-0.352929\C,-1.981228,-0.666756,-0.571784\C,-2.734934,-0.688755,0
 .742881\H,-2.058077,-1.616315,-1.098312\H,-2.32793,0.138385,-1.220295\
 H,-3.791418,-0.887967,0.55357\H,-2.34643,-1.474446,1.39248\H,-2.652423

 Normal termination of Gaussian 16 at Sat Aug 16 18:56:04 2025.
