 Gaussian 16, Revision A.03,
 Gaussian 16:  ES64L-G16RevA.03 25-Dec-2016

 -------------------
 # freq 6-31+g m062x
 -------------------

 -------------------
 Title Card Required
 -------------------
 Symbolic Z-matrix:
 Charge =  0 Multiplicity = 2

                         Standard orientation:
 ---------------------------------------------------------------------
 Center     Atomic      Atomic             Coordinates (Angstroms)
 Number     Number       Type             X           Y           Z
 ---------------------------------------------------------------------
      1          8           0        2.789544   -1.472563    0.024453
      2          1           0        1.860605   -1.690498   -0.164111
      3          6           0        2.540496    0.682059    0.261252
      4          1           0        3.592243    0.715318    0.426019
      5          6           0        1.353689    0.792293    0.093661
      6          6           0       -0.082989    0.784257   -0.123039
      7          8           0       -0.783842    1.754991   -0.097119
      8          8           0       -0.498614   -0.466522   -0.359883
      9          6           0       -1.916760   -0.634754   -0.577707
     10          6           0       -2.670393   -0.650556    0.737124
     11          1           0       -1.992878   -1.587159   -1.099218
     12          1           0       -2.264491    0.166573   -1.230384
     13          1           0       -3.726684   -0.851969    0.549057
     14          1           0       -2.280928   -1.432287    1.390928
     15          1           0       -2.588832    0.312987    1.240348
 ---------------------------------------------------------------------

 SCF Done:  E(UM062X) =  -419.962092908     A.U. after   23 cycles

 The electronic state is 2-A.
 Alpha  occ. eigenvalues --  -19.71932 -19.68983 -19.67394 -10.73981 -10.62565
 Alpha  occ. eigenvalues --  -10.60241 -10.59413 -10.55415  -1.29003  -1.19766
 Alpha  occ. eigenvalues --   -1.13381  -0.92414  -0.88666  -0.79571  -0.72144
 Alpha  occ. eigenvalues --   -0.65705  -0.62461  -0.59566  -0.57857  -0.55079
 Alpha  occ. eigenvalues --   -0.53697  -0.50575  -0.49559  -0.47995  -0.46314
 Alpha  occ. eigenvalues --   -0.43149  -0.42179  -0.39978  -0.39370  -0.37833
 Alpha  occ. eigenvalues --   -0.35405
 Alpha virt. eigenvalues --   -0.02455   0.01474   0.02669   0.03062   0.03875
 Alpha virt. eigenvalues --    0.04384   0.05438   0.06317   0.07163   0.07756
 Alpha virt. eigenvalues --    0.08372   0.08525   0.08770   0.11174   0.12051

  Beta  occ. eigenvalues --  -19.71926 -19.67388 -19.67371 -10.73996 -10.62563
  Beta  occ. eigenvalues --  -10.60268 -10.59261 -10.55415  -1.28969  -1.19715
  Beta  occ. eigenvalues --   -1.06431  -0.92058  -0.88418  -0.79498  -0.71982
  Beta  occ. eigenvalues --   -0.65657  -0.62157  -0.59495  -0.57770  -0.54988
  Beta  occ. eigenvalues --   -0.50881  -0.50345  -0.47940  -0.46367  -0.43102
  Beta  occ. eigenvalues --   -0.40447  -0.39767  -0.39502  -0.37965  -0.36445
  Beta virt. eigenvalues --   -0.08658  -0.02438   0.01517   0.02844   0.03090
  Beta virt. eigenvalues --    0.04020   0.04481   0.05824   0.06442   0.07269
  Beta virt. eigenvalues --    0.07876   0.08367   0.08667   0.08917   0.11233

 Mulliken charges and spin densities:
               1          2
     1  O   -0.465948   0.904515
     2  H    0.425757  -0.032427
     3  C   -0.106986  -0.145375
     4  H    0.347878   0.009215
     5  C    0.473802   0.227313
     6  C   -0.346617   0.032015
     7  O   -0.355952   0.006075
     8  O   -0.269242  -0.001933
     9  C   -0.262312  -0.000230
    10  C   -0.567773   0.000599
    11  H    0.222026   0.000169
    12  H    0.236161   0.000009
    13  H    0.211487   0.000039
    14  H    0.220121   0.000005
    15  H    0.237600   0.000011
 Sum of Mulliken charges =  -0.00000   1.00000

 Dipole moment (field-independent basis, Debye):
    X=             -1.9127    Y=             -1.4739    Z=             -0.2749  Tot=              2.4303
 Quadrupole moment (field-independent basis, Debye-Ang):
   XX=            -44.4038   YY=            -52.7897   ZZ=            -47.6652
   XY=              9.3517   XZ=              1.5376   YZ=              1.1098

  Exact polarizability:  89.820  -5.355  70.109   3.546   1.557  45.960
 Approx polarizability:  98.863 -12.001  77.989   6.321   1.905  48.030

 ******    4 imaginary frequencies (negative Signs) ******

                      1                      2                      3
                      A                      A                      A
 Frequencies --   -414.8183              -123.6078              -110.8654
 Red. masses --      1.0717                 6.6741                 5.8032
 Frc consts  --      0.1087                 0.0601                 0.0420
 IR Inten    --    153.4976                 1.9518                 3.7923

                      4                      5                      6
                      A                      A                      A
 Frequencies --    -14.1308                38.9478               122.9947
 Red. masses --      3.5775                 2.6811                 5.6278
 Frc consts  --      0.0004                 0.0024                 0.0502
 IR Inten    --      8.1548                 0.9382                 0.8422

                      7                      8                      9
                      A                      A                      A
 Frequencies --    154.9768               192.8117               240.1963
 Red. masses --      2.9203                 1.6756                 4.0099
 Frc consts  --      0.0413                 0.0367                 0.1363
 IR Inten    --      5.0249                 1.5028                 1.1834

                     10                     11                     12
                      A                      A                      A
 Frequencies --    313.9183               417.8690               479.0047
 Red. masses --      2.9972                 3.6622                 1.1333
 Frc consts  --      0.1740                 0.3768                 0.1532
 IR Inten    --     12.0122                 7.4427               170.3012

                     13                     14                     15
                      A                      A                      A
 Frequencies --    584.7484               615.8339               775.1519
 Red. masses --      4.1453                 8.8954                 3.4716
 Frc consts  --      0.8351                 1.9877                 1.2290
 IR Inten    --     11.3707                10.9849                65.1075

                     16                     17                     18
                      A                      A                      A
 Frequencies --    802.8345               816.3209               856.1317
 Red. masses --      1.1330                 1.2798                 1.7929
 Frc consts  --      0.4303                 0.5025                 0.7743
 IR Inten    --     68.5564                15.3486                13.4221

                     19                     20                     21
                      A                      A                      A
 Frequencies --    897.0596               947.0118              1110.7731
 Red. masses --      3.2415                 2.6053                 4.2529
 Frc consts  --      1.5369                 1.3766                 3.0916
 IR Inten    --     19.0439                 4.7637                 6.4518

                     22                     23                     24
                      A                      A                      A
 Frequencies --   1156.8838              1227.2321              1311.1521
 Red. masses --      2.0645                 1.7617                 3.3401
 Frc consts  --      1.6279                 1.5633                 3.3832
 IR Inten    --     18.3462                 7.4938               465.4471

                     25                     26                     27
                      A                      A                      A
 Frequencies --   1365.1877              1441.4797              1457.5763
 Red. masses --      1.3441                 1.3201                 1.2539
 Frc consts  --      1.4759                 1.6162                 1.5696
 IR Inten    --    134.4304                16.2624                18.6360

                     28                     29                     30
                      A                      A                      A
 Frequencies --   1528.3973              1537.0503              1545.1546
 Red. masses --      1.0416                 1.0682                 1.0719
 Frc consts  --      1.4336                 1.4869                 1.5078
 IR Inten    --     15.4292                 4.1535                22.4375

                     31                     32                     33
                      A                      A                      A
 Frequencies --   1917.3455              2289.6907              3108.1253
 Red. masses --     12.3257                 5.7641                 1.0352
 Frc consts  --     26.6969                17.8049                 5.8920
 IR Inten    --    336.6567                84.3666                11.9088

                     34                     35                     36
                      A                      A                      A
 Frequencies --   3139.2535              3187.6908              3192.1104
 Red. masses --      1.0599                 1.1010                 1.1023
 Frc consts  --      6.1540                 6.5916                 6.6179
 IR Inten    --     18.5373                11.5797                 6.8914

                     37                     38                     39
                      A                      A                      A
 Frequencies --   3212.4535              3528.0413              3792.2416
 Red. masses --      1.1054                 1.1708                 1.0675
 Frc consts  --      6.7214                 8.5861                 9.0450
 IR Inten    --     15.1283                69.8133                10.9212

 - Thermochemistry -
 -------------------
 Temperature   298.150 Kelvin.  Pressure   1.00000 Atm.
 Atom     1 has atomic number  8 and mass  15.99491

 Molecular mass:   115.03952 amu.
 Principal axes and moments of inertia in atomic units:
                           1         2         3
     Eigenvalues --   524.634661569.387531946.91460
           X            0.99961   0.02745  -0.00573
           Y           -0.02746   0.99962  -0.00036
           Z            0.00572   0.00052   0.99998
 This molecule is an asymmetric top.
 Rotational symmetry number  1.
 Warning -- assumption of classical behavior for rotation
           may cause significant error
 Rotational temperatures (Kelvin)      0.16509     0.05519     0.04449
 Rotational constants (GHZ):           3.44000     1.14997     0.92698
    4 imaginary frequencies ignored.
 Zero-point vibrational energy     294901.3 (Joules/Mol)
                                   70.48311 (Kcal/Mol)
 Warning -- explicit consideration of  10 degrees of freedom as
           vibrations may cause significant error
 Vibrational temperatures:     56.04   176.96   222.98   277.41   345.59
          (Kelvin)            451.66   601.22   689.18   841.32   886.05
                             1115.27  1155.10  1174.50  1231.78  1290.67
                             1362.54  1598.15  1664.50  1765.71  1886.46
                             1964.20  2073.97  2097.13  2199.02  2211.47
                             2223.13  2758.63  3294.35  4471.90  4516.69
                             4586.38  4592.73  4622.00  5076.06  5456.19

 Zero-point correction=                           0.112322 (Hartree/Particle)
 Thermal correction to Energy=                    0.120172
 Thermal correction to Enthalpy=                  0.121116
 Thermal correction to Gibbs Free Energy=         0.078111
 Sum of electronic and zero-point Energies=           -419.849771
 Sum of electronic and thermal Energies=              -419.841921
 Sum of electronic and thermal Enthalpies=            -419.840977
 Sum of electronic and thermal Free Energies=         -419.883982

                     E (Thermal)             CV                S
                      KCal/Mol        Cal/Mol-Kelvin    Cal/Mol-Kelvin
 Total                   75.409             26.657             90.512
 Electronic               0.000              0.000              1.377
 Translational            0.889              2.981             40.136
 Rotational               0.889              2.981             28.862
 Vibrational             73.631             20.696             20.136
 Vibration     1          0.594              1.981              5.312
 Vibration     2          0.610              1.930              3.053
 Vibration     3          0.620              1.897              2.610
 Vibration     4          0.635              1.850              2.201
 Vibration     5          0.657              1.779              1.801
 Vibration     6          0.702              1.647              1.342
 Vibration     7          0.781              1.431              0.899
 Vibration     8          0.835              1.297              0.713
 Vibration     9          0.942              1.064              0.477
 Vibration    10          0.975              0.998              0.423

 Normal termination of Gaussian 16 at Fri Jun 20 14:12:10 2025.
