 Gaussian 16, Revision A.03,
 Gaussian 16:  ES64L-G16RevA.03 25-Dec-2016

 --------------------------
 # ccsd(t)/6-311++g(d,p) sp
 --------------------------

 -------------------
 Title Card Required
 -------------------
 Symbolic Z-matrix:
 Charge =  0 Multiplicity = 2

                         Standard orientation:
 ---------------------------------------------------------------------
 Center     Atomic      Atomic             Coordinates (Angstroms)
 Number     Number       Type             X           Y           Z
 ---------------------------------------------------------------------
      1          8           0        2.769299   -1.286047    0.027989
      2          1           0        1.875870   -1.600405   -0.170449
      3          6           0        2.554678    0.362616    0.229523
      4          1           0        3.534702    0.765778    0.437958
      5          6           0        1.361249    0.814572    0.110287
      6          6           0       -0.077108    0.782472   -0.111284
      7          8           0       -0.775190    1.757810   -0.070556
      8          8           0       -0.498664   -0.460800   -0.366756
      9          6           0       -1.918696   -0.620967   -0.587412
     10          6           0       -2.672133   -0.653200    0.727040
     11          1           0       -1.997116   -1.565498   -1.122568
     12          1           0       -2.262668    0.191150   -1.228506
     13          1           0       -3.729038   -0.848318    0.535688
     14          1           0       -2.285596   -1.445972    1.369167
     15          1           0       -2.587657    0.302599    1.244369
 ---------------------------------------------------------------------

 SCF Done:  E(UHF) =  -417.999056753     A.U. after   30 cycles
 E2 =    -0.1264362470D+01 EUMP2 =    -0.41926341922302D+03
 CCSD(T)= -0.41938045901D+03

 The electronic state is 2-A.
 Alpha  occ. eigenvalues --  -20.62539 -20.59379 -20.57550 -11.42004 -11.31965
 Alpha  occ. eigenvalues --  -11.30702 -11.28962 -11.23382  -1.49407  -1.39728
 Alpha  occ. eigenvalues --   -1.34632  -1.11023  -1.04882  -0.92998  -0.85546
 Alpha  occ. eigenvalues --   -0.77891  -0.74147  -0.70959  -0.67796  -0.65103
 Alpha  occ. eigenvalues --   -0.63618  -0.60634  -0.59532  -0.56746  -0.55062
 Alpha  occ. eigenvalues --   -0.52903  -0.51623  -0.49588  -0.48533  -0.43590
 Alpha  occ. eigenvalues --   -0.42823
 Alpha virt. eigenvalues --    0.03736   0.04863   0.05445   0.05979   0.07406
 Alpha virt. eigenvalues --    0.08830   0.08863   0.09119   0.11155   0.12078
 Alpha virt. eigenvalues --    0.12598   0.13607   0.14699   0.15032   0.16863

  Beta  occ. eigenvalues --  -20.62459 -20.57716 -20.56892 -11.42510 -11.34076
  Beta  occ. eigenvalues --  -11.30675 -11.25565 -11.23382  -1.48923  -1.38580
  Beta  occ. eigenvalues --   -1.29638  -1.07047  -1.04032  -0.93480  -0.84594
  Beta  occ. eigenvalues --   -0.77437  -0.73479  -0.70119  -0.67169  -0.64219
  Beta  occ. eigenvalues --   -0.61683  -0.59063  -0.55574  -0.54992  -0.53341
  Beta  occ. eigenvalues --   -0.51564  -0.51182  -0.48101  -0.46887  -0.41290
  Beta virt. eigenvalues --    0.03737   0.04796   0.05097   0.05480   0.06568
  Beta virt. eigenvalues --    0.07419   0.08052   0.08887   0.09798   0.11555
  Beta virt. eigenvalues --    0.12330   0.13405   0.13684   0.14168   0.15210

 Mulliken charges and spin densities:
               1          2
     1  O   -0.333032   0.391366
     2  H    0.263259  -0.012621
     3  C   -1.372132  -1.024006
     4  H    0.208585   0.085248
     5  C    1.469380   1.421933
     6  C   -0.113545  -0.003897
     7  O   -0.282042   0.134348
     8  O   -0.124266  -0.001205
     9  C   -0.169230   0.005612
    10  C   -0.348314   0.002005
    11  H    0.166913   0.000700
    12  H    0.181656  -0.000422
    13  H    0.135084   0.000439
    14  H    0.144371  -0.000065
    15  H    0.173313   0.000564
 Sum of Mulliken charges =  -0.00000   1.00000

 Dipole moment (field-independent basis, Debye):
    X=             -1.7122    Y=             -1.0150    Z=             -0.2249  Tot=              2.0032
 Quadrupole moment (field-independent basis, Debye-Ang):
   XX=            -45.3535   YY=            -53.1840   ZZ=            -47.2144
   XY=             10.6243   XZ=              1.7948   YZ=              1.0412

 P3-0=-419.3072028\MP4SDQ=-419.319506\CCSD=-419.3256596\CCSD(T)=-419.38
 Normal termination of Gaussian 16 at Wed Aug  6 01:42:53 2025.
