 Gaussian 16, Revision A.03,
 Gaussian 16:  ES64L-G16RevA.03 25-Dec-2016

 --------------------------
 # freq 6-311++g(d,p) m062x
 --------------------------

 -------------------
 Title Card Required
 -------------------
 Symbolic Z-matrix:
 Charge =  0 Multiplicity = 2

                         Standard orientation:
 ---------------------------------------------------------------------
 Center     Atomic      Atomic             Coordinates (Angstroms)
 Number     Number       Type             X           Y           Z
 ---------------------------------------------------------------------
      1          8           0        2.770578   -1.298367    0.027472
      2          1           0        1.874432   -1.606079   -0.170306
      3          6           0        2.554327    0.383815    0.231980
      4          1           0        3.542279    0.764904    0.438064
      5          6           0        1.359921    0.811740    0.108865
      6          6           0       -0.078015    0.782569   -0.112098
      7          8           0       -0.775597    1.757887   -0.072152
      8          8           0       -0.498571   -0.460906   -0.366255
      9          6           0       -1.918648   -0.621794   -0.586776
     10          6           0       -2.672016   -0.653015    0.727724
     11          1           0       -1.996574   -1.566842   -1.121029
     12          1           0       -2.262825    0.189598   -1.228679
     13          1           0       -3.728857   -0.848542    0.536495
     14          1           0       -2.285292   -1.445110    1.370548
     15          1           0       -2.587848    0.303264    1.244220
 ---------------------------------------------------------------------

 SCF Done:  E(UM062X) =  -420.228235098     A.U. after   19 cycles

 The electronic state is 2-A.
 Alpha  occ. eigenvalues --  -19.69567 -19.64576 -19.64274 -10.71627 -10.64220
 Alpha  occ. eigenvalues --  -10.61562 -10.59866 -10.54581  -1.26738  -1.17558
 Alpha  occ. eigenvalues --   -1.11219  -0.92517  -0.88339  -0.79254  -0.72409
 Alpha  occ. eigenvalues --   -0.65769  -0.62781  -0.59660  -0.57586  -0.54840
 Alpha  occ. eigenvalues --   -0.53298  -0.50460  -0.48995  -0.47746  -0.46114
 Alpha  occ. eigenvalues --   -0.43286  -0.42755  -0.40037  -0.39421  -0.35794
 Alpha  occ. eigenvalues --   -0.31965
 Alpha virt. eigenvalues --   -0.03267  -0.00731   0.00775   0.01250   0.01529
 Alpha virt. eigenvalues --    0.02796   0.04444   0.04948   0.05823   0.06353
 Alpha virt. eigenvalues --    0.07038   0.07409   0.08302   0.09026   0.10442

  Beta  occ. eigenvalues --  -19.69518 -19.64192 -19.64059 -10.71672 -10.64371
  Beta  occ. eigenvalues --  -10.61552 -10.59180 -10.54581  -1.26563  -1.17316
  Beta  occ. eigenvalues --   -1.09331  -0.90913  -0.87303  -0.79057  -0.71692
  Beta  occ. eigenvalues --   -0.65530  -0.62133  -0.59321  -0.57253  -0.54534
  Beta  occ. eigenvalues --   -0.51827  -0.50163  -0.47654  -0.46383  -0.44077
  Beta  occ. eigenvalues --   -0.42991  -0.42279  -0.39764  -0.38821  -0.34248
  Beta virt. eigenvalues --   -0.08545  -0.03013  -0.00692   0.00817   0.01298
  Beta virt. eigenvalues --    0.01739   0.02896   0.04816   0.05035   0.05805
  Beta virt. eigenvalues --    0.06313   0.07020   0.07836   0.08556   0.08960

 Mulliken charges and spin densities:
               1          2
     1  O   -0.324093   0.266221
     2  H    0.255054  -0.002217
     3  C   -1.156675  -0.220944
     4  H    0.202384   0.031573
     5  C    1.250005   0.768654
     6  C   -0.193295   0.128011
     7  O   -0.220164   0.016752
     8  O   -0.041501   0.003641
     9  C   -0.288601   0.004526
    10  C   -0.393494   0.003000
    11  H    0.198048   0.000392
    12  H    0.197217  -0.000299
    13  H    0.166674   0.000439
    14  H    0.165300  -0.000178
    15  H    0.183142   0.000430
 Sum of Mulliken charges =  -0.00000   1.00000

 Dipole moment (field-independent basis, Debye):
    X=             -1.9211    Y=             -0.8068    Z=             -0.1874  Tot=              2.0921
 Quadrupole moment (field-independent basis, Debye-Ang):
   XX=            -45.0045   YY=            -52.7287   ZZ=            -47.4194
   XY=             10.6319   XZ=              1.7505   YZ=              1.0551

  Exact polarizability:  94.336  -7.478  74.573   2.467   1.716  50.228
 Approx polarizability: 100.552 -16.491  94.349   3.998   2.569  58.424

 ******    1 imaginary frequencies (negative Signs) ******

                      1                      2                      3
                      A                      A                      A
 Frequencies --   -524.5946                71.7029               111.5272
 Red. masses --     11.9198                 3.5720                 6.2504
 Frc consts  --      1.9327                 0.0108                 0.0458
 IR Inten    --     81.5529                 0.0455                 0.8174

                      4                      5                      6
                      A                      A                      A
 Frequencies --    114.2007               176.0771               218.9590
 Red. masses --      3.6448                 5.6218                 1.2187
 Frc consts  --      0.0280                 0.1027                 0.0344
 IR Inten    --      1.2527                 2.4279                 2.7776

                      7                      8                      9
                      A                      A                      A
 Frequencies --    285.6105               310.2731               354.0399
 Red. masses --      1.3242                 2.7453                 2.6634
 Frc consts  --      0.0636                 0.1557                 0.1967
 IR Inten    --     35.3561                 8.6110                48.7006

                     10                     11                     12
                      A                      A                      A
 Frequencies --    367.7723               428.7990               561.0927
 Red. masses --      3.0998                 3.9737                 5.5440
 Frc consts  --      0.2470                 0.4305                 1.0283
 IR Inten    --     30.6205                 0.4516                 6.3544

                     13                     14                     15
                      A                      A                      A
 Frequencies --    603.8441               768.2988               800.1048
 Red. masses --      5.4766                 6.2281                 1.2335
 Frc consts  --      1.1766                 2.1660                 0.4652
 IR Inten    --     11.5356                 9.7573                 6.9872

                     16                     17                     18
                      A                      A                      A
 Frequencies --    816.8731               885.7557               921.9520
 Red. masses --      1.5866                 3.0457                 2.7462
 Frc consts  --      0.6238                 1.4079                 1.3753
 IR Inten    --     42.7241                16.7674                 2.8158

                     19                     20                     21
                      A                      A                      A
 Frequencies --   1019.2621              1065.8394              1126.7252
 Red. masses --      1.1058                 3.8409                 2.0551
 Frc consts  --      0.6769                 2.5708                 1.5371
 IR Inten    --     45.2923                23.1927                20.1745

                     22                     23                     24
                      A                      A                      A
 Frequencies --   1187.0092              1203.9430              1262.5703
 Red. masses --      1.2179                 1.6878                 4.7338
 Frc consts  --      1.0111                 1.4414                 4.4461
 IR Inten    --     59.5547                 0.2180               524.2810

                     25                     26                     27
                      A                      A                      A
 Frequencies --   1345.4732              1401.7635              1430.9175
 Red. masses --      1.1557                 1.2520                 1.3515
 Frc consts  --      1.2327                 1.4494                 1.6304
 IR Inten    --     40.9354                12.5827                 9.1720

                     28                     29                     30
                      A                      A                      A
 Frequencies --   1493.6698              1503.2243              1515.0433
 Red. masses --      1.0404                 1.0628                 1.0796
 Frc consts  --      1.3675                 1.4150                 1.4601
 IR Inten    --     12.3703                 1.5979                15.4539

                     31                     32                     33
                      A                      A                      A
 Frequencies --   1820.1975              1863.2301              3075.2851
 Red. masses --     10.5623                 8.8359                 1.0354
 Frc consts  --     20.6179                18.0731                 5.7695
 IR Inten    --    216.3921               324.4192                 8.9525

                     34                     35                     36
                      A                      A                      A
 Frequencies --   3109.0791              3150.6700              3155.5818
 Red. masses --      1.0605                 1.1018                 1.1048
 Frc consts  --      6.0396                 6.4439                 6.4817
 IR Inten    --     16.3758                12.7780                 2.4436

                     37                     38                     39
                      A                      A                      A
 Frequencies --   3176.0188              3293.0511              3826.6432
 Red. masses --      1.1078                 1.1106                 1.0680
 Frc consts  --      6.5836                 7.0960                 9.2138
 IR Inten    --     11.8304                12.4017                46.1754

 - Thermochemistry -
 -------------------
 Temperature   298.150 Kelvin.  Pressure   1.00000 Atm.
 Atom     1 has atomic number  8 and mass  15.99491

 Molecular mass:   115.03952 amu.
 Principal axes and moments of inertia in atomic units:
                           1         2         3
     Eigenvalues --   482.857141565.344081902.50886
           X            0.99961   0.02726  -0.00542
           Y           -0.02726   0.99963  -0.00011
           Z            0.00541   0.00025   0.99999
 This molecule is an asymmetric top.
 Rotational symmetry number  1.
 Warning -- assumption of classical behavior for rotation
           may cause significant error
 Rotational temperatures (Kelvin)      0.17938     0.05533     0.04553
 Rotational constants (GHZ):           3.73763     1.15294     0.94861
    1 imaginary frequencies ignored.
 Zero-point vibrational energy     298002.2 (Joules/Mol)
                                   71.22424 (Kcal/Mol)
 Warning -- explicit consideration of  12 degrees of freedom as
           vibrations may cause significant error
 Vibrational temperatures:    103.16   160.46   164.31   253.34   315.03
          (Kelvin)            410.93   446.41   509.38   529.14   616.95
                              807.29   868.80  1105.41  1151.17  1175.30
                             1274.40  1326.48  1466.49  1533.51  1621.11
                             1707.84  1732.21  1816.56  1935.84  2016.83
                             2058.77  2149.06  2162.80  2179.81  2618.86
                             2680.77  4424.65  4473.27  4533.11  4540.18
                             4569.58  4737.97  5505.69

 Zero-point correction=                           0.113503 (Hartree/Particle)
 Thermal correction to Energy=                    0.122364
 Thermal correction to Enthalpy=                  0.123308
 Thermal correction to Gibbs Free Energy=         0.078925
 Sum of electronic and zero-point Energies=           -420.114732
 Sum of electronic and thermal Energies=              -420.105871
 Sum of electronic and thermal Enthalpies=            -420.104927
 Sum of electronic and thermal Free Energies=         -420.149310

                     E (Thermal)             CV                S
                      KCal/Mol        Cal/Mol-Kelvin    Cal/Mol-Kelvin
 Total                   76.785             30.568             93.413
 Electronic               0.000              0.000              1.377
 Translational            0.889              2.981             40.136
 Rotational               0.889              2.981             28.754
 Vibrational             75.007             24.606             23.145
 Vibration     1          0.598              1.967              4.106
 Vibration     2          0.607              1.940              3.242
 Vibration     3          0.607              1.938              3.196
 Vibration     4          0.628              1.872              2.370
 Vibration     5          0.647              1.812              1.968
 Vibration     6          0.683              1.700              1.500
 Vibration     7          0.699              1.654              1.361
 Vibration     8          0.730              1.567              1.148
 Vibration     9          0.740              1.539              1.089
 Vibration    10          0.790              1.408              0.863
 Vibration    11          0.917              1.115              0.522
 Vibration    12          0.962              1.024              0.443

 1\1\GINC-AJ\Freq\UM062X\6-311++G(d,p)\C5H7O3(2)\AAYUSH\23-Jun-2025\0\\
 # freq 6-311++g(d,p) m062x\\Title Card Required\\0,2\O,2.770578,-1.298
 367,0.027472\H,1.874432,-1.606079,-0.170306\C,2.554327,0.383815,0.2319
 8\H,3.542279,0.764904,0.438064\C,1.359921,0.81174,0.108865\C,-0.078015
 ,0.782569,-0.112098\O,-0.775597,1.757887,-0.072152\O,-0.498571,-0.4609
 06,-0.366255\C,-1.918648,-0.621794,-0.586776\C,-2.672016,-0.653015,0.7
 27724\H,-1.996574,-1.566842,-1.121029\H,-2.262825,0.189598,-1.228679\H
 ,-3.728857,-0.848542,0.536495\H,-2.285292,-1.44511,1.370548\H,-2.58784

 Normal termination of Gaussian 16 at Mon Jun 23 06:29:14 2025.
