 Gaussian 16, Revision A.03,
 Gaussian 16:  ES64L-G16RevA.03 25-Dec-2016

 --------------------------
 # ccsd(t)/6-311++g(d,p) sp
 --------------------------

 -------------------
 Title Card Required
 -------------------
 Symbolic Z-matrix:
 Charge =  0 Multiplicity = 2

                         Standard orientation:
 ---------------------------------------------------------------------
 Center     Atomic      Atomic             Coordinates (Angstroms)
 Number     Number       Type             X           Y           Z
 ---------------------------------------------------------------------
      1          8           0        2.770578   -1.298367    0.027472
      2          1           0        1.874432   -1.606079   -0.170306
      3          6           0        2.554327    0.383815    0.231980
      4          1           0        3.542279    0.764904    0.438064
      5          6           0        1.359921    0.811740    0.108865
      6          6           0       -0.078015    0.782569   -0.112098
      7          8           0       -0.775597    1.757887   -0.072152
      8          8           0       -0.498571   -0.460906   -0.366255
      9          6           0       -1.918648   -0.621794   -0.586776
     10          6           0       -2.672016   -0.653015    0.727724
     11          1           0       -1.996574   -1.566842   -1.121029
     12          1           0       -2.262825    0.189598   -1.228679
     13          1           0       -3.728857   -0.848542    0.536495
     14          1           0       -2.285292   -1.445110    1.370548
     15          1           0       -2.587848    0.303264    1.244220
 ---------------------------------------------------------------------

 SCF Done:  E(UHF) =  -417.994065426     A.U. after   30 cycles
 E2 =    -0.1262254664D+01 EUMP2 =    -0.41925632008940D+03
 CCSD(T)= -0.41937570772D+03

 The electronic state is 2-A.
 Alpha  occ. eigenvalues --  -20.62558 -20.59548 -20.57582 -11.42056 -11.31434
 Alpha  occ. eigenvalues --  -11.30714 -11.28854 -11.23393  -1.49446  -1.39769
 Alpha  occ. eigenvalues --   -1.34760  -1.11000  -1.04887  -0.92990  -0.85463
 Alpha  occ. eigenvalues --   -0.77866  -0.74078  -0.70983  -0.67819  -0.65092
 Alpha  occ. eigenvalues --   -0.63611  -0.60847  -0.59625  -0.56764  -0.55088
 Alpha  occ. eigenvalues --   -0.52922  -0.51649  -0.49633  -0.48551  -0.43718
 Alpha  occ. eigenvalues --   -0.42874
 Alpha virt. eigenvalues --    0.03732   0.04854   0.05443   0.05984   0.07404
 Alpha virt. eigenvalues --    0.08832   0.08860   0.09143   0.11169   0.12093
 Alpha virt. eigenvalues --    0.12606   0.13588   0.14700   0.15043   0.16878

  Beta  occ. eigenvalues --  -20.62481 -20.57547 -20.56929 -11.42563 -11.33655
  Beta  occ. eigenvalues --  -11.30688 -11.25536 -11.23392  -1.48973  -1.38634
  Beta  occ. eigenvalues --   -1.28617  -1.07139  -1.04184  -0.93536  -0.84611
  Beta  occ. eigenvalues --   -0.77445  -0.73451  -0.70165  -0.67205  -0.64216
  Beta  occ. eigenvalues --   -0.61625  -0.59085  -0.55555  -0.54988  -0.52901
  Beta  occ. eigenvalues --   -0.51451  -0.50189  -0.48125  -0.46921  -0.41546
  Beta virt. eigenvalues --    0.03732   0.04810   0.05054   0.05480   0.06572
  Beta virt. eigenvalues --    0.07417   0.08059   0.08883   0.09827   0.11580
  Beta virt. eigenvalues --    0.12355   0.13409   0.13682   0.14159   0.15166

 Mulliken charges and spin densities:
               1          2
     1  O   -0.323014   0.469306
     2  H    0.262433  -0.015120
     3  C   -1.456781  -1.069780
     4  H    0.208165   0.085939
     5  C    1.533269   1.399099
     6  C   -0.103833  -0.008776
     7  O   -0.280571   0.133220
     8  O   -0.123977  -0.002080
     9  C   -0.169631   0.005053
    10  C   -0.347761   0.001988
    11  H    0.167209   0.000650
    12  H    0.181494  -0.000399
    13  H    0.135261   0.000426
    14  H    0.144448  -0.000073
    15  H    0.173289   0.000547
 Sum of Mulliken charges =  -0.00000   1.00000

 Dipole moment (field-independent basis, Debye):
    X=             -1.7174    Y=             -1.0352    Z=             -0.2269  Tot=              2.0180
 Quadrupole moment (field-independent basis, Debye-Ang):
   XX=            -45.2024   YY=            -53.1152   ZZ=            -47.2231
   XY=             10.5441   XZ=              1.7970   YZ=              1.0487

 \PMP3-0=-419.3028805\MP4SDQ=-419.3134811\CCSD=-419.3207294\CCSD(T)=-41
 Normal termination of Gaussian 16 at Tue Aug  5 16:53:34 2025.
