 Gaussian 16, Revision A.03,
 Gaussian 16:  ES64L-G16RevA.03 25-Dec-2016

 --------------------------
 # freq 6-311++g(d,p) m062x
 --------------------------

 -------------------
 Title Card Required
 -------------------
 Symbolic Z-matrix:
 Charge =  0 Multiplicity = 2

                         Standard orientation:
 ---------------------------------------------------------------------
 Center     Atomic      Atomic             Coordinates (Angstroms)
 Number     Number       Type             X           Y           Z
 ---------------------------------------------------------------------
      1          8           0        2.778674   -1.381348    0.025182
      2          1           0        1.867548   -1.654533   -0.168841
      3          6           0        2.545869    0.534987    0.247881
      4          1           0        3.581956    0.725203    0.432621
      5          6           0        1.356974    0.793157    0.100367
      6          6           0       -0.081356    0.784101   -0.117286
      7          8           0       -0.778846    1.757516   -0.083693
      8          8           0       -0.498194   -0.462554   -0.363022
      9          6           0       -1.917789   -0.627526   -0.582461
     10          6           0       -2.671261   -0.651632    0.732167
     11          1           0       -1.993772   -1.576155   -1.110561
     12          1           0       -2.263716    0.178872   -1.229749
     13          1           0       -3.727745   -0.850106    0.542124
     14          1           0       -2.283188   -1.438800    1.380158
     15          1           0       -2.588774    0.308090    1.242513
 ---------------------------------------------------------------------

 SCF Done:  E(UM062X) =  -420.205553964     A.U. after   21 cycles

 The electronic state is 2-A.
 Alpha  occ. eigenvalues --  -19.69716 -19.64609 -19.64555 -10.71984 -10.61666
 Alpha  occ. eigenvalues --  -10.61331 -10.59232 -10.54656  -1.26943  -1.17808
 Alpha  occ. eigenvalues --   -1.10632  -0.92477  -0.88428  -0.79351  -0.72099
 Alpha  occ. eigenvalues --   -0.65778  -0.62842  -0.59807  -0.57741  -0.54868
 Alpha  occ. eigenvalues --   -0.52547  -0.50516  -0.49203  -0.47915  -0.46256
 Alpha  occ. eigenvalues --   -0.43198  -0.41758  -0.40227  -0.39647  -0.37111
 Alpha  occ. eigenvalues --   -0.33197
 Alpha virt. eigenvalues --   -0.02884  -0.00728   0.00784   0.01263   0.01601
 Alpha virt. eigenvalues --    0.02702   0.04603   0.04942   0.05435   0.05922
 Alpha virt. eigenvalues --    0.06607   0.07006   0.08130   0.08790   0.10058

  Beta  occ. eigenvalues --  -19.69692 -19.64501 -19.63393 -10.72017 -10.61660
  Beta  occ. eigenvalues --  -10.61444 -10.58874 -10.54656  -1.26846  -1.17657
  Beta  occ. eigenvalues --   -1.05904  -0.91463  -0.87850  -0.79216  -0.71737
  Beta  occ. eigenvalues --   -0.65649  -0.62374  -0.59603  -0.57545  -0.54671
  Beta  occ. eigenvalues --   -0.50709  -0.49998  -0.47796  -0.46400  -0.43115
  Beta  occ. eigenvalues --   -0.40783  -0.40412  -0.39875  -0.38711  -0.35084
  Beta virt. eigenvalues --   -0.09943  -0.02813  -0.00651   0.00962   0.01301
  Beta virt. eigenvalues --    0.01766   0.02852   0.04905   0.05048   0.05815
  Beta virt. eigenvalues --    0.06316   0.06980   0.07300   0.08409   0.08906

 Mulliken charges and spin densities:
               1          2
     1  O   -0.316823   0.662322
     2  H    0.247193  -0.010535
     3  C   -1.767492  -0.246301
     4  H    0.202761   0.026317
     5  C    1.768765   0.425325
     6  C   -0.115289   0.128192
     7  O   -0.209443   0.012614
     8  O   -0.037249  -0.001772
     9  C   -0.294542   0.002057
    10  C   -0.392158   0.001366
    11  H    0.200290   0.000199
    12  H    0.196903  -0.000124
    13  H    0.167426   0.000239
    14  H    0.166413  -0.000171
    15  H    0.183244   0.000271
 Sum of Mulliken charges =  -0.00000   1.00000

 Dipole moment (field-independent basis, Debye):
    X=             -1.9765    Y=             -0.8450    Z=             -0.1910  Tot=              2.1580
 Quadrupole moment (field-independent basis, Debye-Ang):
   XX=            -44.0402   YY=            -52.4972   ZZ=            -47.4054
   XY=             10.3034   XZ=              1.7770   YZ=              1.0657

  Exact polarizability:  96.382 -10.979  82.469   2.318   2.193  50.197
 Approx polarizability: 104.563 -17.645  96.068   4.632   2.457  57.978

 ******    1 imaginary frequencies (negative Signs) ******

                      1                      2                      3
                      A                      A                      A
 Frequencies --   -756.8938                59.9991                75.4425
 Red. masses --     10.5999                 4.1561                 5.9132
 Frc consts  --      3.5779                 0.0088                 0.0198
 IR Inten    --     85.3386                 0.4620                 2.0079

                      4                      5                      6
                      A                      A                      A
 Frequencies --    106.2568               119.4128               212.6771
 Red. masses --      4.8465                 3.1454                 1.3718
 Frc consts  --      0.0322                 0.0264                 0.0366
 IR Inten    --      5.7665                 0.3831                 3.3920

                      7                      8                      9
                      A                      A                      A
 Frequencies --    235.7687               264.7847               274.6648
 Red. masses --      1.2221                 3.0298                 2.8955
 Frc consts  --      0.0400                 0.1252                 0.1287
 IR Inten    --     72.4729                 5.7581                29.8316

                     10                     11                     12
                      A                      A                      A
 Frequencies --    338.3006               422.3451               565.4277
 Red. masses --      3.0952                 3.9339                 5.6247
 Frc consts  --      0.2087                 0.4134                 1.0595
 IR Inten    --      7.7477                 1.9653                 3.5076

                     13                     14                     15
                      A                      A                      A
 Frequencies --    592.6571               771.2510               785.5340
 Red. masses --      6.3872                 2.7152                 2.0625
 Frc consts  --      1.3218                 0.9516                 0.7499
 IR Inten    --      6.8497                 0.1340                56.8636

                     16                     17                     18
                      A                      A                      A
 Frequencies --    801.0452               834.2166               886.7600
 Red. masses --      1.2477                 1.1294                 2.6402
 Frc consts  --      0.4717                 0.4631                 1.2232
 IR Inten    --     13.1649               167.4470                20.2499

                     19                     20                     21
                      A                      A                      A
 Frequencies --    916.6275               938.1387              1069.5296
 Red. masses --      1.4976                 1.7325                 4.0445
 Frc consts  --      0.7414                 0.8984                 2.7259
 IR Inten    --      5.8510                 0.4679                23.3850

                     22                     23                     24
                      A                      A                      A
 Frequencies --   1127.1083              1202.5236              1259.7227
 Red. masses --      2.0624                 1.7817                 5.6031
 Frc consts  --      1.5437                 1.5180                 5.2388
 IR Inten    --     21.4463                11.3449               567.5066

                     25                     26                     27
                      A                      A                      A
 Frequencies --   1345.6079              1402.0989              1431.1879
 Red. masses --      1.1546                 1.2525                 1.3521
 Frc consts  --      1.2317                 1.4507                 1.6318
 IR Inten    --     39.3639                14.5977                 8.4651

                     28                     29                     30
                      A                      A                      A
 Frequencies --   1493.7190              1503.0686              1515.0093
 Red. masses --      1.0403                 1.0620                 1.0804
 Frc consts  --      1.3676                 1.4136                 1.4610
 IR Inten    --     12.6240                 1.5574                16.9074

                     31                     32                     33
                      A                      A                      A
 Frequencies --   1842.9287              2056.5076              3075.7185
 Red. masses --     12.0069                 6.5982                 1.0354
 Frc consts  --     24.0268                16.4414                 5.7711
 IR Inten    --    395.5392                98.3939                 8.7355

                     34                     35                     36
                      A                      A                      A
 Frequencies --   3109.1862              3151.2902              3155.8711
 Red. masses --      1.0606                 1.1017                 1.1048
 Frc consts  --      6.0408                 6.4461                 6.4830
 IR Inten    --     16.0828                12.7120                 2.2608

                     37                     38                     39
                      A                      A                      A
 Frequencies --   3176.4484              3418.5531              3797.9544
 Red. masses --      1.1077                 1.1397                 1.0679
 Frc consts  --      6.5850                 7.8474                 9.0760
 IR Inten    --     11.3271                59.6233                39.9598

 - Thermochemistry -
 -------------------
 Temperature   298.150 Kelvin.  Pressure   1.00000 Atm.
 Atom     1 has atomic number  8 and mass  15.99491

 Molecular mass:   115.03952 amu.
 Principal axes and moments of inertia in atomic units:
                           1         2         3
     Eigenvalues --   501.303811566.873331921.82566
           X            0.99962   0.02711  -0.00556
           Y           -0.02711   0.99963  -0.00026
           Z            0.00555   0.00041   0.99998
 This molecule is an asymmetric top.
 Rotational symmetry number  1.
 Warning -- assumption of classical behavior for rotation
           may cause significant error
 Rotational temperatures (Kelvin)      0.17278     0.05528     0.04507
 Rotational constants (GHZ):           3.60009     1.15181     0.93908
    1 imaginary frequencies ignored.
 Zero-point vibrational energy     295090.9 (Joules/Mol)
                                   70.52842 (Kcal/Mol)
 Warning -- explicit consideration of  12 degrees of freedom as
           vibrations may cause significant error
 Vibrational temperatures:     86.33   108.54   152.88   171.81   305.99
          (Kelvin)            339.22   380.97   395.18   486.74   607.66
                              813.52   852.70  1109.66  1130.21  1152.53
                             1200.25  1275.85  1318.82  1349.77  1538.81
                             1621.66  1730.16  1812.46  1936.03  2017.31
                             2059.16  2149.13  2162.58  2179.76  2651.56
                             2958.86  4425.27  4473.43  4534.00  4540.59
                             4570.20  4918.54  5464.41

 Zero-point correction=                           0.112394 (Hartree/Particle)
 Thermal correction to Energy=                    0.121809
 Thermal correction to Enthalpy=                  0.122753
 Thermal correction to Gibbs Free Energy=         0.076718
 Sum of electronic and zero-point Energies=           -420.093160
 Sum of electronic and thermal Energies=              -420.083745
 Sum of electronic and thermal Enthalpies=            -420.082801
 Sum of electronic and thermal Free Energies=         -420.128836

                     E (Thermal)             CV                S
                      KCal/Mol        Cal/Mol-Kelvin    Cal/Mol-Kelvin
 Total                   76.436             31.600             96.888
 Electronic               0.000              0.000              1.377
 Translational            0.889              2.981             40.136
 Rotational               0.889              2.981             28.803
 Vibrational             74.659             25.639             26.572
 Vibration     1          0.597              1.973              4.457
 Vibration     2          0.599              1.965              4.006
 Vibration     3          0.605              1.944              3.336
 Vibration     4          0.609              1.933              3.110
 Vibration     5          0.644              1.822              2.021
 Vibration     6          0.655              1.786              1.835
 Vibration     7          0.671              1.738              1.630
 Vibration     8          0.677              1.720              1.567
 Vibration     9          0.719              1.599              1.220
 Vibration    10          0.785              1.422              0.884
 Vibration    11          0.921              1.106              0.513
 Vibration    12          0.950              1.047              0.462

 1\1\GINC-AJ\Freq\UM062X\6-311++G(d,p)\C5H7O3(2)\AAYUSH\23-Jun-2025\0\\
 # freq 6-311++g(d,p) m062x\\Title Card Required\\0,2\O,2.778674,-1.381
 348,0.025182\H,1.867548,-1.654533,-0.168841\C,2.545869,0.534987,0.2478
 81\H,3.581956,0.725203,0.432621\C,1.356974,0.793157,0.100367\C,-0.0813
 56,0.784101,-0.117286\O,-0.778846,1.757516,-0.083693\O,-0.498194,-0.46
 2554,-0.363022\C,-1.917789,-0.627526,-0.582461\C,-2.671261,-0.651632,0
 .732167\H,-1.993772,-1.576155,-1.110561\H,-2.263716,0.178872,-1.229749
 \H,-3.727745,-0.850106,0.542124\H,-2.283188,-1.4388,1.380158\H,-2.5887

 Normal termination of Gaussian 16 at Mon Jun 23 06:48:18 2025.
