 Gaussian 16, Revision A.03,
 Gaussian 16:  ES64L-G16RevA.03 25-Dec-2016

 -------------------
 # freq 6-31+g m062x
 -------------------

 -------------------
 Title Card Required
 -------------------
 Symbolic Z-matrix:
 Charge =  0 Multiplicity = 2

                         Standard orientation:
 ---------------------------------------------------------------------
 Center     Atomic      Atomic             Coordinates (Angstroms)
 Number     Number       Type             X           Y           Z
 ---------------------------------------------------------------------
      1          8           0        2.786166   -1.444803    0.024554
      2          1           0        1.862963   -1.682822   -0.165941
      3          6           0        2.541211    0.641399    0.257829
      4          1           0        3.591348    0.706964    0.426972
      5          6           0        1.354834    0.790291    0.095413
      6          6           0       -0.082338    0.784488   -0.121237
      7          8           0       -0.782195    1.755936   -0.093021
      8          8           0       -0.498542   -0.465216   -0.360826
      9          6           0       -1.916936   -0.632520   -0.579148
     10          6           0       -2.670624   -0.650926    0.735583
     11          1           0       -1.993025   -1.583816   -1.102642
     12          1           0       -2.264282    0.170270   -1.230224
     13          1           0       -3.726948   -0.851586    0.546911
     14          1           0       -2.281491   -1.434229    1.387685
     15          1           0       -2.588881    0.311487    1.240945
 ---------------------------------------------------------------------

 SCF Done:  E(UM062X) =  -419.960502891     A.U. after   22 cycles

 The electronic state is 2-A.
 Alpha  occ. eigenvalues --  -19.71971 -19.68612 -19.67447 -10.74046 -10.62592
 Alpha  occ. eigenvalues --  -10.60623 -10.59648 -10.55434  -1.29061  -1.19823
 Alpha  occ. eigenvalues --   -1.13094  -0.92566  -0.88759  -0.79633  -0.72247
 Alpha  occ. eigenvalues --   -0.65752  -0.62618  -0.59614  -0.57910  -0.55116
 Alpha  occ. eigenvalues --   -0.53378  -0.50605  -0.49547  -0.48025  -0.46326
 Alpha  occ. eigenvalues --   -0.43178  -0.42068  -0.39997  -0.39395  -0.37740
 Alpha  occ. eigenvalues --   -0.34945
 Alpha virt. eigenvalues --   -0.02523   0.01463   0.02711   0.03054   0.03859
 Alpha virt. eigenvalues --    0.04351   0.05511   0.06309   0.07158   0.07768
 Alpha virt. eigenvalues --    0.08287   0.08517   0.08771   0.11090   0.12054

  Beta  occ. eigenvalues --  -19.71962 -19.67418 -19.67057 -10.74064 -10.62590
  Beta  occ. eigenvalues --  -10.60668 -10.59456 -10.55434  -1.29017  -1.19758
  Beta  occ. eigenvalues --   -1.06514  -0.92114  -0.88464  -0.79545  -0.72045
  Beta  occ. eigenvalues --   -0.65694  -0.62278  -0.59526  -0.57801  -0.55017
  Beta  occ. eigenvalues --   -0.50801  -0.50254  -0.47957  -0.46394  -0.43122
  Beta  occ. eigenvalues --   -0.40493  -0.39906  -0.39541  -0.38123  -0.36135
  Beta virt. eigenvalues --   -0.08903  -0.02511   0.01503   0.02880   0.03090
  Beta virt. eigenvalues --    0.04012   0.04480   0.05977   0.06445   0.07272
  Beta virt. eigenvalues --    0.07905   0.08261   0.08665   0.08972   0.11202

 Mulliken charges and spin densities:
               1          2
     1  O   -0.473706   0.869540
     2  H    0.424637  -0.030969
     3  C   -0.140934  -0.152811
     4  H    0.334791   0.012177
     5  C    0.514450   0.271343
     6  C   -0.323688   0.024317
     7  O   -0.360820   0.007790
     8  O   -0.271341  -0.002109
     9  C   -0.262727  -0.000391
    10  C   -0.568698   0.000825
    11  H    0.222457   0.000202
    12  H    0.236279   0.000002
    13  H    0.211534   0.000058
    14  H    0.220364   0.000008
    15  H    0.237402   0.000017
 Sum of Mulliken charges =  -0.00000   1.00000

 Dipole moment (field-independent basis, Debye):
    X=             -1.9492    Y=             -1.3782    Z=             -0.2692  Tot=              2.4024
 Quadrupole moment (field-independent basis, Debye-Ang):
   XX=            -44.4872   YY=            -52.8523   ZZ=            -47.6504
   XY=              9.5746   XZ=              1.5815   YZ=              1.1007

  Exact polarizability:  90.453  -7.255  73.015   3.366   1.740  45.999
 Approx polarizability:  99.105 -14.120  80.778   6.049   2.004  48.076

 ******    5 imaginary frequencies (negative Signs) ******

                      1                      2                      3
                      A                      A                      A
 Frequencies --   -415.1476              -236.5726              -121.0831
 Red. masses --      1.0707                10.5204                 7.9056
 Frc consts  --      0.1087                 0.3469                 0.0683
 IR Inten    --    150.6063                 4.6668                 2.3020

                      4                      5                      6
                      A                      A                      A
 Frequencies --    -93.8270                -6.3119                40.1454
 Red. masses --      5.4738                 3.5134                 2.6831
 Frc consts  --      0.0284                 0.0001                 0.0025
 IR Inten    --      3.2529                 8.3632                 1.3783

                      7                      8                      9
                      A                      A                      A
 Frequencies --    160.6900               197.3777               236.4331
 Red. masses --      1.9618                 2.0612                 4.0671
 Frc consts  --      0.0298                 0.0473                 0.1340
 IR Inten    --      6.4210                 2.4061                 1.2790

                     10                     11                     12
                      A                      A                      A
 Frequencies --    313.1201               417.1372               534.0563
 Red. masses --      2.9877                 3.7600                 1.1833
 Frc consts  --      0.1726                 0.3855                 0.1988
 IR Inten    --     11.9280                 5.1955               156.9858

                     13                     14                     15
                      A                      A                      A
 Frequencies --    587.4871               609.1421               772.5671
 Red. masses --      3.4887                 8.9870                 3.6441
 Frc consts  --      0.7094                 1.9647                 1.2815
 IR Inten    --     31.0585                10.2832                63.3812

                     16                     17                     18
                      A                      A                      A
 Frequencies --    804.7371               816.8298               841.6768
 Red. masses --      1.1043                 1.2668                 1.7466
 Frc consts  --      0.4213                 0.4980                 0.7290
 IR Inten    --     57.9270                22.8998                13.5649

                     19                     20                     21
                      A                      A                      A
 Frequencies --    896.6927               946.5351              1109.9967
 Red. masses --      3.2185                 2.6157                 4.2512
 Frc consts  --      1.5247                 1.3808                 3.0861
 IR Inten    --     19.8864                 4.9234                 6.1077

                     22                     23                     24
                      A                      A                      A
 Frequencies --   1156.6562              1227.1318              1309.6476
 Red. masses --      2.0589                 1.7609                 3.4275
 Frc consts  --      1.6229                 1.5623                 3.4637
 IR Inten    --     18.1071                 8.3280               466.8318

                     25                     26                     27
                      A                      A                      A
 Frequencies --   1364.8184              1441.3901              1457.6792
 Red. masses --      1.3321                 1.3181                 1.2533
 Frc consts  --      1.4619                 1.6134                 1.5690
 IR Inten    --    127.0844                15.5005                18.6762

                     28                     29                     30
                      A                      A                      A
 Frequencies --   1528.4482              1537.1355              1545.2280
 Red. masses --      1.0415                 1.0679                 1.0720
 Frc consts  --      1.4336                 1.4866                 1.5081
 IR Inten    --     15.7026                 3.9669                22.4803

                     31                     32                     33
                      A                      A                      A
 Frequencies --   1916.6447              2265.4721              3108.1329
 Red. masses --     12.3189                 5.8780                 1.0352
 Frc consts  --     26.6627                17.7744                 5.8920
 IR Inten    --    344.0536                84.9467                11.8177

                     34                     35                     36
                      A                      A                      A
 Frequencies --   3139.3699              3187.8170              3192.1492
 Red. masses --      1.0599                 1.1009                 1.1024
 Frc consts  --      6.1545                 6.5918                 6.6182
 IR Inten    --     18.3371                11.6417                 6.7047

                     37                     38                     39
                      A                      A                      A
 Frequencies --   3212.5420              3517.9301              3796.5387
 Red. masses --      1.1055                 1.1664                 1.0675
 Frc consts  --      6.7220                 8.5046                 9.0659
 IR Inten    --     14.8241                69.2834                12.3270

 - Thermochemistry -
 -------------------
 Temperature   298.150 Kelvin.  Pressure   1.00000 Atm.
 Atom     1 has atomic number  8 and mass  15.99491

 Molecular mass:   115.03952 amu.
 Principal axes and moments of inertia in atomic units:
                           1         2         3
     Eigenvalues --   517.342011568.424521938.88983
           X            0.99961   0.02720  -0.00569
           Y           -0.02720   0.99963  -0.00037
           Z            0.00568   0.00053   0.99998
 This molecule is an asymmetric top.
 Rotational symmetry number  1.
 Warning -- assumption of classical behavior for rotation
           may cause significant error
 Rotational temperatures (Kelvin)      0.16742     0.05522     0.04467
 Rotational constants (GHZ):           3.48849     1.15067     0.93081
    5 imaginary frequencies ignored.
 Zero-point vibrational energy     294217.7 (Joules/Mol)
                                   70.31971 (Kcal/Mol)
 Warning -- explicit consideration of   9 degrees of freedom as
           vibrations may cause significant error
 Vibrational temperatures:     57.76   231.20   283.98   340.17   450.51
          (Kelvin)            600.17   768.39   845.26   876.42  1111.55
                             1157.84  1175.24  1210.99  1290.14  1361.85
                             1597.04  1664.17  1765.57  1884.29  1963.67
                             2073.84  2097.28  2199.10  2211.60  2223.24
                             2757.62  3259.51  4471.91  4516.85  4586.56
                             4592.79  4622.13  5061.52  5462.37

 Zero-point correction=                           0.112062 (Hartree/Particle)
 Thermal correction to Energy=                    0.119173
 Thermal correction to Enthalpy=                  0.120117
 Thermal correction to Gibbs Free Energy=         0.078693
 Sum of electronic and zero-point Energies=           -419.848441
 Sum of electronic and thermal Energies=              -419.841330
 Sum of electronic and thermal Enthalpies=            -419.840385
 Sum of electronic and thermal Free Energies=         -419.881810

                     E (Thermal)             CV                S
                      KCal/Mol        Cal/Mol-Kelvin    Cal/Mol-Kelvin
 Total                   74.782             24.635             87.186
 Electronic               0.000              0.000              1.377
 Translational            0.889              2.981             40.136
 Rotational               0.889              2.981             28.844
 Vibrational             73.005             18.673             16.829
 Vibration     1          0.594              1.981              5.252
 Vibration     2          0.622              1.891              2.542
 Vibration     3          0.637              1.844              2.157
 Vibration     4          0.655              1.785              1.830
 Vibration     5          0.701              1.649              1.346
 Vibration     6          0.780              1.433              0.902
 Vibration     7          0.889              1.175              0.578
 Vibration     8          0.945              1.058              0.472
 Vibration     9          0.968              1.012              0.434

 Normal termination of Gaussian 16 at Fri Jun 20 14:23:59 2025.
