 Gaussian 16, Revision A.03,
 Gaussian 16:  ES64L-G16RevA.03 25-Dec-2016

 -------------------
 # freq 6-31+g m062x
 -------------------

 -------------------
 Title Card Required
 -------------------
 Symbolic Z-matrix:
 Charge =  0 Multiplicity = 2

                         Standard orientation:
 ---------------------------------------------------------------------
 Center     Atomic      Atomic             Coordinates (Angstroms)
 Number     Number       Type             X           Y           Z
 ---------------------------------------------------------------------
      1          8           0        2.784494   -1.431373    0.024640
      2          1           0        1.864165   -1.678617   -0.166769
      3          6           0        2.541725    0.620610    0.255975
      4          1           0        3.590538    0.706248    0.427801
      5          6           0        1.355443    0.789920    0.096353
      6          6           0       -0.082087    0.784536   -0.120382
      7          8           0       -0.781450    1.756349   -0.091048
      8          8           0       -0.498457   -0.464589   -0.361277
      9          6           0       -1.917058   -0.631451   -0.579844
     10          6           0       -2.670747   -0.651087    0.734845
     11          1           0       -1.993090   -1.582196   -1.104309
     12          1           0       -2.264167    0.172067   -1.230143
     13          1           0       -3.727092   -0.851346    0.545864
     14          1           0       -2.281808   -1.435182    1.386099
     15          1           0       -2.588898    0.310766    1.241254
 ---------------------------------------------------------------------

 SCF Done:  E(UM062X) =  -419.959746369     A.U. after   22 cycles

 The electronic state is 2-A.
 Alpha  occ. eigenvalues --  -19.72003 -19.68389 -19.67487 -10.74094 -10.62613
 Alpha  occ. eigenvalues --  -10.60894 -10.59815 -10.55449  -1.29104  -1.19866
 Alpha  occ. eigenvalues --   -1.12906  -0.92665  -0.88821  -0.79676  -0.72318
 Alpha  occ. eigenvalues --   -0.65786  -0.62704  -0.59650  -0.57950  -0.55144
 Alpha  occ. eigenvalues --   -0.53192  -0.50628  -0.49522  -0.48049  -0.46336
 Alpha  occ. eigenvalues --   -0.43200  -0.42002  -0.40021  -0.39419  -0.37677
 Alpha  occ. eigenvalues --   -0.34674
 Alpha virt. eigenvalues --   -0.02577   0.01453   0.02734   0.03048   0.03840
 Alpha virt. eigenvalues --    0.04331   0.05530   0.06301   0.07153   0.07768
 Alpha virt. eigenvalues --    0.08237   0.08507   0.08776   0.11043   0.12042

  Beta  occ. eigenvalues --  -19.71992 -19.67454 -19.66863 -10.74115 -10.62611
  Beta  occ. eigenvalues --  -10.60951 -10.59597 -10.55449  -1.29053  -1.19791
  Beta  occ. eigenvalues --   -1.06575  -0.92150  -0.88499  -0.79578  -0.72091
  Beta  occ. eigenvalues --   -0.65722  -0.62348  -0.59551  -0.57827  -0.55038
  Beta  occ. eigenvalues --   -0.50779  -0.50189  -0.47972  -0.46414  -0.43139
  Beta  occ. eigenvalues --   -0.40531  -0.39987  -0.39571  -0.38224  -0.35950
  Beta virt. eigenvalues --   -0.09088  -0.02568   0.01492   0.02890   0.03086
  Beta virt. eigenvalues --    0.04004   0.04475   0.06042   0.06446   0.07267
  Beta virt. eigenvalues --    0.07913   0.08206   0.08656   0.09006   0.11185

 Mulliken charges and spin densities:
               1          2
     1  O   -0.478883   0.846383
     2  H    0.423858  -0.030056
     3  C   -0.152711  -0.161813
     4  H    0.327055   0.014080
     5  C    0.526723   0.303168
     6  C   -0.306874   0.020708
     7  O   -0.363120   0.008868
     8  O   -0.272819  -0.002150
     9  C   -0.262610  -0.000486
    10  C   -0.569129   0.000975
    11  H    0.222742   0.000224
    12  H    0.236372  -0.000003
    13  H    0.211587   0.000070
    14  H    0.220533   0.000010
    15  H    0.237277   0.000022
 Sum of Mulliken charges =  -0.00000   1.00000

 Dipole moment (field-independent basis, Debye):
    X=             -1.9792    Y=             -1.3088    Z=             -0.2648  Tot=              2.3875
 Quadrupole moment (field-independent basis, Debye-Ang):
   XX=            -44.5681   YY=            -52.9041   ZZ=            -47.6431
   XY=              9.7539   XZ=              1.6080   YZ=              1.0990

  Exact polarizability:  90.837  -8.315  74.733   3.267   1.855  46.022
 Approx polarizability:  99.245 -15.292  82.502   5.897   2.082  48.106

 ******    4 imaginary frequencies (negative Signs) ******

                      1                      2                      3
                      A                      A                      A
 Frequencies --   -415.1954              -342.1499              -119.6172
 Red. masses --      1.0700                12.0283                 7.8944
 Frc consts  --      0.1087                 0.8296                 0.0666
 IR Inten    --    148.9063                17.5180                 2.2205

                      4                      5                      6
                      A                      A                      A
 Frequencies --    -94.9599                14.4379                42.4917
 Red. masses --      5.4526                 3.3511                 2.7913
 Frc consts  --      0.0290                 0.0004                 0.0030
 IR Inten    --      2.7536                 7.8984                 2.5029

                      7                      8                      9
                      A                      A                      A
 Frequencies --    164.2212               201.4503               235.0455
 Red. masses --      1.7156                 2.4080                 4.0779
 Frc consts  --      0.0273                 0.0576                 0.1327
 IR Inten    --      6.1038                 3.3091                 1.3902

                     10                     11                     12
                      A                      A                      A
 Frequencies --    312.7918               416.6558               559.2358
 Red. masses --      2.9875                 3.7806                 1.5089
 Frc consts  --      0.1722                 0.3867                 0.2780
 IR Inten    --     11.7534                 4.7000               103.9707

                     13                     14                     15
                      A                      A                      A
 Frequencies --    592.6672               607.4951               771.2110
 Red. masses --      2.5106                 5.5173                 3.8460
 Frc consts  --      0.5196                 1.1997                 1.3477
 IR Inten    --     72.7776                24.1381                61.8176

                     16                     17                     18
                      A                      A                      A
 Frequencies --    810.5284               818.2617               834.1460
 Red. masses --      1.1399                 1.2126                 1.7020
 Frc consts  --      0.4412                 0.4784                 0.6977
 IR Inten    --     31.2668                43.7780                14.3460

                     19                     20                     21
                      A                      A                      A
 Frequencies --    896.4861               946.1417              1109.4115
 Red. masses --      3.2041                 2.6227                 4.2491
 Frc consts  --      1.5172                 1.3833                 3.0813
 IR Inten    --     20.3434                 4.9559                 5.9702

                     22                     23                     24
                      A                      A                      A
 Frequencies --   1156.4793              1227.0550              1308.7913
 Red. masses --      2.0549                 1.7603                 3.4726
 Frc consts  --      1.6193                 1.5616                 3.5046
 IR Inten    --     18.0344                 8.8280               467.2112

                     25                     26                     27
                      A                      A                      A
 Frequencies --   1364.5958              1441.3221              1457.7403
 Red. masses --      1.3260                 1.3170                 1.2529
 Frc consts  --      1.4548                 1.6120                 1.5686
 IR Inten    --    123.2837                15.1068                18.7084

                     28                     29                     30
                      A                      A                      A
 Frequencies --   1528.4765              1537.1813              1545.2602
 Red. masses --      1.0415                 1.0677                 1.0721
 Frc consts  --      1.4336                 1.4864                 1.5083
 IR Inten    --     15.8596                 3.8614                22.5113

                     31                     32                     33
                      A                      A                      A
 Frequencies --   1916.0636              2247.5617              3108.1474
 Red. masses --     12.3127                 5.9577                 1.0352
 Frc consts  --     26.6332                17.7317                 5.8920
 IR Inten    --    348.0187                86.3008                11.7554

                     34                     35                     36
                      A                      A                      A
 Frequencies --   3139.4757              3187.9221              3192.1988
 Red. masses --      1.0599                 1.1009                 1.1024
 Frc consts  --      6.1551                 6.5919                 6.6186
 IR Inten    --     18.1940                11.7714                 6.4882

                     37                     38                     39
                      A                      A                      A
 Frequencies --   3212.6430              3509.8768              3799.3733
 Red. masses --      1.1055                 1.1633                 1.0676
 Frc consts  --      6.7225                 8.4434                 9.0797
 IR Inten    --     14.6342                68.5692                13.1973

 - Thermochemistry -
 -------------------
 Temperature   298.150 Kelvin.  Pressure   1.00000 Atm.
 Atom     1 has atomic number  8 and mass  15.99491

 Molecular mass:   115.03952 amu.
 Principal axes and moments of inertia in atomic units:
                           1         2         3
     Eigenvalues --   513.873931567.994891935.10448
           X            0.99962   0.02712  -0.00566
           Y           -0.02712   0.99963  -0.00036
           Z            0.00565   0.00052   0.99998
 This molecule is an asymmetric top.
 Rotational symmetry number  1.
 Warning -- assumption of classical behavior for rotation
           may cause significant error
 Rotational temperatures (Kelvin)      0.16855     0.05524     0.04476
 Rotational constants (GHZ):           3.51203     1.15099     0.93263
    4 imaginary frequencies ignored.
 Zero-point vibrational energy     294358.2 (Joules/Mol)
                                   70.35329 (Kcal/Mol)
 Warning -- explicit consideration of  10 degrees of freedom as
           vibrations may cause significant error
 Vibrational temperatures:     20.77    61.14   236.28   289.84   338.18
          (Kelvin)            450.04   599.47   804.62   852.72   874.05
                             1109.60  1166.17  1177.30  1200.15  1289.84
                             1361.29  1596.20  1663.92  1765.46  1883.06
                             1963.35  2073.74  2097.36  2199.14  2211.66
                             2223.28  2756.79  3233.74  4471.93  4517.01
                             4586.71  4592.86  4622.28  5049.93  5466.45

 Zero-point correction=                           0.112115 (Hartree/Particle)
 Thermal correction to Energy=                    0.120106
 Thermal correction to Enthalpy=                  0.121050
 Thermal correction to Gibbs Free Energy=         0.076282
 Sum of electronic and zero-point Energies=           -419.847631
 Sum of electronic and thermal Energies=              -419.839640
 Sum of electronic and thermal Enthalpies=            -419.838696
 Sum of electronic and thermal Free Energies=         -419.883465

                     E (Thermal)             CV                S
                      KCal/Mol        Cal/Mol-Kelvin    Cal/Mol-Kelvin
 Total                   75.368             26.556             94.223
 Electronic               0.000              0.000              1.377
 Translational            0.889              2.981             40.136
 Rotational               0.889              2.981             28.835
 Vibrational             73.590             20.595             23.875
 Vibration     1          0.593              1.986              7.281
 Vibration     2          0.595              1.980              5.139
 Vibration     3          0.623              1.886              2.501
 Vibration     4          0.638              1.838              2.120
 Vibration     5          0.655              1.787              1.840
 Vibration     6          0.701              1.649              1.348
 Vibration     7          0.780              1.434              0.903
 Vibration     8          0.915              1.120              0.525
 Vibration     9          0.950              1.047              0.462
 Vibration    10          0.966              1.016              0.437

 Normal termination of Gaussian 16 at Fri Jun 20 14:15:21 2025.
