 Gaussian 16, Revision A.03,
 Gaussian 16:  ES64L-G16RevA.03 25-Dec-2016

 --------------------------
 # freq 6-311++g(d,p) m062x
 --------------------------

 -------------------
 Title Card Required
 -------------------
 Symbolic Z-matrix:
 Charge =  0 Multiplicity = 2

                         Standard orientation:
 ---------------------------------------------------------------------
 Center     Atomic      Atomic             Coordinates (Angstroms)
 Number     Number       Type             X           Y           Z
 ---------------------------------------------------------------------
      1          8           0        2.784494   -1.431373    0.024640
      2          1           0        1.864165   -1.678617   -0.166769
      3          6           0        2.541725    0.620610    0.255975
      4          1           0        3.590538    0.706248    0.427801
      5          6           0        1.355443    0.789920    0.096353
      6          6           0       -0.082087    0.784536   -0.120382
      7          8           0       -0.781450    1.756349   -0.091048
      8          8           0       -0.498457   -0.464589   -0.361277
      9          6           0       -1.917058   -0.631451   -0.579844
     10          6           0       -2.670747   -0.651087    0.734845
     11          1           0       -1.993090   -1.582196   -1.104309
     12          1           0       -2.264167    0.172067   -1.230143
     13          1           0       -3.727092   -0.851347    0.545864
     14          1           0       -2.281808   -1.435182    1.386099
     15          1           0       -2.588898    0.310766    1.241254
 ---------------------------------------------------------------------

 SCF Done:  E(UM062X) =  -420.205213401     A.U. after   23 cycles

 The electronic state is 2-A.
 Alpha  occ. eigenvalues --  -19.69522 -19.65808 -19.64311 -10.71720 -10.61539
 Alpha  occ. eigenvalues --  -10.59410 -10.58139 -10.54563  -1.26703  -1.17562
 Alpha  occ. eigenvalues --   -1.11790  -0.91897  -0.88076  -0.79085  -0.71670
 Alpha  occ. eigenvalues --   -0.65560  -0.62498  -0.59587  -0.57503  -0.54707
 Alpha  occ. eigenvalues --   -0.53483  -0.50365  -0.49543  -0.47766  -0.46210
 Alpha  occ. eigenvalues --   -0.43066  -0.42048  -0.40040  -0.39475  -0.37535
 Alpha  occ. eigenvalues --   -0.34478
 Alpha virt. eigenvalues --   -0.02459  -0.00736   0.00789   0.01297   0.01637
 Alpha virt. eigenvalues --    0.02815   0.04651   0.04972   0.05332   0.06051
 Alpha virt. eigenvalues --    0.06578   0.07042   0.08138   0.08895   0.10174

  Beta  occ. eigenvalues --  -19.69510 -19.64349 -19.64279 -10.71739 -10.61536
  Beta  occ. eigenvalues --  -10.59459 -10.57930 -10.54563  -1.26650  -1.17475
  Beta  occ. eigenvalues --   -1.05341  -0.91341  -0.87691  -0.78991  -0.71458
  Beta  occ. eigenvalues --   -0.65477  -0.62120  -0.59465  -0.57390  -0.54544
  Beta  occ. eigenvalues --   -0.50981  -0.50168  -0.47685  -0.46292  -0.43006
  Beta  occ. eigenvalues --   -0.40399  -0.39970  -0.39655  -0.38011  -0.35971
  Beta virt. eigenvalues --   -0.09085  -0.02410  -0.00630   0.00996   0.01340
  Beta virt. eigenvalues --    0.01789   0.02911   0.04918   0.05048   0.05740
  Beta virt. eigenvalues --    0.06460   0.06925   0.07116   0.08349   0.09015

 Mulliken charges and spin densities:
               1          2
     1  O   -0.294306   0.826756
     2  H    0.251178  -0.014468
     3  C   -2.076228  -0.152017
     4  H    0.198551   0.018623
     5  C    2.014247   0.228214
     6  C   -0.071262   0.086427
     7  O   -0.207652   0.007001
     8  O   -0.034651  -0.002702
     9  C   -0.299139   0.001578
    10  C   -0.393414   0.000409
    11  H    0.199246   0.000124
    12  H    0.196725  -0.000090
    13  H    0.167095   0.000123
    14  H    0.165849  -0.000132
    15  H    0.183760   0.000153
 Sum of Mulliken charges =  -0.00000   1.00000

 Dipole moment (field-independent basis, Debye):
    X=             -1.7565    Y=             -1.3060    Z=             -0.2213  Tot=              2.2000
 Quadrupole moment (field-independent basis, Debye-Ang):
   XX=            -43.2265   YY=            -52.1752   ZZ=            -47.4458
   XY=              9.0280   XZ=              1.6606   YZ=              1.0437

  Exact polarizability:  95.481  -8.181  78.254   2.615   1.868  50.220
 Approx polarizability: 104.823 -13.618  88.477   5.302   1.940  57.842

 ******    2 imaginary frequencies (negative Signs) ******

                      1                      2                      3
                      A                      A                      A
 Frequencies --   -382.8972               -54.1001                18.1499
 Red. masses --     12.8461                 5.9232                 6.2505
 Frc consts  --      1.1097                 0.0102                 0.0012
 IR Inten    --     46.6951                 5.3792                 1.0980

                      4                      5                      6
                      A                      A                      A
 Frequencies --     77.4630               115.4719               199.6993
 Red. masses --      3.3528                 3.4338                 1.9989
 Frc consts  --      0.0119                 0.0270                 0.0470
 IR Inten    --      1.2946                 1.3379                 4.3706

                      7                      8                      9
                      A                      A                      A
 Frequencies --    224.2215               241.0430               263.3557
 Red. masses --      1.1264                 1.8198                 3.8127
 Frc consts  --      0.0334                 0.0623                 0.1558
 IR Inten    --     89.8325                 7.9870                10.3784

                     10                     11                     12
                      A                      A                      A
 Frequencies --    337.1773               422.8476               573.9545
 Red. masses --      2.9403                 3.8940                 4.6597
 Frc consts  --      0.1970                 0.4102                 0.9044
 IR Inten    --      8.9960                 2.3417                 1.2200

                     13                     14                     15
                      A                      A                      A
 Frequencies --    597.7363               742.5874               776.9314
 Red. masses --      8.4658                 1.0779                 2.6824
 Frc consts  --      1.7821                 0.3502                 0.9540
 IR Inten    --      7.5124               162.5206                 0.1201

                     16                     17                     18
                      A                      A                      A
 Frequencies --    784.8518               800.6347               809.9360
 Red. masses --      1.9840                 1.2236                 1.0914
 Frc consts  --      0.7200                 0.4621                 0.4218
 IR Inten    --     57.9011                 2.9567                48.2455

                     19                     20                     21
                      A                      A                      A
 Frequencies --    892.4914               929.2779              1073.0146
 Red. masses --      3.1175                 2.8077                 4.1319
 Frc consts  --      1.4631                 1.4285                 2.8030
 IR Inten    --     15.9700                 4.8955                22.5342

                     22                     23                     24
                      A                      A                      A
 Frequencies --   1127.5776              1202.8987              1263.8139
 Red. masses --      2.0695                 1.7811                 5.5238
 Frc consts  --      1.5503                 1.5184                 5.1983
 IR Inten    --     21.9710                 9.7728               583.5839

                     25                     26                     27
                      A                      A                      A
 Frequencies --   1346.1720              1402.1894              1431.3703
 Red. masses --      1.1579                 1.2546                 1.3552
 Frc consts  --      1.2363                 1.4533                 1.6360
 IR Inten    --     42.9948                15.9309                 8.3847

                     28                     29                     30
                      A                      A                      A
 Frequencies --   1493.6176              1502.9181              1514.9269
 Red. masses --      1.0404                 1.0621                 1.0805
 Frc consts  --      1.3675                 1.4135                 1.4611
 IR Inten    --     12.1580                 1.7728                17.1781

                     31                     32                     33
                      A                      A                      A
 Frequencies --   1848.3941              2181.5741              3075.6376
 Red. masses --     12.0869                 6.1302                 1.0354
 Frc consts  --     24.3306                17.1897                 5.7709
 IR Inten    --    392.2139                84.7506                 9.0291

                     34                     35                     36
                      A                      A                      A
 Frequencies --   3108.6203              3150.9044              3155.6563
 Red. masses --      1.0605                 1.1019                 1.1048
 Frc consts  --      6.0381                 6.4453                 6.4820
 IR Inten    --     16.6578                12.6719                 2.6476

                     37                     38                     39
                      A                      A                      A
 Frequencies --   3175.8499              3466.6885              3784.0953
 Red. masses --      1.1076                 1.1569                 1.0676
 Frc consts  --      6.5818                 8.1917                 9.0074
 IR Inten    --     12.0113                75.3609                30.5481

 - Thermochemistry -
 -------------------
 Temperature   298.150 Kelvin.  Pressure   1.00000 Atm.
 Atom     1 has atomic number  8 and mass  15.99491

 Molecular mass:   115.03952 amu.
 Principal axes and moments of inertia in atomic units:
                           1         2         3
     Eigenvalues --   513.873831567.994801935.10437
           X            0.99962   0.02712  -0.00566
           Y           -0.02712   0.99963  -0.00036
           Z            0.00565   0.00052   0.99998
 This molecule is an asymmetric top.
 Rotational symmetry number  1.
 Warning -- assumption of classical behavior for rotation
           may cause significant error
 Rotational temperatures (Kelvin)      0.16855     0.05524     0.04476
 Rotational constants (GHZ):           3.51203     1.15099     0.93263
    2 imaginary frequencies ignored.
 Zero-point vibrational energy     293765.5 (Joules/Mol)
                                   70.21163 (Kcal/Mol)
 Warning -- explicit consideration of  11 degrees of freedom as
           vibrations may cause significant error
 Vibrational temperatures:     26.11   111.45   166.14   287.32   322.60
          (Kelvin)            346.81   378.91   485.12   608.38   825.79
                              860.01  1068.42  1117.83  1129.23  1151.93
                             1165.32  1284.10  1337.02  1543.83  1622.33
                             1730.70  1818.35  1936.84  2017.44  2059.42
                             2148.98  2162.36  2179.64  2659.43  3138.80
                             4425.16  4472.61  4533.45  4540.29  4569.34
                             4987.79  5444.47

 Zero-point correction=                           0.111889 (Hartree/Particle)
 Thermal correction to Energy=                    0.120802
 Thermal correction to Enthalpy=                  0.121747
 Thermal correction to Gibbs Free Energy=         0.075882
 Sum of electronic and zero-point Energies=           -420.093324
 Sum of electronic and thermal Energies=              -420.084411
 Sum of electronic and thermal Enthalpies=            -420.083467
 Sum of electronic and thermal Free Energies=         -420.129331

                     E (Thermal)             CV                S
                      KCal/Mol        Cal/Mol-Kelvin    Cal/Mol-Kelvin
 Total                   75.805             30.035             96.530
 Electronic               0.000              0.000              1.377
 Translational            0.889              2.981             40.136
 Rotational               0.889              2.981             28.835
 Vibrational             74.027             24.073             26.182
 Vibration     1          0.593              1.986              6.827
 Vibration     2          0.599              1.964              3.954
 Vibration     3          0.608              1.937              3.175
 Vibration     4          0.638              1.840              2.136
 Vibration     5          0.649              1.804              1.925
 Vibration     6          0.658              1.778              1.795
 Vibration     7          0.670              1.740              1.639
 Vibration     8          0.718              1.601              1.225
 Vibration     9          0.785              1.421              0.882
 Vibration    10          0.930              1.088              0.497
 Vibration    11          0.956              1.037              0.454

 1\1\GINC-AJ\Freq\UM062X\6-311++G(d,p)\C5H7O3(2)\AAYUSH\23-Jun-2025\0\\
 # freq 6-311++g(d,p) m062x\\Title Card Required\\0,2\O,2.784494,-1.431
 373,0.02464\H,1.864165,-1.678617,-0.166769\C,2.541725,0.62061,0.255975
 \H,3.590538,0.706248,0.427801\C,1.355443,0.78992,0.096353\C,-0.082087,
 0.784536,-0.120382\O,-0.78145,1.756349,-0.091048\O,-0.498457,-0.464589
 ,-0.361277\C,-1.917058,-0.631451,-0.579844\C,-2.670747,-0.651087,0.734
 845\H,-1.99309,-1.582196,-1.104309\H,-2.264167,0.172067,-1.230143\H,-3
 .727092,-0.851346,0.545864\H,-2.281808,-1.435182,1.386099\H,-2.588898,

 Normal termination of Gaussian 16 at Mon Jun 23 06:17:21 2025.
