 Gaussian 16, Revision A.03,
 Gaussian 16:  ES64L-G16RevA.03 25-Dec-2016

 --------------------------
 # freq 6-311++g(d,p) m062x
 --------------------------

 -------------------
 Title Card Required
 -------------------
 Symbolic Z-matrix:
 Charge =  0 Multiplicity = 2

                         Standard orientation:
 ---------------------------------------------------------------------
 Center     Atomic      Atomic             Coordinates (Angstroms)
 Number     Number       Type             X           Y           Z
 ---------------------------------------------------------------------
      1          8           0        2.771787   -1.310514    0.027003
      2          1           0        1.873132   -1.612156   -0.170153
      3          6           0        2.553685    0.405159    0.234390
      4          1           0        3.549563    0.762504    0.437951
      5          6           0        1.358869    0.808827    0.107487
      6          6           0       -0.078796    0.782715   -0.112886
      7          8           0       -0.776007    1.757935   -0.073754
      8          8           0       -0.498477   -0.461034   -0.365764
      9          6           0       -1.918583   -0.622604   -0.586147
     10          6           0       -2.671905   -0.652817    0.728392
     11          1           0       -1.996066   -1.568165   -1.119508
     12          1           0       -2.262970    0.188069   -1.228846
     13          1           0       -3.728687   -0.848750    0.537296
     14          1           0       -2.284997   -1.444230    1.371922
     15          1           0       -2.588026    0.303945    1.244047
 ---------------------------------------------------------------------

 SCF Done:  E(UM062X) =  -420.223412444     A.U. after   19 cycles

 The electronic state is 2-A.
 Alpha  occ. eigenvalues --  -19.69640 -19.64387 -19.64353 -10.71756 -10.64019
 Alpha  occ. eigenvalues --  -10.61610 -10.59936 -10.54617  -1.26836  -1.17666
 Alpha  occ. eigenvalues --   -1.10789  -0.92637  -0.88425  -0.79334  -0.72427
 Alpha  occ. eigenvalues --   -0.65808  -0.62810  -0.59738  -0.57669  -0.54880
 Alpha  occ. eigenvalues --   -0.52998  -0.50502  -0.48940  -0.47802  -0.46143
 Alpha  occ. eigenvalues --   -0.43230  -0.42563  -0.40121  -0.39518  -0.35965
 Alpha  occ. eigenvalues --   -0.31985
 Alpha virt. eigenvalues --   -0.03297  -0.00731   0.00767   0.01245   0.01534
 Alpha virt. eigenvalues --    0.02763   0.04466   0.04939   0.05799   0.06278
 Alpha virt. eigenvalues --    0.07017   0.07206   0.08262   0.08944   0.10307

  Beta  occ. eigenvalues --  -19.69594 -19.64307 -19.63750 -10.71802 -10.64174
  Beta  occ. eigenvalues --  -10.61600 -10.59291 -10.54617  -1.26668  -1.17431
  Beta  occ. eigenvalues --   -1.08595  -0.91044  -0.87458  -0.79147  -0.71757
  Beta  occ. eigenvalues --   -0.65584  -0.62178  -0.59413  -0.57351  -0.54579
  Beta  occ. eigenvalues --   -0.51495  -0.50201  -0.47708  -0.46391  -0.43487
  Beta  occ. eigenvalues --   -0.42959  -0.41899  -0.39838  -0.38923  -0.34375
  Beta virt. eigenvalues --   -0.08854  -0.03072  -0.00689   0.00832   0.01290
  Beta virt. eigenvalues --    0.01743   0.02873   0.04837   0.05034   0.05797
  Beta virt. eigenvalues --    0.06278   0.06997   0.07763   0.08537   0.08918

 Mulliken charges and spin densities:
               1          2
     1  O   -0.329457   0.314883
     2  H    0.252580  -0.003036
     3  C   -1.231467  -0.241782
     4  H    0.202818   0.031349
     5  C    1.320123   0.737771
     6  C   -0.185811   0.133089
     7  O   -0.217892   0.017033
     8  O   -0.040233   0.002962
     9  C   -0.289077   0.004126
    10  C   -0.393119   0.002858
    11  H    0.198719   0.000364
    12  H    0.197160  -0.000277
    13  H    0.166924   0.000424
    14  H    0.165665  -0.000183
    15  H    0.183068   0.000419
 Sum of Mulliken charges =  -0.00000   1.00000

 Dipole moment (field-independent basis, Debye):
    X=             -1.9821    Y=             -0.7174    Z=             -0.1812  Tot=              2.1157
 Quadrupole moment (field-independent basis, Debye-Ang):
   XX=            -44.9972   YY=            -52.7503   ZZ=            -47.4120
   XY=             10.8435   XZ=              1.7773   YZ=              1.0656

  Exact polarizability:  94.510  -7.872  75.603   2.442   1.792  50.208
 Approx polarizability: 101.022 -16.881  95.490   4.040   2.649  58.353

 ******    1 imaginary frequencies (negative Signs) ******

                      1                      2                      3
                      A                      A                      A
 Frequencies --   -607.6506                70.3209               107.7142
 Red. masses --     11.8432                 3.6002                 6.0224
 Frc consts  --      2.5765                 0.0105                 0.0412
 IR Inten    --     51.7064                 0.0202                 1.1795

                      4                      5                      6
                      A                      A                      A
 Frequencies --    113.7707               172.8025               218.4286
 Red. masses --      3.7414                 5.4149                 1.2234
 Frc consts  --      0.0285                 0.0953                 0.0344
 IR Inten    --      1.3628                 2.6619                 2.6904

                      7                      8                      9
                      A                      A                      A
 Frequencies --    275.6058               307.2654               342.2510
 Red. masses --      1.3001                 2.8136                 2.2449
 Frc consts  --      0.0582                 0.1565                 0.1549
 IR Inten    --     40.4508                 7.5062                65.3258

                     10                     11                     12
                      A                      A                      A
 Frequencies --    359.0226               426.4848               556.1321
 Red. masses --      4.1356                 3.9927                 5.7015
 Frc consts  --      0.3141                 0.4279                 1.0390
 IR Inten    --      8.3622                 0.6788                 6.7365

                     13                     14                     15
                      A                      A                      A
 Frequencies --    600.9808               767.3819               799.9984
 Red. masses --      5.4409                 5.2514                 1.2343
 Frc consts  --      1.1578                 1.8220                 0.4654
 IR Inten    --     10.2345                 6.6541                 9.1368

                     16                     17                     18
                      A                      A                      A
 Frequencies --    808.1461               886.0892               922.2789
 Red. masses --      1.6469                 3.0447                 2.7496
 Frc consts  --      0.6337                 1.4085                 1.3780
 IR Inten    --     44.4043                17.7430                 4.4055

                     19                     20                     21
                      A                      A                      A
 Frequencies --    990.2498              1065.8427              1126.7403
 Red. masses --      1.1065                 3.8307                 2.0556
 Frc consts  --      0.6393                 2.5640                 1.5376
 IR Inten    --     53.2976                23.0698                20.2844

                     22                     23                     24
                      A                      A                      A
 Frequencies --   1159.3471              1202.6812              1260.8782
 Red. masses --      1.1442                 1.7715                 5.2838
 Frc consts  --      0.9061                 1.5097                 4.9493
 IR Inten    --     37.3392                 5.2919               539.4156

                     25                     26                     27
                      A                      A                      A
 Frequencies --   1345.4783              1401.8424              1430.9637
 Red. masses --      1.1556                 1.2520                 1.3513
 Frc consts  --      1.2326                 1.4496                 1.6303
 IR Inten    --     40.5202                12.7706                 9.0375

                     28                     29                     30
                      A                      A                      A
 Frequencies --   1493.7038              1503.2178              1515.0554
 Red. masses --      1.0403                 1.0626                 1.0798
 Frc consts  --      1.3676                 1.4147                 1.4604
 IR Inten    --     12.4217                 1.5572                15.6551

                     31                     32                     33
                      A                      A                      A
 Frequencies --   1825.4647              1882.0765              3075.4022
 Red. masses --     11.1254                 8.2079                 1.0354
 Frc consts  --     21.8429                17.1300                 5.7699
 IR Inten    --    277.9739               247.5010                 8.8462

                     34                     35                     36
                      A                      A                      A
 Frequencies --   3109.2105              3150.8894              3155.6823
 Red. masses --      1.0605                 1.1017                 1.1048
 Frc consts  --      6.0404                 6.4446                 6.4821
 IR Inten    --     16.2084                12.7432                 2.3478

                     37                     38                     39
                      A                      A                      A
 Frequencies --   3176.2271              3311.0921              3824.2322
 Red. masses --      1.1078                 1.1140                 1.0680
 Frc consts  --      6.5845                 7.1958                 9.2027
 IR Inten    --     11.6727                16.1176                45.4503

 - Thermochemistry -
 -------------------
 Temperature   298.150 Kelvin.  Pressure   1.00000 Atm.
 Atom     1 has atomic number  8 and mass  15.99491

 Molecular mass:   115.03952 amu.
 Principal axes and moments of inertia in atomic units:
                           1         2         3
     Eigenvalues --   485.354001565.672031905.23809
           X            0.99961   0.02728  -0.00543
           Y           -0.02728   0.99963  -0.00011
           Z            0.00542   0.00026   0.99999
 This molecule is an asymmetric top.
 Rotational symmetry number  1.
 Warning -- assumption of classical behavior for rotation
           may cause significant error
 Rotational temperatures (Kelvin)      0.17846     0.05532     0.04546
 Rotational constants (GHZ):           3.71840     1.15269     0.94725
    1 imaginary frequencies ignored.
 Zero-point vibrational energy     297517.0 (Joules/Mol)
                                   71.10826 (Kcal/Mol)
 Warning -- explicit consideration of  12 degrees of freedom as
           vibrations may cause significant error
 Vibrational temperatures:    101.18   154.98   163.69   248.62   314.27
          (Kelvin)            396.54   442.09   492.42   516.55   613.62
                              800.15   864.68  1104.09  1151.02  1162.74
                             1274.88  1326.95  1424.75  1533.51  1621.13
                             1668.04  1730.39  1814.12  1935.84  2016.94
                             2058.84  2149.11  2162.80  2179.83  2626.44
                             2707.89  4424.82  4473.46  4533.43  4540.32
                             4569.88  4763.92  5502.22

 Zero-point correction=                           0.113318 (Hartree/Particle)
 Thermal correction to Energy=                    0.122251
 Thermal correction to Enthalpy=                  0.123195
 Thermal correction to Gibbs Free Energy=         0.078634
 Sum of electronic and zero-point Energies=           -420.110094
 Sum of electronic and thermal Energies=              -420.101161
 Sum of electronic and thermal Enthalpies=            -420.100217
 Sum of electronic and thermal Free Energies=         -420.144778

                     E (Thermal)             CV                S
                      KCal/Mol        Cal/Mol-Kelvin    Cal/Mol-Kelvin
 Total                   76.714             30.731             93.786
 Electronic               0.000              0.000              1.377
 Translational            0.889              2.981             40.136
 Rotational               0.889              2.981             28.761
 Vibrational             74.936             24.769             23.512
 Vibration     1          0.598              1.968              4.144
 Vibration     2          0.606              1.943              3.310
 Vibration     3          0.607              1.938              3.204
 Vibration     4          0.626              1.876              2.405
 Vibration     5          0.646              1.813              1.972
 Vibration     6          0.677              1.718              1.561
 Vibration     7          0.697              1.660              1.377
 Vibration     8          0.721              1.591              1.202
 Vibration     9          0.734              1.557              1.126
 Vibration    10          0.788              1.413              0.870
 Vibration    11          0.912              1.126              0.532
 Vibration    12          0.959              1.030              0.448

 1\1\GINC-AJ\Freq\UM062X\6-311++G(d,p)\C5H7O3(2)\AAYUSH\16-Aug-2025\0\\
 # freq 6-311++g(d,p) m062x\\Title Card Required\\0,2\O,2.7103,-1.34134
 ,0.046678\H,1.812237,-1.646229,-0.148172\C,2.488873,0.375454,0.240839\
 H,3.48405,0.736281,0.441667\C,1.293284,0.775822,0.110801\C,-0.144319,0
 .745234,-0.109401\O,-0.843416,1.719376,-0.077799\O,-0.561585,-0.501235
 ,-0.352703\C,-1.981367,-0.667243,-0.571871\C,-2.734682,-0.688787,0.742
 843\H,-2.057,-1.617032,-1.097935\H,-2.327295,0.137788,-1.220803\H,-3.7
 91075,-0.888229,0.553235\H,-2.34627,-1.474471,1.392459\H,-2.652673,0.2

 Normal termination of Gaussian 16 at Sat Aug 16 19:20:46 2025.
