 Gaussian 16, Revision A.03,
 Gaussian 16:  ES64L-G16RevA.03 25-Dec-2016

 --------------------------
 # freq 6-311++g(d,p) m062x
 --------------------------

 -------------------
 Title Card Required
 -------------------
 Symbolic Z-matrix:
 Charge =  0 Multiplicity = 2

                         Standard orientation:
 ---------------------------------------------------------------------
 Center     Atomic      Atomic             Coordinates (Angstroms)
 Number     Number       Type             X           Y           Z
 ---------------------------------------------------------------------
      1          8           0        2.775180   -1.346114    0.025886
      2          1           0        1.869897   -1.632413   -0.169625
      3          6           0        2.550323    0.469835    0.241340
      4          1           0        3.568701    0.747332    0.436224
      5          6           0        1.357237    0.800160    0.103675
      6          6           0       -0.080469    0.783367   -0.115127
      7          8           0       -0.777309    1.757893   -0.078626
      8          8           0       -0.498246   -0.461600   -0.364350
      9          6           0       -1.918277   -0.624997   -0.584299
     10          6           0       -2.671592   -0.652191    0.730309
     11          1           0       -1.994748   -1.572083   -1.115021
     12          1           0       -2.263365    0.183540   -1.229320
     13          1           0       -3.728212   -0.849353    0.539676
     14          1           0       -2.284126   -1.441528    1.376011
     15          1           0       -2.588470    0.306028    1.243383
 ---------------------------------------------------------------------

 SCF Done:  E(UM062X) =  -420.211689678     A.U. after   20 cycles

 The electronic state is 2-A.
 Alpha  occ. eigenvalues --  -19.69766 -19.64595 -19.64096 -10.72007 -10.62974
 Alpha  occ. eigenvalues --  -10.61694 -10.59863 -10.54679  -1.27002  -1.17858
 Alpha  occ. eigenvalues --   -1.10193  -0.92765  -0.88550  -0.79454  -0.72369
 Alpha  occ. eigenvalues --   -0.65865  -0.62919  -0.59871  -0.57810  -0.54943
 Alpha  occ. eigenvalues --   -0.52411  -0.50569  -0.48946  -0.47923  -0.46222
 Alpha  occ. eigenvalues --   -0.43245  -0.41992  -0.40272  -0.39685  -0.36506
 Alpha  occ. eigenvalues --   -0.32347
 Alpha virt. eigenvalues --   -0.03208  -0.00731   0.00762   0.01244   0.01565
 Alpha virt. eigenvalues --    0.02689   0.04525   0.04927   0.05668   0.05990
 Alpha virt. eigenvalues --    0.06731   0.07002   0.08163   0.08791   0.10085

  Beta  occ. eigenvalues --  -19.69730 -19.64524 -19.63191 -10.72050 -10.63127
  Beta  occ. eigenvalues --  -10.61686 -10.59356 -10.54679  -1.26865  -1.17655
  Beta  occ. eigenvalues --   -1.06869  -0.91354  -0.87786  -0.79296  -0.71851
  Beta  occ. eigenvalues --   -0.65687  -0.62370  -0.59597  -0.57545  -0.54686
  Beta  occ. eigenvalues --   -0.50829  -0.50107  -0.47812  -0.46429  -0.43147
  Beta  occ. eigenvalues --   -0.41678  -0.41006  -0.39961  -0.39034  -0.34650
  Beta virt. eigenvalues --   -0.09661  -0.03079  -0.00674   0.00894   0.01281
  Beta virt. eigenvalues --    0.01754   0.02833   0.04880   0.05046   0.05800
  Beta virt. eigenvalues --    0.06235   0.06960   0.07530   0.08471   0.08859

 Mulliken charges and spin densities:
               1          2
     1  O   -0.332560   0.483863
     2  H    0.247391  -0.006312
     3  C   -1.490675  -0.277973
     4  H    0.203419   0.029902
     5  C    1.551834   0.607994
     6  C   -0.159503   0.139949
     7  O   -0.212342   0.016367
     8  O   -0.037949   0.000448
     9  C   -0.291344   0.002916
    10  C   -0.392242   0.002250
    11  H    0.200130   0.000277
    12  H    0.197027  -0.000203
    13  H    0.167413   0.000350
    14  H    0.166396  -0.000190
    15  H    0.183006   0.000359
 Sum of Mulliken charges =  -0.00000   1.00000

 Dipole moment (field-independent basis, Debye):
    X=             -2.0665    Y=             -0.6225    Z=             -0.1751  Tot=              2.1654
 Quadrupole moment (field-independent basis, Debye-Ang):
   XX=            -44.7094   YY=            -52.7128   ZZ=            -47.3980
   XY=             10.9978   XZ=              1.8171   YZ=              1.0795

  Exact polarizability:  95.384  -9.511  79.302   2.357   2.028  50.181
 Approx polarizability: 102.838 -17.985  97.759   4.243   2.722  58.148

 ******    1 imaginary frequencies (negative Signs) ******

                      1                      2                      3
                      A                      A                      A
 Frequencies --   -765.9872                66.6709                95.3140
 Red. masses --     10.9890                 3.7056                 5.9564
 Frc consts  --      3.7988                 0.0097                 0.0319
 IR Inten    --      1.7503                 0.0273                 1.8997

                      4                      5                      6
                      A                      A                      A
 Frequencies --    113.2194               154.9912               216.6969
 Red. masses --      3.7975                 4.6027                 1.2535
 Frc consts  --      0.0287                 0.0651                 0.0347
 IR Inten    --      2.0036                 3.3214                 2.7731

                      7                      8                      9
                      A                      A                      A
 Frequencies --    251.0561               291.5656               301.5049
 Red. masses --      1.2844                 3.2506                 2.3519
 Frc consts  --      0.0477                 0.1628                 0.1260
 IR Inten    --     53.6079                 4.2700                54.8706

                     10                     11                     12
                      A                      A                      A
 Frequencies --    344.0418               422.3134               552.9361
 Red. masses --      3.6290                 3.9891                 5.9989
 Frc consts  --      0.2531                 0.4192                 1.0806
 IR Inten    --      4.9974                 1.4622                 5.9400

                     13                     14                     15
                      A                      A                      A
 Frequencies --    594.7753               767.0863               790.9936
 Red. masses --      5.5661                 3.3187                 1.8566
 Frc consts  --      1.1601                 1.1506                 0.6844
 IR Inten    --      7.5838                 0.8797                53.0268

                     16                     17                     18
                      A                      A                      A
 Frequencies --    801.1720               886.9679               902.6402
 Red. masses --      1.2638                 2.9826                 1.1801
 Frc consts  --      0.4780                 1.3825                 0.5665
 IR Inten    --      9.4627                29.5485                97.4821

                     19                     20                     21
                      A                      A                      A
 Frequencies --    924.8105              1053.3864              1067.9055
 Red. masses --      2.4170                 1.1396                 3.6495
 Frc consts  --      1.2180                 0.7451                 2.4521
 IR Inten    --      0.2300                12.9368                28.8067

                     22                     23                     24
                      A                      A                      A
 Frequencies --   1126.8488              1202.3718              1259.2102
 Red. masses --      2.0580                 1.7818                 5.6087
 Frc consts  --      1.5397                 1.5177                 5.2397
 IR Inten    --     20.7878                10.1180               552.2381

                     25                     26                     27
                      A                      A                      A
 Frequencies --   1345.4614              1402.0070              1431.0716
 Red. masses --      1.1548                 1.2519                 1.3511
 Frc consts  --      1.2316                 1.4499                 1.6302
 IR Inten    --     39.2999                13.5030                 8.7039

                     28                     29                     30
                      A                      A                      A
 Frequencies --   1493.7512              1503.1660              1515.0564
 Red. masses --      1.0403                 1.0622                 1.0802
 Frc consts  --      1.3676                 1.4140                 1.4609
 IR Inten    --     12.5820                 1.4976                16.2950

                     31                     32                     33
                      A                      A                      A
 Frequencies --   1835.5976              1953.2303              3075.6541
 Red. masses --     11.7897                 7.1867                 1.0354
 Frc consts  --     23.4050                16.1543                 5.7708
 IR Inten    --    365.3396               128.1669                 8.6637

                     34                     35                     36
                      A                      A                      A
 Frequencies --   3109.4001              3151.3120              3155.8819
 Red. masses --      1.0606                 1.1017                 1.1048
 Frc consts  --      6.0417                 6.4460                 6.4830
 IR Inten    --     15.9360                12.6854                 2.1929

                     37                     38                     39
                      A                      A                      A
 Frequencies --   3176.5958              3365.7010              3812.8588
 Red. masses --      1.1078                 1.1256                 1.0681
 Frc consts  --      6.5860                 7.5125                 9.1487
 IR Inten    --     11.3191                33.8537                44.9383

 - Thermochemistry -
 -------------------
 Temperature   298.150 Kelvin.  Pressure   1.00000 Atm.
 Atom     1 has atomic number  8 and mass  15.99491

 Molecular mass:   115.03952 amu.
 Principal axes and moments of inertia in atomic units:
                           1         2         3
     Eigenvalues --   493.052261566.370851913.35380
           X            0.99961   0.02724  -0.00548
           Y           -0.02724   0.99963  -0.00016
           Z            0.00547   0.00031   0.99998
 This molecule is an asymmetric top.
 Rotational symmetry number  1.
 Warning -- assumption of classical behavior for rotation
           may cause significant error
 Rotational temperatures (Kelvin)      0.17567     0.05530     0.04527
 Rotational constants (GHZ):           3.66034     1.15218     0.94323
    1 imaginary frequencies ignored.
 Zero-point vibrational energy     296166.8 (Joules/Mol)
                                   70.78557 (Kcal/Mol)
 Warning -- explicit consideration of  12 degrees of freedom as
           vibrations may cause significant error
 Vibrational temperatures:     95.92   137.14   162.90   223.00   311.78
          (Kelvin)            361.21   419.50   433.80   495.00   607.61
                              795.55   855.75  1103.67  1138.06  1152.71
                             1276.15  1298.70  1330.60  1515.59  1536.48
                             1621.28  1729.94  1811.72  1935.82  2017.18
                             2058.99  2149.17  2162.72  2179.83  2641.02
                             2810.26  4425.18  4473.73  4534.04  4540.61
                             4570.41  4842.49  5485.85

 Zero-point correction=                           0.112804 (Hartree/Particle)
 Thermal correction to Energy=                    0.121958
 Thermal correction to Enthalpy=                  0.122902
 Thermal correction to Gibbs Free Energy=         0.077759
 Sum of electronic and zero-point Energies=           -420.098886
 Sum of electronic and thermal Energies=              -420.089732
 Sum of electronic and thermal Enthalpies=            -420.088788
 Sum of electronic and thermal Free Energies=         -420.133931

                     E (Thermal)             CV                S
                      KCal/Mol        Cal/Mol-Kelvin    Cal/Mol-Kelvin
 Total                   76.530             31.192             95.012
 Electronic               0.000              0.000              1.377
 Translational            0.889              2.981             40.136
 Rotational               0.889              2.981             28.782
 Vibrational             74.752             25.231             24.717
 Vibration     1          0.598              1.970              4.249
 Vibration     2          0.603              1.953              3.548
 Vibration     3          0.607              1.938              3.213
 Vibration     4          0.620              1.897              2.610
 Vibration     5          0.646              1.816              1.987
 Vibration     6          0.663              1.761              1.723
 Vibration     7          0.687              1.689              1.465
 Vibration     8          0.693              1.671              1.409
 Vibration     9          0.723              1.587              1.193
 Vibration    10          0.785              1.422              0.884
 Vibration    11          0.908              1.133              0.538
 Vibration    12          0.952              1.043              0.459

 1\1\GINC-AJ\Freq\UM062X\6-311++G(d,p)\C5H7O3(2)\AAYUSH\16-Aug-2025\0\\
 # freq 6-311++g(d,p) m062x\\Title Card Required\\0,2\O,2.712999,-1.379
 212,0.042069\H,1.80809,-1.667612,-0.152078\C,2.485828,0.437482,0.24863
 1\H,3.503843,0.717221,0.442198\C,1.29233,0.765615,0.109302\C,-0.145343
 ,0.745928,-0.109475\O,-0.843421,1.719736,-0.077769\O,-0.561528,-0.5007
 72,-0.352625\C,-1.98134,-0.667045,-0.571831\C,-2.734683,-0.688766,0.74
 2863\H,-2.056584,-1.616811,-1.097919\H,-2.327423,0.13789,-1.220813\H,-
 3.791043,-0.888199,0.553152\H,-2.346246,-1.474444,1.392433\H,-2.652801

 Normal termination of Gaussian 16 at Sat Aug 16 19:14:05 2025.
