 Gaussian 16, Revision A.03,
 Gaussian 16:  ES64L-G16RevA.03 25-Dec-2016

 -------------------
 # freq 6-31+g m062x
 -------------------

 -------------------
 Title Card Required
 -------------------
 Symbolic Z-matrix:
 Charge =  0 Multiplicity = 2

                         Standard orientation:
 ---------------------------------------------------------------------
 Center     Atomic      Atomic             Coordinates (Angstroms)
 Number     Number       Type             X           Y           Z
 ---------------------------------------------------------------------
      1          8           0        2.791207   -1.486912    0.024439
      2          1           0        1.859466   -1.694219   -0.163120
      3          6           0        2.540232    0.701813    0.262805
      4          1           0        3.592387    0.723527    0.425960
      5          6           0        1.353214    0.793992    0.092860
      6          6           0       -0.083357    0.784098   -0.123979
      7          8           0       -0.784773    1.754443   -0.099253
      8          8           0       -0.498575   -0.467196   -0.359384
      9          6           0       -1.916688   -0.635919   -0.576960
     10          6           0       -2.670288   -0.650339    0.737920
     11          1           0       -1.992765   -1.588907   -1.097423
     12          1           0       -2.264574    0.164644   -1.230485
     13          1           0       -3.726564   -0.852100    0.550142
     14          1           0       -2.280694   -1.431276    1.392602
     15          1           0       -2.588804    0.313784    1.240040
 ---------------------------------------------------------------------

 SCF Done:  E(UM062X) =  -419.962843055     A.U. after   23 cycles

 The electronic state is 2-A.
 Alpha  occ. eigenvalues --  -19.71923 -19.69135 -19.67378 -10.73962 -10.62559
 Alpha  occ. eigenvalues --  -10.60109 -10.59335 -10.55410  -1.28986  -1.19747
 Alpha  occ. eigenvalues --   -1.13488  -0.92356  -0.88633  -0.79549  -0.72108
 Alpha  occ. eigenvalues --   -0.65690  -0.62388  -0.59551  -0.57840  -0.55067
 Alpha  occ. eigenvalues --   -0.53829  -0.50566  -0.49552  -0.47986  -0.46312
 Alpha  occ. eigenvalues --   -0.43141  -0.42223  -0.39980  -0.39368  -0.37869
 Alpha  occ. eigenvalues --   -0.35599
 Alpha virt. eigenvalues --   -0.02435   0.01476   0.02650   0.03063   0.03876
 Alpha virt. eigenvalues --    0.04395   0.05387   0.06319   0.07162   0.07748
 Alpha virt. eigenvalues --    0.08401   0.08526   0.08775   0.11208   0.12041

  Beta  occ. eigenvalues --  -19.71918 -19.67526 -19.67358 -10.73975 -10.62557
  Beta  occ. eigenvalues --  -10.60129 -10.59198 -10.55410  -1.28956  -1.19702
  Beta  occ. eigenvalues --   -1.06401  -0.92036  -0.88403  -0.79483  -0.71962
  Beta  occ. eigenvalues --   -0.65647  -0.62106  -0.59487  -0.57761  -0.54980
  Beta  occ. eigenvalues --   -0.50929  -0.50374  -0.47936  -0.46359  -0.43097
  Beta  occ. eigenvalues --   -0.40434  -0.39706  -0.39492  -0.37903  -0.36573
  Beta virt. eigenvalues --   -0.08589  -0.02416   0.01521   0.02820   0.03089
  Beta virt. eigenvalues --    0.04020   0.04479   0.05740   0.06439   0.07265
  Beta virt. eigenvalues --    0.07859   0.08410   0.08660   0.08899   0.11247

 Mulliken charges and spin densities:
               1          2
     1  O   -0.462984   0.917913
     2  H    0.426127  -0.033034
     3  C   -0.084984  -0.145577
     4  H    0.352705   0.008073
     5  C    0.447214   0.212453
     6  C   -0.353713   0.036035
     7  O   -0.353705   0.005396
     8  O   -0.268647  -0.001819
     9  C   -0.261940  -0.000162
    10  C   -0.567283   0.000511
    11  H    0.221872   0.000156
    12  H    0.236139   0.000010
    13  H    0.211485   0.000032
    14  H    0.220039   0.000003
    15  H    0.237675   0.000009
 Sum of Mulliken charges =  -0.00000   1.00000

 Dipole moment (field-independent basis, Debye):
    X=             -1.9038    Y=             -1.5033    Z=             -0.2764  Tot=              2.4415
 Quadrupole moment (field-independent basis, Debye-Ang):
   XX=            -44.3912   YY=            -52.7729   ZZ=            -47.6723
   XY=              9.2996   XZ=              1.5199   YZ=              1.1174

  Exact polarizability:  89.582  -4.547  68.958   3.624   1.488  45.945
 Approx polarizability:  98.772 -11.068  76.890   6.440   1.876  48.012

 ******    4 imaginary frequencies (negative Signs) ******

                      1                      2                      3
                      A                      A                      A
 Frequencies --   -415.0056              -122.2512              -108.2130
 Red. masses --      1.0720                 6.7805                 5.5324
 Frc consts  --      0.1088                 0.0597                 0.0382
 IR Inten    --    154.7572                 2.2062                 4.9792

                      4                      5                      6
                      A                      A                      A
 Frequencies --    -13.1440                39.6622               147.7103
 Red. masses --      3.5508                 2.6743                 2.4747
 Frc consts  --      0.0004                 0.0025                 0.0318
 IR Inten    --      7.9025                 1.0222                 6.4972

                      7                      8                      9
                      A                      A                      A
 Frequencies --    176.2097               192.2934               242.1017
 Red. masses --      9.3384                 1.6086                 3.9769
 Frc consts  --      0.1708                 0.0350                 0.1373
 IR Inten    --      1.5856                 2.2554                 1.1482

                     10                     11                     12
                      A                      A                      A
 Frequencies --    314.2638               417.6651               452.8562
 Red. masses --      3.0007                 3.4394                 1.1659
 Frc consts  --      0.1746                 0.3535                 0.1409
 IR Inten    --     11.9274                12.8318               163.7481

                     13                     14                     15
                      A                      A                      A
 Frequencies --    583.9397               618.6060               776.1899
 Red. masses --      4.1994                 8.3820                 3.4299
 Frc consts  --      0.8437                 1.8898                 1.2175
 IR Inten    --      9.0843                12.0036                65.6920

                     16                     17                     18
                      A                      A                      A
 Frequencies --    804.9747               816.2003               861.8428
 Red. masses --      1.1586                 1.2820                 1.8063
 Frc consts  --      0.4423                 0.5032                 0.7905
 IR Inten    --     69.3824                13.5721                13.5667

                     19                     20                     21
                      A                      A                      A
 Frequencies --    897.2017               947.0747              1110.9630
 Red. masses --      3.2514                 2.6014                 4.2537
 Frc consts  --      1.5420                 1.3748                 3.0933
 IR Inten    --     18.7041                 4.6645                 6.6398

                     22                     23                     24
                      A                      A                      A
 Frequencies --   1156.9271              1227.2524              1311.7563
 Red. masses --      2.0659                 1.7620                 3.3017
 Frc consts  --      1.6292                 1.5636                 3.3473
 IR Inten    --     18.4976                 7.1721               464.7818

                     25                     26                     27
                      A                      A                      A
 Frequencies --   1365.3172              1441.4977              1457.5339
 Red. masses --      1.3494                 1.3211                 1.2541
 Frc consts  --      1.4821                 1.6174                 1.5697
 IR Inten    --    137.6971                16.6172                18.6287

                     28                     29                     30
                      A                      A                      A
 Frequencies --   1528.3719              1537.0094              1545.1159
 Red. masses --      1.0416                 1.0683                 1.0718
 Frc consts  --      1.4335                 1.4870                 1.5076
 IR Inten    --     15.3168                 4.2395                22.4206

                     31                     32                     33
                      A                      A                      A
 Frequencies --   1917.4836              2297.5112              3108.1338
 Red. masses --     12.3276                 5.7258                 1.0352
 Frc consts  --     26.7051                17.8075                 5.8920
 IR Inten    --    333.4923                84.5087                11.9387

                     34                     35                     36
                      A                      A                      A
 Frequencies --   3139.2523              3187.6611              3192.1245
 Red. masses --      1.0599                 1.1010                 1.1023
 Frc consts  --      6.1539                 6.5915                 6.6180
 IR Inten    --     18.6017                11.5948                 6.9147

                     37                     38                     39
                      A                      A                      A
 Frequencies --   3212.4516              3530.9795              3790.2816
 Red. masses --      1.1054                 1.1723                 1.0675
 Frc consts  --      6.7214                 8.6114                 9.0355
 IR Inten    --     15.2398                69.8095                10.3747

 - Thermochemistry -
 -------------------
 Temperature   298.150 Kelvin.  Pressure   1.00000 Atm.
 Atom     1 has atomic number  8 and mass  15.99491

 Molecular mass:   115.03952 amu.
 Principal axes and moments of inertia in atomic units:
                           1         2         3
     Eigenvalues --   528.462651569.899531951.13818
           X            0.99960   0.02764  -0.00575
           Y           -0.02764   0.99962  -0.00034
           Z            0.00574   0.00049   0.99998
 This molecule is an asymmetric top.
 Rotational symmetry number  1.
 Warning -- assumption of classical behavior for rotation
           may cause significant error
 Rotational temperatures (Kelvin)      0.16390     0.05517     0.04439
 Rotational constants (GHZ):           3.41508     1.14959     0.92497
    4 imaginary frequencies ignored.
 Zero-point vibrational energy     295157.1 (Joules/Mol)
                                   70.54424 (Kcal/Mol)
 Warning -- explicit consideration of  10 degrees of freedom as
           vibrations may cause significant error
 Vibrational temperatures:     57.07   212.52   253.53   276.67   348.33
          (Kelvin)            452.16   600.93   651.56   840.16   890.04
                             1116.76  1158.18  1174.33  1240.00  1290.87
                             1362.63  1598.43  1664.56  1765.74  1887.32
                             1964.39  2073.99  2097.07  2198.99  2211.41
                             2223.08  2758.83  3305.61  4471.91  4516.68
                             4586.33  4592.76  4622.00  5080.29  5453.37

 Zero-point correction=                           0.112419 (Hartree/Particle)
 Thermal correction to Energy=                    0.120203
 Thermal correction to Enthalpy=                  0.121148
 Thermal correction to Gibbs Free Energy=         0.078411
 Sum of electronic and zero-point Energies=           -419.850424
 Sum of electronic and thermal Energies=              -419.842640
 Sum of electronic and thermal Enthalpies=            -419.841695
 Sum of electronic and thermal Free Energies=         -419.884432

                     E (Thermal)             CV                S
                      KCal/Mol        Cal/Mol-Kelvin    Cal/Mol-Kelvin
 Total                   75.429             26.644             89.947
 Electronic               0.000              0.000              1.377
 Translational            0.889              2.981             40.136
 Rotational               0.889              2.981             28.872
 Vibrational             73.651             20.682             19.562
 Vibration     1          0.594              1.981              5.276
 Vibration     2          0.617              1.905              2.702
 Vibration     3          0.628              1.872              2.368
 Vibration     4          0.634              1.851              2.206
 Vibration     5          0.658              1.776              1.787
 Vibration     6          0.702              1.646              1.340
 Vibration     7          0.781              1.432              0.900
 Vibration     8          0.811              1.355              0.787
 Vibration     9          0.941              1.066              0.478
 Vibration    10          0.978              0.993              0.419

 Normal termination of Gaussian 16 at Fri Jun 20 14:14:34 2025.
