 Gaussian 16, Revision A.03,
 Gaussian 16:  ES64L-G16RevA.03 25-Dec-2016

 --------------------------
 # ccsd(t)/6-311++g(d,p) sp
 --------------------------

 -------------------
 Title Card Required
 -------------------
 Symbolic Z-matrix:
 Charge =  0 Multiplicity = 2

                         Standard orientation:
 ---------------------------------------------------------------------
 Center     Atomic      Atomic             Coordinates (Angstroms)
 Number     Number       Type             X           Y           Z
 ---------------------------------------------------------------------
      1          8           0        2.781441   -1.405952    0.024863
      2          1           0        1.865981   -1.667449   -0.167824
      3          6           0        2.543601    0.578022    0.252036
      4          1           0        3.586876    0.713687    0.430000
      5          6           0        1.356326    0.790905    0.098324
      6          6           0       -0.081704    0.784383   -0.118801
      7          8           0       -0.780077    1.757005   -0.087305
      8          8           0       -0.498316   -0.463501   -0.362160
      9          6           0       -1.917406   -0.629447   -0.581176
     10          6           0       -2.671010   -0.651324    0.733472
     11          1           0       -1.993360   -1.579180   -1.107396
     12          1           0       -2.263952    0.175451   -1.230026
     13          1           0       -3.727416   -0.850734    0.543962
     14          1           0       -2.282478   -1.436906    1.383144
     15          1           0       -2.588887    0.309489    1.241819
 ---------------------------------------------------------------------

 SCF Done:  E(UHF) =  -417.982778573     A.U. after   34 cycles
 E2 =    -0.1254166602D+01 EUMP2 =    -0.41923694517490D+03
 CCSD(T)= -0.41935440806D+03

 The electronic state is 2-A.
 Alpha  occ. eigenvalues --  -20.62401 -20.61720 -20.57201 -11.42034 -11.30593
 Alpha  occ. eigenvalues --  -11.27207 -11.26763 -11.23299  -1.49194  -1.39442
 Alpha  occ. eigenvalues --   -1.37414  -1.09695  -1.04592  -0.92788  -0.84597
 Alpha  occ. eigenvalues --   -0.77465  -0.73852  -0.70762  -0.67543  -0.65941
 Alpha  occ. eigenvalues --   -0.64558  -0.63908  -0.59538  -0.56407  -0.55023
 Alpha  occ. eigenvalues --   -0.54665  -0.51550  -0.49392  -0.48179  -0.43286
 Alpha  occ. eigenvalues --   -0.42253
 Alpha virt. eigenvalues --    0.03703   0.04747   0.05467   0.05986   0.07462
 Alpha virt. eigenvalues --    0.08900   0.08948   0.09205   0.11366   0.12281
 Alpha virt. eigenvalues --    0.12735   0.13594   0.14649   0.15183   0.16871

  Beta  occ. eigenvalues --  -20.62362 -20.57947 -20.56743 -11.42407 -11.30579
  Beta  occ. eigenvalues --  -11.28995 -11.24675 -11.23298  -1.48901  -1.38661
  Beta  occ. eigenvalues --   -1.23854  -1.07629  -1.04578  -0.93409  -0.84354
  Beta  occ. eigenvalues --   -0.77261  -0.73515  -0.70177  -0.67140  -0.64090
  Beta  occ. eigenvalues --   -0.62211  -0.59100  -0.55491  -0.54884  -0.51447
  Beta  occ. eigenvalues --   -0.50860  -0.48456  -0.47087  -0.44430  -0.42592
  Beta virt. eigenvalues --    0.03678   0.04666   0.05384   0.05674   0.07201
  Beta virt. eigenvalues --    0.07486   0.08602   0.08944   0.10233   0.11885
  Beta virt. eigenvalues --    0.12659   0.13310   0.13818   0.14217   0.15029

 Mulliken charges and spin densities:
               1          2
     1  O   -0.246597   0.895057
     2  H    0.263068  -0.030395
     3  C   -2.364619  -0.921341
     4  H    0.204359   0.074549
     5  C    2.180142   0.923415
     6  C    0.086442  -0.031314
     7  O   -0.274723   0.091992
     8  O   -0.124276  -0.005362
     9  C   -0.178840   0.001402
    10  C   -0.346396   0.001540
    11  H    0.167375   0.000187
    12  H    0.180664  -0.000177
    13  H    0.136033   0.000239
    14  H    0.143459  -0.000063
    15  H    0.173911   0.000272
 Sum of Mulliken charges =  -0.00000   1.00000

 Dipole moment (field-independent basis, Debye):
    X=             -1.3495    Y=             -1.9017    Z=             -0.2810  Tot=              2.3487
 Quadrupole moment (field-independent basis, Debye-Ang):
   XX=            -42.9122   YY=            -52.3483   ZZ=            -47.3744
   XY=              8.0991   XZ=              1.6810   YZ=              1.0383

 MP3-0=-419.2813997\MP4SDQ=-419.2940617\CCSD=-419.3004583\CCSD(T)=-419.
 Normal termination of Gaussian 16 at Wed Aug  6 06:45:36 2025.
