 Gaussian 16, Revision A.03,
 Gaussian 16:  ES64L-G16RevA.03 25-Dec-2016

 --------------------------
 # ccsd(t)/6-311++g(d,p) sp
 --------------------------

 -------------------
 Title Card Required
 -------------------
 Symbolic Z-matrix:
 Charge =  0 Multiplicity = 2

                         Standard orientation:
 ---------------------------------------------------------------------
 Center     Atomic      Atomic             Coordinates (Angstroms)
 Number     Number       Type             X           Y           Z
 ---------------------------------------------------------------------
      1          8           0        2.777459   -1.369534    0.025377
      2          1           0        1.868246   -1.647121   -0.169150
      3          6           0        2.547331    0.513261    0.245740
      4          1           0        3.578297    0.732756    0.433960
      5          6           0        1.357055    0.795164    0.101428
      6          6           0       -0.081133    0.783875   -0.116565
      7          8           0       -0.778300    1.757684   -0.081972
      8          8           0       -0.498182   -0.462184   -0.363457
      9          6           0       -1.917973   -0.626652   -0.583079
     10          6           0       -2.671378   -0.651804    0.731544
     11          1           0       -1.994053   -1.574766   -1.112053
     12          1           0       -2.263603    0.180458   -1.229617
     13          1           0       -3.727905   -0.849828    0.541288
     14          1           0       -2.283514   -1.439706    1.378760
     15          1           0       -2.588691    0.307411    1.242819
 ---------------------------------------------------------------------

 SCF Done:  E(UHF) =  -417.980980673     A.U. after   32 cycles
 E2 =    -0.1252550171D+01 EUMP2 =    -0.41923353084381D+03
 CCSD(T)= -0.41935653793D+03

 The electronic state is 2-A.
 Alpha  occ. eigenvalues --  -20.62451 -20.61148 -20.57342 -11.42041 -11.30638
 Alpha  occ. eigenvalues --  -11.28027 -11.27412 -11.23335  -1.49303  -1.39589
 Alpha  occ. eigenvalues --   -1.36736  -1.10134  -1.04679  -0.92784  -0.84791
 Alpha  occ. eigenvalues --   -0.77576  -0.73848  -0.70857  -0.67653  -0.65321
 Alpha  occ. eigenvalues --   -0.64390  -0.63213  -0.59626  -0.56556  -0.55067
 Alpha  occ. eigenvalues --   -0.54146  -0.51605  -0.49506  -0.48338  -0.43528
 Alpha  occ. eigenvalues --   -0.42545
 Alpha virt. eigenvalues --    0.03713   0.04803   0.05459   0.05985   0.07442
 Alpha virt. eigenvalues --    0.08881   0.08969   0.09206   0.11330   0.12242
 Alpha virt. eigenvalues --    0.12702   0.13572   0.14701   0.15143   0.16955

  Beta  occ. eigenvalues --  -20.62398 -20.57703 -20.56797 -11.42482 -11.30620
  Beta  occ. eigenvalues --  -11.30206 -11.24831 -11.23334  -1.48942  -1.38656
  Beta  occ. eigenvalues --   -1.24794  -1.07476  -1.04556  -0.93481  -0.84418
  Beta  occ. eigenvalues --   -0.77314  -0.73442  -0.70177  -0.67168  -0.64111
  Beta  occ. eigenvalues --   -0.61962  -0.59098  -0.55483  -0.54909  -0.51552
  Beta  occ. eigenvalues --   -0.51148  -0.48420  -0.47031  -0.45507  -0.42435
  Beta virt. eigenvalues --    0.03695   0.04728   0.05310   0.05583   0.06933
  Beta virt. eigenvalues --    0.07455   0.08483   0.08918   0.10060   0.11786
  Beta virt. eigenvalues --    0.12582   0.13425   0.13763   0.14179   0.15025

 Mulliken charges and spin densities:
               1          2
     1  O   -0.256330   0.814551
     2  H    0.262867  -0.026952
     3  C   -2.045374  -1.065984
     4  H    0.206971   0.083932
     5  C    1.943746   1.117370
     6  C    0.008281  -0.031970
     7  O   -0.275889   0.109840
     8  O   -0.125826  -0.005426
     9  C   -0.174145   0.002228
    10  C   -0.345648   0.001769
    11  H    0.167362   0.000295
    12  H    0.180787  -0.000258
    13  H    0.135755   0.000311
    14  H    0.143745  -0.000074
    15  H    0.173695   0.000368
 Sum of Mulliken charges =  -0.00000   1.00000

 Dipole moment (field-independent basis, Debye):
    X=             -1.4739    Y=             -1.6388    Z=             -0.2678  Tot=              2.2203
 Quadrupole moment (field-independent basis, Debye-Ang):
   XX=            -43.5846   YY=            -52.5018   ZZ=            -47.3238
   XY=              8.8075   XZ=              1.7163   YZ=              1.0459

 \PMP3-0=-419.2843168\MP4SDQ=-419.2927257\CCSD=-419.3017791\CCSD(T)=-41
 Normal termination of Gaussian 16 at Wed Aug 27 07:55:25 2025.
