 Gaussian 16, Revision A.03,
 Gaussian 16:  ES64L-G16RevA.03 25-Dec-2016

 -------------------
 # freq 6-31+g m062x
 -------------------

 -------------------
 Title Card Required
 -------------------
 Symbolic Z-matrix:
 Charge =  0 Multiplicity = 2

                         Standard orientation:
 ---------------------------------------------------------------------
 Center     Atomic      Atomic             Coordinates (Angstroms)
 Number     Number       Type             X           Y           Z
 ---------------------------------------------------------------------
      1          8           0        3.305105    0.722976    0.107302
      2          1           0        2.571807    1.323316   -0.096803
      3          6           0        2.473378   -0.838727    0.266059
      4          1           0        3.278849   -1.515544    0.491445
      5          6           0        1.226407   -0.759245    0.084173
      6          6           0       -0.009122   -0.046273   -0.205778
      7          8           0       -0.041605    1.138426   -0.414954
      8          8           0       -1.055806   -0.863075   -0.211758
      9          6           0       -2.340147   -0.255946   -0.474830
     10          6           0       -2.887763    0.415622    0.768571
     11          1           0       -2.963816   -1.089183   -0.792633
     12          1           0       -2.228043    0.451056   -1.297464
     13          1           0       -3.889251    0.798673    0.563937
     14          1           0       -2.952655   -0.298981    1.590286
     15          1           0       -2.254961    1.251465    1.067339
 ---------------------------------------------------------------------

 SCF Done:  E(UM062X) =  -419.971241894     A.U. after   19 cycles

 The electronic state is 2-A.
 Alpha  occ. eigenvalues --  -19.72099 -19.68029 -19.66758 -10.74384 -10.65025
 Alpha  occ. eigenvalues --  -10.62669 -10.61610 -10.55515  -1.29582  -1.20287
 Alpha  occ. eigenvalues --   -1.11570  -0.93422  -0.89476  -0.80078  -0.73106
 Alpha  occ. eigenvalues --   -0.66169  -0.62685  -0.60057  -0.58470  -0.55160
 Alpha  occ. eigenvalues --   -0.52785  -0.50894  -0.48783  -0.48012  -0.46340
 Alpha  occ. eigenvalues --   -0.43293  -0.42334  -0.40789  -0.39721  -0.36049
 Alpha  occ. eigenvalues --   -0.31894
 Alpha virt. eigenvalues --   -0.03479   0.01416   0.02712   0.03013   0.03704
 Alpha virt. eigenvalues --    0.04561   0.05372   0.06190   0.07300   0.07716
 Alpha virt. eigenvalues --    0.08059   0.08637   0.09487   0.10309   0.11695

  Beta  occ. eigenvalues --  -19.72072 -19.67901 -19.66036 -10.74436 -10.65199
  Beta  occ. eigenvalues --  -10.62664 -10.60957 -10.55515  -1.29421  -1.20023
  Beta  occ. eigenvalues --   -1.09113  -0.91865  -0.88780  -0.79847  -0.72599
  Beta  occ. eigenvalues --   -0.66037  -0.62214  -0.59734  -0.58083  -0.54968
  Beta  occ. eigenvalues --   -0.51022  -0.50632  -0.47997  -0.46341  -0.43223
  Beta  occ. eigenvalues --   -0.42795  -0.41539  -0.39769  -0.39105  -0.34367
  Beta virt. eigenvalues --   -0.09454  -0.03415   0.01213   0.02520   0.02989
  Beta virt. eigenvalues --    0.03950   0.04552   0.06162   0.06203   0.07414
  Beta virt. eigenvalues --    0.07456   0.08000   0.08820   0.09627   0.10363

 Mulliken charges and spin densities:
               1          2
     1  O   -0.538542   0.379589
     2  H    0.414456  -0.011419
     3  C   -0.235911  -0.268470
     4  H    0.266230   0.033577
     5  C    0.025156   0.842213
     6  C    0.360568  -0.011643
     7  O   -0.412659   0.028923
     8  O   -0.220483   0.007308
     9  C   -0.221177  -0.002744
    10  C   -0.567190   0.002568
    11  H    0.224710   0.000037
    12  H    0.236537   0.000024
    13  H    0.211223   0.000122
    14  H    0.222099   0.000006
    15  H    0.234983  -0.000090
 Sum of Mulliken charges =  -0.00000   1.00000

 Dipole moment (field-independent basis, Debye):
    X=             -3.5156    Y=             -1.6926    Z=              0.0672  Tot=              3.9024
 Quadrupole moment (field-independent basis, Debye-Ang):
   XX=            -48.8245   YY=            -49.5208   ZZ=            -47.9788
   XY=             -6.3182   XZ=              1.1097   YZ=             -0.1668

  Exact polarizability: 100.361   5.621  66.948   3.404  -2.838  46.714
 Approx polarizability: 102.919   8.749  84.972   5.597  -5.603  49.447

 ******    3 imaginary frequencies (negative Signs) ******

                      1                      2                      3
                      A                      A                      A
 Frequencies --   -655.4587              -329.0944               -48.0818
 Red. masses --     11.9293                 1.0738                 3.9740
 Frc consts  --      3.0196                 0.0685                 0.0054
 IR Inten    --     17.9396               137.4328                 3.9494

                      4                      5                      6
                      A                      A                      A
 Frequencies --     20.4151                46.7010               153.9905
 Red. masses --      5.0564                 3.9512                 5.6162
 Frc consts  --      0.0012                 0.0051                 0.0785
 IR Inten    --      1.3591                 1.4814                 7.8038

                      7                      8                      9
                      A                      A                      A
 Frequencies --    179.4837               266.3444               285.3319
 Red. masses --      1.2524                 3.5264                 3.4758
 Frc consts  --      0.0238                 0.1474                 0.1667
 IR Inten    --      3.6407                 7.1552                16.6564

                     10                     11                     12
                      A                      A                      A
 Frequencies --    329.2002               431.6043               569.0936
 Red. masses --      3.5905                 3.6910                 4.7004
 Frc consts  --      0.2293                 0.4051                 0.8969
 IR Inten    --     19.3479                 4.6900                 6.7235

                     13                     14                     15
                      A                      A                      A
 Frequencies --    616.1569               747.5185               814.7239
 Red. masses --      7.7890                11.3725                 1.2851
 Frc consts  --      1.7423                 3.7441                 0.5026
 IR Inten    --     10.1788                26.9540                 4.2509

                     16                     17                     18
                      A                      A                      A
 Frequencies --    822.7953               893.5753               928.4121
 Red. masses --      1.3641                 3.1251                 1.4304
 Frc consts  --      0.5441                 1.4702                 0.7264
 IR Inten    --     42.3961                13.2454                85.2648

                     19                     20                     21
                      A                      A                      A
 Frequencies --    949.0637              1093.3348              1120.2605
 Red. masses --      1.7143                 1.5902                 1.9723
 Frc consts  --      0.9098                 1.1200                 1.4583
 IR Inten    --     29.8880                12.2670                15.9487

                     22                     23                     24
                      A                      A                      A
 Frequencies --   1156.8677              1228.6032              1333.3335
 Red. masses --      2.0514                 1.7487                 1.6770
 Frc consts  --      1.6176                 1.5552                 1.7565
 IR Inten    --     25.5323                 2.6558               282.6493

                     25                     26                     27
                      A                      A                      A
 Frequencies --   1376.6624              1444.4164              1457.7509
 Red. masses --      1.9756                 1.4061                 1.2646
 Frc consts  --      2.2060                 1.7284                 1.5833
 IR Inten    --    402.4934                55.7745                16.7613

                     28                     29                     30
                      A                      A                      A
 Frequencies --   1528.6883              1537.8093              1545.7683
 Red. masses --      1.0421                 1.0694                 1.0750
 Frc consts  --      1.4348                 1.4900                 1.5134
 IR Inten    --     14.0173                 4.9927                23.7371

                     31                     32                     33
                      A                      A                      A
 Frequencies --   1865.5288              1951.4637              3108.5968
 Red. masses --     10.9417                 8.0055                 1.0351
 Frc consts  --     22.4356                17.9623                 5.8935
 IR Inten    --    179.6005               172.2892                11.8983

                     34                     35                     36
                      A                      A                      A
 Frequencies --   3139.6318              3188.9818              3192.4219
 Red. masses --      1.0602                 1.1004                 1.1025
 Frc consts  --      6.1576                 6.5932                 6.6204
 IR Inten    --     18.3845                12.9027                 5.1133

                     37                     38                     39
                      A                      A                      A
 Frequencies --   3213.4301              3373.1572              3820.3424
 Red. masses --      1.1055                 1.1190                 1.0679
 Frc consts  --      6.7256                 7.5018                 9.1829
 IR Inten    --     16.7222                20.4431                28.8877

 - Thermochemistry -
 -------------------
 Temperature   298.150 Kelvin.  Pressure   1.00000 Atm.
 Atom     1 has atomic number  8 and mass  15.99491

 Molecular mass:   115.03952 amu.
 Principal axes and moments of inertia in atomic units:
                           1         2         3
     Eigenvalues --   315.844541897.081322059.76827
           X            0.99993  -0.00984  -0.00584
           Y            0.00994   0.99982   0.01638
           Z            0.00568  -0.01644   0.99985
 This molecule is an asymmetric top.
 Rotational symmetry number  1.
 Rotational temperatures (Kelvin)      0.27423     0.04566     0.04205
 Rotational constants (GHZ):           5.71402     0.95133     0.87619
    3 imaginary frequencies ignored.
 Zero-point vibrational energy     297460.2 (Joules/Mol)
                                   71.09469 (Kcal/Mol)
 Warning -- explicit consideration of  10 degrees of freedom as
           vibrations may cause significant error
 Vibrational temperatures:     29.37    67.19   221.56   258.24   383.21
          (Kelvin)            410.53   473.65   620.98   818.80   886.51
                             1075.51  1172.21  1183.82  1285.66  1335.78
                             1365.49  1573.06  1611.80  1664.47  1767.69
                             1918.37  1980.71  2078.19  2097.38  2199.44
                             2212.56  2224.02  2684.08  2807.72  4472.58
                             4517.23  4588.23  4593.18  4623.41  4853.22
                             5496.62

 Zero-point correction=                           0.113297 (Hartree/Particle)
 Thermal correction to Energy=                    0.121514
 Thermal correction to Enthalpy=                  0.122458
 Thermal correction to Gibbs Free Energy=         0.077738
 Sum of electronic and zero-point Energies=           -419.857945
 Sum of electronic and thermal Energies=              -419.849728
 Sum of electronic and thermal Enthalpies=            -419.848784
 Sum of electronic and thermal Free Energies=         -419.893504

                     E (Thermal)             CV                S
                      KCal/Mol        Cal/Mol-Kelvin    Cal/Mol-Kelvin
 Total                   76.251             27.258             94.122
 Electronic               0.000              0.000              1.377
 Translational            0.889              2.981             40.136
 Rotational               0.889              2.981             28.603
 Vibrational             74.474             21.297             24.006
 Vibration     1          0.593              1.986              6.593
 Vibration     2          0.595              1.979              4.952
 Vibration     3          0.620              1.898              2.622
 Vibration     4          0.629              1.867              2.334
 Vibration     5          0.672              1.735              1.620
 Vibration     6          0.683              1.701              1.501
 Vibration     7          0.712              1.617              1.264
 Vibration     8          0.793              1.401              0.853
 Vibration     9          0.925              1.098              0.506
 Vibration    10          0.976              0.998              0.423

 Normal termination of Gaussian 16 at Fri Jun 20 13:08:21 2025.
