 Gaussian 16, Revision A.03,
 Gaussian 16:  ES64L-G16RevA.03 25-Dec-2016

 --------------------------
 # freq 6-311++g(d,p) m062x
 --------------------------

 -------------------
 Title Card Required
 -------------------
 Symbolic Z-matrix:
 Charge =  0 Multiplicity = 2

                         Standard orientation:
 ---------------------------------------------------------------------
 Center     Atomic      Atomic             Coordinates (Angstroms)
 Number     Number       Type             X           Y           Z
 ---------------------------------------------------------------------
      1          8           0        3.293764    0.703652    0.107473
      2          1           0        2.568789    1.312313   -0.098970
      3          6           0        2.490384   -0.797096    0.264002
      4          1           0        3.263850   -1.512726    0.494224
      5          6           0        1.225545   -0.764977    0.087549
      6          6           0       -0.007519   -0.046755   -0.205465
      7          8           0       -0.042323    1.137688   -0.418590
      8          8           0       -1.054915   -0.864364   -0.209060
      9          6           0       -2.339648   -0.259617   -0.473906
     10          6           0       -2.888025    0.415321    0.767391
     11          1           0       -2.962711   -1.094369   -0.789073
     12          1           0       -2.228617    0.445045   -1.298743
     13          1           0       -3.889930    0.796782    0.561735
     14          1           0       -2.952079   -0.296776    1.591359
     15          1           0       -2.255933    1.252665    1.063467
 ---------------------------------------------------------------------

 SCF Done:  E(UM062X) =  -420.230213139     A.U. after   19 cycles

 The electronic state is 2-A.
 Alpha  occ. eigenvalues --  -19.69429 -19.64530 -19.64345 -10.71637 -10.64073
 Alpha  occ. eigenvalues --  -10.61461 -10.59691 -10.54526  -1.26851  -1.17668
 Alpha  occ. eigenvalues --   -1.10862  -0.92242  -0.88457  -0.79265  -0.72174
 Alpha  occ. eigenvalues --   -0.65792  -0.62011  -0.59807  -0.57735  -0.54479
 Alpha  occ. eigenvalues --   -0.52830  -0.50521  -0.49063  -0.47719  -0.46106
 Alpha  occ. eigenvalues --   -0.43121  -0.42560  -0.40621  -0.39672  -0.35590
 Alpha  occ. eigenvalues --   -0.31651
 Alpha virt. eigenvalues --   -0.03222  -0.00507   0.00780   0.01383   0.01803
 Alpha virt. eigenvalues --    0.02534   0.03827   0.05157   0.05800   0.06478
 Alpha virt. eigenvalues --    0.06972   0.07698   0.08092   0.08859   0.10302

  Beta  occ. eigenvalues --  -19.69403 -19.64393 -19.63851 -10.71677 -10.64217
  Beta  occ. eigenvalues --  -10.61458 -10.58996 -10.54526  -1.26690  -1.17332
  Beta  occ. eigenvalues --   -1.09052  -0.90669  -0.87458  -0.79053  -0.71631
  Beta  occ. eigenvalues --   -0.65606  -0.61459  -0.59371  -0.57365  -0.54229
  Beta  occ. eigenvalues --   -0.51467  -0.50176  -0.47561  -0.46091  -0.44360
  Beta  occ. eigenvalues --   -0.42865  -0.42036  -0.39693  -0.38887  -0.34055
  Beta virt. eigenvalues --   -0.08532  -0.02985  -0.00549   0.00819   0.01360
  Beta virt. eigenvalues --    0.02016   0.02707   0.04221   0.05214   0.05725
  Beta virt. eigenvalues --    0.06455   0.06974   0.07962   0.08437   0.08864

 Mulliken charges and spin densities:
               1          2
     1  O   -0.309728   0.260708
     2  H    0.253253  -0.005580
     3  C   -1.015852  -0.149053
     4  H    0.210780   0.031471
     5  C    1.131545   0.838808
     6  C   -0.276177  -0.016065
     7  O   -0.256646   0.038562
     8  O    0.023437   0.003500
     9  C   -0.269340  -0.005509
    10  C   -0.408539   0.002301
    11  H    0.198544   0.000030
    12  H    0.200292   0.000704
    13  H    0.165225   0.000265
    14  H    0.169148   0.000104
    15  H    0.184056  -0.000245
 Sum of Mulliken charges =  -0.00000   1.00000

 Dipole moment (field-independent basis, Debye):
    X=             -3.1490    Y=             -1.7416    Z=              0.1287  Tot=              3.6008
 Quadrupole moment (field-independent basis, Debye-Ang):
   XX=            -47.1666   YY=            -48.5431   ZZ=            -47.7546
   XY=             -5.6758   XZ=              1.1556   YZ=             -0.2136

  Exact polarizability: 102.469   2.979  67.472   3.067  -2.196  50.693
 Approx polarizability: 105.389   5.963  88.035   5.042  -4.680  59.143

 ******    1 imaginary frequencies (negative Signs) ******

                      1                      2                      3
                      A                      A                      A
 Frequencies --   -519.5075                71.1530               108.9469
 Red. masses --     11.8768                 5.6636                 3.2643
 Frc consts  --      1.8886                 0.0169                 0.0228
 IR Inten    --     91.4049                 1.0547                 0.2250

                      4                      5                      6
                      A                      A                      A
 Frequencies --    132.3447               175.7608               218.0289
 Red. masses --      4.4374                 5.7453                 1.3196
 Frc consts  --      0.0458                 0.1046                 0.0370
 IR Inten    --      0.3759                 1.1596                 3.2448

                      7                      8                      9
                      A                      A                      A
 Frequencies --    286.1462               319.5973               348.8068
 Red. masses --      3.2374                 2.1028                 2.4615
 Frc consts  --      0.1562                 0.1265                 0.1765
 IR Inten    --      5.7998                 6.4312                32.1097

                     10                     11                     12
                      A                      A                      A
 Frequencies --    386.4032               446.8557               582.5374
 Red. masses --      1.5620                 3.5835                 4.5353
 Frc consts  --      0.1374                 0.4216                 0.9068
 IR Inten    --     91.5490                 4.9829                 4.2220

                     13                     14                     15
                      A                      A                      A
 Frequencies --    619.1647               767.3671               799.3704
 Red. masses --      8.3727                 6.2968                 1.2069
 Frc consts  --      1.8912                 2.1846                 0.4544
 IR Inten    --     13.8086                10.3081                 4.9147

                     16                     17                     18
                      A                      A                      A
 Frequencies --    818.5122               890.8263               925.2222
 Red. masses --      1.5536                 3.0967                 2.7887
 Frc consts  --      0.6133                 1.4479                 1.4065
 IR Inten    --     45.8194                 8.6080                 0.7469

                     19                     20                     21
                      A                      A                      A
 Frequencies --   1023.7068              1070.0482              1127.4326
 Red. masses --      1.1065                 3.7734                 2.0607
 Frc consts  --      0.6832                 2.5456                 1.5433
 IR Inten    --     46.1660                21.2882                19.9749

                     22                     23                     24
                      A                      A                      A
 Frequencies --   1191.2988              1206.5856              1300.9843
 Red. masses --      1.2890                 1.6052                 2.9061
 Frc consts  --      1.0778                 1.3769                 2.8981
 IR Inten    --    114.7347                38.6957               506.3715

                     25                     26                     27
                      A                      A                      A
 Frequencies --   1348.7046              1402.3843              1431.2955
 Red. masses --      1.2792                 1.2900                 1.3859
 Frc consts  --      1.3709                 1.4948                 1.6728
 IR Inten    --    141.6874                35.1598                10.9854

                     28                     29                     30
                      A                      A                      A
 Frequencies --   1493.0066              1502.8556              1514.7841
 Red. masses --      1.0413                 1.0626                 1.0843
 Frc consts  --      1.3676                 1.4140                 1.4659
 IR Inten    --      9.8886                 2.7113                18.1239

                     31                     32                     33
                      A                      A                      A
 Frequencies --   1792.0264              1852.5865              3076.1167
 Red. masses --     10.3133                 8.8967                 1.0354
 Frc consts  --     19.5136                17.9903                 5.7726
 IR Inten    --    218.2656               215.0551                 9.3895

                     34                     35                     36
                      A                      A                      A
 Frequencies --   3108.6956              3151.6010              3155.8254
 Red. masses --      1.0609                 1.1014                 1.1049
 Frc consts  --      6.0404                 6.4456                 6.4833
 IR Inten    --     17.2091                14.0030                 1.6071

                     37                     38                     39
                      A                      A                      A
 Frequencies --   3176.6915              3298.2568              3811.6448
 Red. masses --      1.1075                 1.1103                 1.0681
 Frc consts  --      6.5846                 7.1162                 9.1428
 IR Inten    --     14.4793                12.4525                45.8531

 - Thermochemistry -
 -------------------
 Temperature   298.150 Kelvin.  Pressure   1.00000 Atm.
 Atom     1 has atomic number  8 and mass  15.99491

 Molecular mass:   115.03952 amu.
 Principal axes and moments of inertia in atomic units:
                           1         2         3
     Eigenvalues --   311.658801895.724502054.33830
           X            0.99994  -0.00977  -0.00584
           Y            0.00987   0.99981   0.01679
           Z            0.00568  -0.01684   0.99984
 This molecule is an asymmetric top.
 Rotational symmetry number  1.
 Rotational temperatures (Kelvin)      0.27791     0.04569     0.04216
 Rotational constants (GHZ):           5.79076     0.95201     0.87850
    1 imaginary frequencies ignored.
 Zero-point vibrational energy     298669.1 (Joules/Mol)
                                   71.38363 (Kcal/Mol)
 Warning -- explicit consideration of  12 degrees of freedom as
           vibrations may cause significant error
 Vibrational temperatures:    102.37   156.75   190.41   252.88   313.69
          (Kelvin)            411.70   459.83   501.86   555.95   642.93
                              838.14   890.84  1104.07  1150.12  1177.66
                             1281.70  1331.19  1472.89  1539.56  1622.12
                             1714.01  1736.01  1871.83  1940.49  2017.72
                             2059.32  2148.10  2162.27  2179.44  2578.33
                             2665.46  4425.85  4472.72  4534.45  4540.53
                             4570.55  4745.46  5484.11

 Zero-point correction=                           0.113757 (Hartree/Particle)
 Thermal correction to Energy=                    0.122525
 Thermal correction to Enthalpy=                  0.123470
 Thermal correction to Gibbs Free Energy=         0.079381
 Sum of electronic and zero-point Energies=           -420.116456
 Sum of electronic and thermal Energies=              -420.107688
 Sum of electronic and thermal Enthalpies=            -420.106743
 Sum of electronic and thermal Free Energies=         -420.150832

                     E (Thermal)             CV                S
                      KCal/Mol        Cal/Mol-Kelvin    Cal/Mol-Kelvin
 Total                   76.886             30.347             92.792
 Electronic               0.000              0.000              1.377
 Translational            0.889              2.981             40.136
 Rotational               0.889              2.981             28.586
 Vibrational             75.108             24.385             22.692
 Vibration     1          0.598              1.968              4.121
 Vibration     2          0.606              1.942              3.288
 Vibration     3          0.612              1.921              2.912
 Vibration     4          0.628              1.872              2.373
 Vibration     5          0.646              1.814              1.975
 Vibration     6          0.684              1.699              1.497
 Vibration     7          0.706              1.636              1.312
 Vibration     8          0.726              1.578              1.172
 Vibration     9          0.755              1.499              1.014
 Vibration    10          0.806              1.368              0.805
 Vibration    11          0.939              1.069              0.481
 Vibration    12          0.979              0.991              0.418

 1\1\GINC-AJ\Freq\UM062X\6-311++G(d,p)\C5H7O3(2)\AAYUSH\16-Aug-2025\0\\
 # freq 6-311++g(d,p) m062x\\Title Card Required\\0,2\O,3.224541,0.6929
 66,0.131277\H,2.502832,1.308139,-0.067155\C,2.413284,-0.805549,0.26722
 4\H,3.182916,-1.528254,0.488001\C,1.148701,-0.764446,0.090802\C,-0.080
 483,-0.035902,-0.19288\O,-0.109026,1.151481,-0.389975\O,-1.132126,-0.8
 4791,-0.207882\C,-2.413582,-0.23294,-0.46495\C,-2.958933,0.428,0.78518
 1\H,-3.040862,-1.06009,-0.791586\H,-2.298547,0.482224,-1.280142\H,-3.9
 58752,0.817431,0.584372\H,-3.02703,-0.294832,1.59942\H,-2.322603,1.257

 Normal termination of Gaussian 16 at Sat Aug 16 17:07:47 2025.
