 Gaussian 16, Revision A.03,
 Gaussian 16:  ES64L-G16RevA.03 25-Dec-2016

 -------------------
 # freq 6-31+g m062x
 -------------------

 -------------------
 Title Card Required
 -------------------
 Symbolic Z-matrix:
 Charge =  0 Multiplicity = 2

                         Standard orientation:
 ---------------------------------------------------------------------
 Center     Atomic      Atomic             Coordinates (Angstroms)
 Number     Number       Type             X           Y           Z
 ---------------------------------------------------------------------
      1          8           0        3.293764    0.703652    0.107473
      2          1           0        2.568789    1.312313   -0.098970
      3          6           0        2.490384   -0.797096    0.264002
      4          1           0        3.263850   -1.512726    0.494224
      5          6           0        1.225545   -0.764977    0.087549
      6          6           0       -0.007519   -0.046755   -0.205465
      7          8           0       -0.042323    1.137688   -0.418590
      8          8           0       -1.054915   -0.864364   -0.209060
      9          6           0       -2.339648   -0.259617   -0.473906
     10          6           0       -2.888025    0.415321    0.767391
     11          1           0       -2.962711   -1.094369   -0.789073
     12          1           0       -2.228617    0.445045   -1.298743
     13          1           0       -3.889930    0.796782    0.561735
     14          1           0       -2.952079   -0.296776    1.591359
     15          1           0       -2.255933    1.252665    1.063467
 ---------------------------------------------------------------------

 SCF Done:  E(UM062X) =  -419.980101258     A.U. after   19 cycles

 The electronic state is 2-A.
 Alpha  occ. eigenvalues --  -19.71945 -19.67898 -19.67092 -10.74172 -10.65455
 Alpha  occ. eigenvalues --  -10.62574 -10.61583 -10.55444  -1.29408  -1.20126
 Alpha  occ. eigenvalues --   -1.12344  -0.93262  -0.89325  -0.79973  -0.73057
 Alpha  occ. eigenvalues --   -0.66097  -0.62607  -0.59943  -0.58353  -0.55089
 Alpha  occ. eigenvalues --   -0.53406  -0.50820  -0.48807  -0.47918  -0.46262
 Alpha  occ. eigenvalues --   -0.43288  -0.42814  -0.40751  -0.39617  -0.35720
 Alpha  occ. eigenvalues --   -0.31855
 Alpha virt. eigenvalues --   -0.03492   0.01424   0.02688   0.03042   0.03859
 Alpha virt. eigenvalues --    0.04664   0.05506   0.06216   0.07443   0.07756
 Alpha virt. eigenvalues --    0.08136   0.08702   0.09752   0.10452   0.11646

  Beta  occ. eigenvalues --  -19.71918 -19.67758 -19.66558 -10.74223 -10.65618
  Beta  occ. eigenvalues --  -10.62570 -10.60846 -10.55444  -1.29232  -1.19839
  Beta  occ. eigenvalues --   -1.10547  -0.91620  -0.88518  -0.79715  -0.72494
  Beta  occ. eigenvalues --   -0.65949  -0.62076  -0.59579  -0.57924  -0.54859
  Beta  occ. eigenvalues --   -0.51879  -0.50522  -0.47900  -0.46234  -0.44030
  Beta  occ. eigenvalues --   -0.42977  -0.42260  -0.39687  -0.39068  -0.34177
  Beta virt. eigenvalues --   -0.08918  -0.03374   0.01161   0.02472   0.03018
  Beta virt. eigenvalues --    0.03983   0.04652   0.06177   0.06212   0.07398
  Beta virt. eigenvalues --    0.07602   0.07996   0.08875   0.09706   0.10392

 Mulliken charges and spin densities:
               1          2
     1  O   -0.537986   0.276639
     2  H    0.419078  -0.007471
     3  C   -0.247886  -0.228003
     4  H    0.259973   0.034043
     5  C    0.054289   0.903234
     6  C    0.353521  -0.017259
     7  O   -0.417734   0.031847
     8  O   -0.222610   0.007612
     9  C   -0.219840  -0.003422
    10  C   -0.568574   0.002698
    11  H    0.224319   0.000029
    12  H    0.236076   0.000038
    13  H    0.210773   0.000117
    14  H    0.221841   0.000002
    15  H    0.234759  -0.000104
 Sum of Mulliken charges =  -0.00000   1.00000

 Dipole moment (field-independent basis, Debye):
    X=             -3.3826    Y=             -1.6108    Z=              0.0718  Tot=              3.7472
 Quadrupole moment (field-independent basis, Debye-Ang):
   XX=            -48.7099   YY=            -49.6358   ZZ=            -48.0072
   XY=             -6.0190   XZ=              1.0798   YZ=             -0.1257

  Exact polarizability:  98.945   4.177  65.498   3.467  -2.814  46.785
 Approx polarizability: 100.995   7.749  83.637   5.478  -5.590  49.612

 ******    3 imaginary frequencies (negative Signs) ******

                      1                      2                      3
                      A                      A                      A
 Frequencies --   -462.9764              -291.5478               -45.1147
 Red. masses --     11.7838                 1.0759                 3.7520
 Frc consts  --      1.4882                 0.0539                 0.0045
 IR Inten    --     71.6650               131.3983                 4.4742

                      4                      5                      6
                      A                      A                      A
 Frequencies --     45.9359                62.9097               161.7803
 Red. masses --      3.6302                 5.8695                 5.9897
 Frc consts  --      0.0045                 0.0137                 0.0924
 IR Inten    --      3.3149                 1.3631                 7.8913

                      7                      8                      9
                      A                      A                      A
 Frequencies --    179.7411               272.5720               306.5533
 Red. masses --      1.2525                 3.2618                 3.5591
 Frc consts  --      0.0238                 0.1428                 0.1971
 IR Inten    --      4.3601                 8.6373                24.0109

                     10                     11                     12
                      A                      A                      A
 Frequencies --    341.3539               437.0595               581.8553
 Red. masses --      3.6341                 3.6298                 4.3578
 Frc consts  --      0.2495                 0.4085                 0.8693
 IR Inten    --     17.1042                 5.0388                 6.5808

                     13                     14                     15
                      A                      A                      A
 Frequencies --    625.5729               747.0105               814.9227
 Red. masses --      8.4519                11.4138                 1.2846
 Frc consts  --      1.9488                 3.7526                 0.5026
 IR Inten    --     11.1231                28.2284                 5.2546

                     16                     17                     18
                      A                      A                      A
 Frequencies --    842.5329               893.9867               940.4861
 Red. masses --      1.3809                 3.1790                 2.5327
 Frc consts  --      0.5776                 1.4969                 1.3199
 IR Inten    --     40.3204                10.1927                 5.1943

                     19                     20                     21
                      A                      A                      A
 Frequencies --   1004.6913              1104.8978              1154.9821
 Red. masses --      1.1332                 3.5709                 1.9286
 Frc consts  --      0.6739                 2.5684                 1.5158
 IR Inten    --     72.7315                 9.0901                13.4016

                     22                     23                     24
                      A                      A                      A
 Frequencies --   1180.1238              1229.0873              1333.1962
 Red. masses --      1.2299                 1.7413                 1.6952
 Frc consts  --      1.0092                 1.5498                 1.7752
 IR Inten    --     52.5145                 4.4491               271.2909

                     25                     26                     27
                      A                      A                      A
 Frequencies --   1375.6510              1443.9398              1457.5311
 Red. masses --      1.9415                 1.3971                 1.2633
 Frc consts  --      2.1648                 1.7162                 1.5812
 IR Inten    --    379.6377                49.0693                16.7367

                     28                     29                     30
                      A                      A                      A
 Frequencies --   1528.6612              1537.7314              1545.7136
 Red. masses --      1.0421                 1.0696                 1.0744
 Frc consts  --      1.4348                 1.4901                 1.5124
 IR Inten    --     14.0259                 4.7820                23.1031

                     31                     32                     33
                      A                      A                      A
 Frequencies --   1852.5337              1914.9152              3108.4543
 Red. masses --     10.0169                 9.3180                 1.0351
 Frc consts  --     20.2543                20.1314                 5.8930
 IR Inten    --    193.5710               199.6486                12.0750

                     34                     35                     36
                      A                      A                      A
 Frequencies --   3139.0633              3188.6732              3192.0883
 Red. masses --      1.0602                 1.1005                 1.1024
 Frc consts  --      6.1554                 6.5926                 6.6184
 IR Inten    --     18.5866                12.5585                 5.7019

                     37                     38                     39
                      A                      A                      A
 Frequencies --   3213.0264              3339.6631              3825.1536
 Red. masses --      1.1054                 1.1117                 1.0677
 Frc consts  --      6.7234                 7.3051                 9.2045
 IR Inten    --     16.9845                12.3509                28.7767

 - Thermochemistry -
 -------------------
 Temperature   298.150 Kelvin.  Pressure   1.00000 Atm.
 Atom     1 has atomic number  8 and mass  15.99491

 Molecular mass:   115.03952 amu.
 Principal axes and moments of inertia in atomic units:
                           1         2         3
     Eigenvalues --   311.658801895.724502054.33830
           X            0.99994  -0.00977  -0.00584
           Y            0.00987   0.99981   0.01679
           Z            0.00568  -0.01684   0.99984
 This molecule is an asymmetric top.
 Rotational symmetry number  1.
 Rotational temperatures (Kelvin)      0.27791     0.04569     0.04216
 Rotational constants (GHZ):           5.79076     0.95201     0.87850
    3 imaginary frequencies ignored.
 Zero-point vibrational energy     298612.1 (Joules/Mol)
                                   71.37001 (Kcal/Mol)
 Warning -- explicit consideration of   9 degrees of freedom as
           vibrations may cause significant error
 Vibrational temperatures:     66.09    90.51   232.77   258.61   392.17
          (Kelvin)            441.06   491.13   628.83   837.16   900.06
                             1074.78  1172.49  1212.22  1286.25  1353.15
                             1445.53  1589.70  1661.76  1697.94  1768.38
                             1918.17  1979.25  2077.51  2097.06  2199.40
                             2212.45  2223.94  2665.38  2755.14  4472.37
                             4516.41  4587.79  4592.70  4622.83  4805.03
                             5503.54

 Zero-point correction=                           0.113735 (Hartree/Particle)
 Thermal correction to Energy=                    0.121762
 Thermal correction to Enthalpy=                  0.122706
 Thermal correction to Gibbs Free Energy=         0.079242
 Sum of electronic and zero-point Energies=           -419.866366
 Sum of electronic and thermal Energies=              -419.858339
 Sum of electronic and thermal Enthalpies=            -419.857395
 Sum of electronic and thermal Free Energies=         -419.900860

                     E (Thermal)             CV                S
                      KCal/Mol        Cal/Mol-Kelvin    Cal/Mol-Kelvin
 Total                   76.407             26.941             91.479
 Electronic               0.000              0.000              1.377
 Translational            0.889              2.981             40.136
 Rotational               0.889              2.981             28.586
 Vibrational             74.629             20.980             21.380
 Vibration     1          0.595              1.979              4.985
 Vibration     2          0.597              1.972              4.364
 Vibration     3          0.622              1.889              2.529
 Vibration     4          0.629              1.867              2.331
 Vibration     5          0.676              1.724              1.580
 Vibration     6          0.697              1.661              1.381
 Vibration     7          0.721              1.593              1.206
 Vibration     8          0.797              1.389              0.836
 Vibration     9          0.939              1.071              0.482

 Normal termination of Gaussian 16 at Fri Jun 20 13:19:14 2025.
