 Gaussian 16, Revision A.03,
 Gaussian 16:  ES64L-G16RevA.03 25-Dec-2016

 --------------------------
 # freq 6-311++g(d,p) m062x
 --------------------------

 -------------------
 Title Card Required
 -------------------
 Symbolic Z-matrix:
 Charge =  0 Multiplicity = 2

                         Standard orientation:
 ---------------------------------------------------------------------
 Center     Atomic      Atomic             Coordinates (Angstroms)
 Number     Number       Type             X           Y           Z
 ---------------------------------------------------------------------
      1          8           0        3.310654    0.732357    0.107261
      2          1           0        2.573682    1.329159   -0.095788
      3          6           0        2.464414   -0.859601    0.267013
      4          1           0        3.286424   -1.514859    0.489845
      5          6           0        1.227199   -0.756507    0.082623
      6          6           0       -0.009769   -0.046120   -0.205899
      7          8           0       -0.041208    1.138782   -0.413207
      8          8           0       -1.056283   -0.862395   -0.213066
      9          6           0       -2.340371   -0.254085   -0.475288
     10          6           0       -2.887634    0.415887    0.769111
     11          1           0       -2.964393   -1.086547   -0.794362
     12          1           0       -2.227753    0.454055   -1.296852
     13          1           0       -3.888905    0.799756    0.564974
     14          1           0       -2.952958   -0.299915    1.589740
     15          1           0       -2.254435    1.250963    1.069175
 ---------------------------------------------------------------------

 SCF Done:  E(UM062X) =  -420.216328049     A.U. after   20 cycles

 The electronic state is 2-A.
 Alpha  occ. eigenvalues --  -19.69679 -19.64744 -19.63831 -10.71967 -10.63268
 Alpha  occ. eigenvalues --  -10.61623 -10.59730 -10.54646  -1.27125  -1.17910
 Alpha  occ. eigenvalues --   -1.09898  -0.92481  -0.88688  -0.79439  -0.72264
 Alpha  occ. eigenvalues --   -0.65928  -0.62246  -0.59985  -0.57939  -0.54609
 Alpha  occ. eigenvalues --   -0.52123  -0.50635  -0.48899  -0.47870  -0.46238
 Alpha  occ. eigenvalues --   -0.43171  -0.41881  -0.40682  -0.39838  -0.36083
 Alpha  occ. eigenvalues --   -0.31818
 Alpha virt. eigenvalues --   -0.03213  -0.00559   0.00771   0.01334   0.01828
 Alpha virt. eigenvalues --    0.02425   0.03819   0.05096   0.05584   0.06242
 Alpha virt. eigenvalues --    0.06789   0.07332   0.07953   0.08803   0.09972

  Beta  occ. eigenvalues --  -19.69654 -19.64626 -19.63050 -10.72009 -10.63423
  Beta  occ. eigenvalues --  -10.61619 -10.59165 -10.54646  -1.26987  -1.17620
  Beta  occ. eigenvalues --   -1.07046  -0.91026  -0.87863  -0.79262  -0.71820
  Beta  occ. eigenvalues --   -0.65773  -0.61757  -0.59623  -0.57621  -0.54419
  Beta  occ. eigenvalues --   -0.50441  -0.50351  -0.47732  -0.46258  -0.43120
  Beta  occ. eigenvalues --   -0.42491  -0.41018  -0.39849  -0.38881  -0.34334
  Beta virt. eigenvalues --   -0.09327  -0.03068  -0.00582   0.00860   0.01313
  Beta virt. eigenvalues --    0.01990   0.02682   0.04257   0.05182   0.05609
  Beta virt. eigenvalues --    0.06403   0.06944   0.07782   0.08320   0.08859

 Mulliken charges and spin densities:
               1          2
     1  O   -0.320357   0.422049
     2  H    0.248568  -0.009214
     3  C   -1.244015  -0.183813
     4  H    0.209247   0.030622
     5  C    1.374307   0.726265
     6  C   -0.287222  -0.021686
     7  O   -0.252121   0.032635
     8  O    0.026639   0.004223
     9  C   -0.268211  -0.003856
    10  C   -0.407330   0.002109
    11  H    0.199662   0.000081
    12  H    0.200812   0.000531
    13  H    0.166449   0.000235
    14  H    0.169134   0.000057
    15  H    0.184438  -0.000238
 Sum of Mulliken charges =  -0.00000   1.00000

 Dipole moment (field-independent basis, Debye):
    X=             -3.3710    Y=             -1.8647    Z=              0.1192  Tot=              3.8542
 Quadrupole moment (field-independent basis, Debye-Ang):
   XX=            -47.3965   YY=            -48.4325   ZZ=            -47.7189
   XY=             -6.1453   XZ=              1.1998   YZ=             -0.2632

  Exact polarizability: 104.707   5.127  69.639   2.983  -2.240  50.608
 Approx polarizability: 108.278   7.427  90.044   5.226  -4.734  58.884

 ******    1 imaginary frequencies (negative Signs) ******

                      1                      2                      3
                      A                      A                      A
 Frequencies --   -739.3162                65.2251               106.2769
 Red. masses --     11.3771                 5.8338                 4.0387
 Frc consts  --      3.6639                 0.0146                 0.0269
 IR Inten    --      7.4653                 0.7122                 0.2630

                      4                      5                      6
                      A                      A                      A
 Frequencies --    120.0040               163.2819               216.6207
 Red. masses --      3.5671                 5.4773                 1.3510
 Frc consts  --      0.0303                 0.0860                 0.0374
 IR Inten    --      0.0780                 2.2253                 2.3319

                      7                      8                      9
                      A                      A                      A
 Frequencies --    274.1165               298.5218               335.3145
 Red. masses --      3.2566                 2.2885                 1.4767
 Frc consts  --      0.1442                 0.1202                 0.0978
 IR Inten    --      5.0890                 5.0560                87.9084

                     10                     11                     12
                      A                      A                      A
 Frequencies --    349.5957               437.6292               562.7524
 Red. masses --      2.4283                 3.7649                 5.0260
 Frc consts  --      0.1749                 0.4248                 0.9378
 IR Inten    --     35.9552                 4.2831                 4.4626

                     13                     14                     15
                      A                      A                      A
 Frequencies --    609.8693               766.3281               796.7714
 Red. masses --      7.5038                 4.2273                 1.4740
 Frc consts  --      1.6444                 1.4627                 0.5513
 IR Inten    --     12.2235                 3.4862                40.8730

                     16                     17                     18
                      A                      A                      A
 Frequencies --    800.8950               891.2747               925.6649
 Red. masses --      1.3577                 3.0892                 2.6205
 Frc consts  --      0.5131                 1.4458                 1.3230
 IR Inten    --     17.4491                 8.8428                 8.9844

                     19                     20                     21
                      A                      A                      A
 Frequencies --    935.8274              1067.6519              1103.9480
 Red. masses --      1.1355                 2.9014                 1.2444
 Frc consts  --      0.5859                 1.9486                 0.8935
 IR Inten    --     81.0148                18.0474                71.5496

                     22                     23                     24
                      A                      A                      A
 Frequencies --   1127.7444              1203.7337              1300.0427
 Red. masses --      2.0703                 1.7650                 3.1341
 Frc consts  --      1.5513                 1.5068                 3.1209
 IR Inten    --     28.1726                 3.0573               599.0848

                     25                     26                     27
                      A                      A                      A
 Frequencies --   1349.3992              1402.8862              1431.7344
 Red. masses --      1.2920                 1.2941                 1.3900
 Frc consts  --      1.3861                 1.5006                 1.6787
 IR Inten    --    158.0143                40.1905                12.9042

                     28                     29                     30
                      A                      A                      A
 Frequencies --   1493.0492              1503.0601              1515.0595
 Red. masses --      1.0413                 1.0620                 1.0856
 Frc consts  --      1.3677                 1.4136                 1.4682
 IR Inten    --      9.7870                 2.9376                19.1009

                     31                     32                     33
                      A                      A                      A
 Frequencies --   1804.5213              1914.3690              3076.2901
 Red. masses --     11.2311                 7.5239                 1.0354
 Frc consts  --     21.5476                16.2460                 5.7732
 IR Inten    --    201.2726               163.0187                 9.1257

                     34                     35                     36
                      A                      A                      A
 Frequencies --   3109.4698              3151.9166              3156.2600
 Red. masses --      1.0609                 1.1014                 1.1049
 Frc consts  --      6.0434                 6.4466                 6.4852
 IR Inten    --     16.9096                13.8667                 1.4167

                     37                     38                     39
                      A                      A                      A
 Frequencies --   3177.3134              3346.7207              3802.5361
 Red. masses --      1.1076                 1.1211                 1.0682
 Frc consts  --      6.5878                 7.3980                 9.1002
 IR Inten    --     14.0822                26.4506                45.6718

 - Thermochemistry -
 -------------------
 Temperature   298.150 Kelvin.  Pressure   1.00000 Atm.
 Atom     1 has atomic number  8 and mass  15.99491

 Molecular mass:   115.03952 amu.
 Principal axes and moments of inertia in atomic units:
                           1         2         3
     Eigenvalues --   317.978661897.675062062.44449
           X            0.99993  -0.00987  -0.00584
           Y            0.00996   0.99982   0.01621
           Z            0.00568  -0.01627   0.99985
 This molecule is an asymmetric top.
 Rotational symmetry number  1.
 Rotational temperatures (Kelvin)      0.27239     0.04564     0.04200
 Rotational constants (GHZ):           5.67567     0.95103     0.87505
    1 imaginary frequencies ignored.
 Zero-point vibrational energy     297234.2 (Joules/Mol)
                                   71.04068 (Kcal/Mol)
 Warning -- explicit consideration of  12 degrees of freedom as
           vibrations may cause significant error
 Vibrational temperatures:     93.84   152.91   172.66   234.93   311.67
          (Kelvin)            394.39   429.51   482.44   502.99   629.65
                              809.68   877.47  1102.58  1146.38  1152.31
                             1282.35  1331.83  1346.45  1536.11  1588.33
                             1622.57  1731.90  1870.47  1941.48  2018.44
                             2059.95  2148.16  2162.57  2179.83  2596.30
                             2754.35  4426.10  4473.83  4534.91  4541.15
                             4571.45  4815.18  5471.00

 Zero-point correction=                           0.113211 (Hartree/Particle)
 Thermal correction to Energy=                    0.122189
 Thermal correction to Enthalpy=                  0.123133
 Thermal correction to Gibbs Free Energy=         0.078503
 Sum of electronic and zero-point Energies=           -420.103118
 Sum of electronic and thermal Energies=              -420.094140
 Sum of electronic and thermal Enthalpies=            -420.093195
 Sum of electronic and thermal Free Energies=         -420.137825

                     E (Thermal)             CV                S
                      KCal/Mol        Cal/Mol-Kelvin    Cal/Mol-Kelvin
 Total                   76.674             30.828             93.931
 Electronic               0.000              0.000              1.377
 Translational            0.889              2.981             40.136
 Rotational               0.889              2.981             28.611
 Vibrational             74.897             24.867             23.807
 Vibration     1          0.597              1.971              4.293
 Vibration     2          0.605              1.944              3.336
 Vibration     3          0.609              1.933              3.100
 Vibration     4          0.623              1.888              2.511
 Vibration     5          0.645              1.816              1.987
 Vibration     6          0.676              1.721              1.570
 Vibration     7          0.692              1.676              1.425
 Vibration     8          0.716              1.605              1.234
 Vibration     9          0.727              1.576              1.168
 Vibration    10          0.798              1.388              0.834
 Vibration    11          0.918              1.112              0.518
 Vibration    12          0.969              1.011              0.433

 1\1\GINC-AJ\Freq\UM062X\6-311++G(d,p)\C5H7O3(2)\AAYUSH\23-Jun-2025\0\\
 # freq 6-311++g(d,p) m062x\\Title Card Required\\0,2\O,3.310654,0.7323
 57,0.107261\H,2.573682,1.329159,-0.095788\C,2.464414,-0.859601,0.26701
 3\H,3.286424,-1.514859,0.489845\C,1.227199,-0.756507,0.082623\C,-0.009
 769,-0.04612,-0.205899\O,-0.041208,1.138782,-0.413207\O,-1.056283,-0.8
 62395,-0.213066\C,-2.340371,-0.254085,-0.475288\C,-2.887634,0.415887,0
 .769111\H,-2.964393,-1.086547,-0.794362\H,-2.227753,0.454055,-1.296852
 \H,-3.888905,0.799756,0.564974\H,-2.952958,-0.299915,1.58974\H,-2.2544

 Normal termination of Gaussian 16 at Mon Jun 23 02:59:37 2025.
