 Gaussian 16, Revision A.03,
 Gaussian 16:  ES64L-G16RevA.03 25-Dec-2016

 --------------------------
 # ccsd(t)/6-311++g(d,p) sp
 --------------------------

 -------------------
 Title Card Required
 -------------------
 Symbolic Z-matrix:
 Charge =  0 Multiplicity = 2

                         Standard orientation:
 ---------------------------------------------------------------------
 Center     Atomic      Atomic             Coordinates (Angstroms)
 Number     Number       Type             X           Y           Z
 ---------------------------------------------------------------------
      1          8           0        3.310654    0.732357    0.107261
      2          1           0        2.573682    1.329159   -0.095788
      3          6           0        2.464414   -0.859601    0.267013
      4          1           0        3.286424   -1.514859    0.489845
      5          6           0        1.227199   -0.756507    0.082623
      6          6           0       -0.009769   -0.046120   -0.205899
      7          8           0       -0.041208    1.138782   -0.413207
      8          8           0       -1.056283   -0.862395   -0.213066
      9          6           0       -2.340371   -0.254085   -0.475288
     10          6           0       -2.887634    0.415887    0.769111
     11          1           0       -2.964393   -1.086547   -0.794362
     12          1           0       -2.227753    0.454055   -1.296852
     13          1           0       -3.888905    0.799756    0.564974
     14          1           0       -2.952958   -0.299915    1.589740
     15          1           0       -2.254435    1.250963    1.069175
 ---------------------------------------------------------------------

 SCF Done:  E(UHF) =  -417.986231466     A.U. after   30 cycles
 E2 =    -0.1252955218D+01 EUMP2 =    -0.41923918668413D+03
 CCSD(T)= -0.41936503372D+03

 The electronic state is 2-A.
 Alpha  occ. eigenvalues --  -20.62347 -20.60088 -20.57480 -11.42055 -11.30538
 Alpha  occ. eigenvalues --  -11.29368 -11.28126 -11.23267  -1.49466  -1.39718
 Alpha  occ. eigenvalues --   -1.35392  -1.10368  -1.04860  -0.92855  -0.84792
 Alpha  occ. eigenvalues --   -0.77699  -0.73152  -0.71251  -0.67809  -0.64401
 Alpha  occ. eigenvalues --   -0.63465  -0.62361  -0.59596  -0.56585  -0.54917
 Alpha  occ. eigenvalues --   -0.53107  -0.51812  -0.50509  -0.48404  -0.43651
 Alpha  occ. eigenvalues --   -0.42526
 Alpha virt. eigenvalues --    0.03833   0.04798   0.05540   0.06253   0.07157
 Alpha virt. eigenvalues --    0.08454   0.08921   0.09368   0.10978   0.12202
 Alpha virt. eigenvalues --    0.12661   0.13718   0.14463   0.14975   0.16617

  Beta  occ. eigenvalues --  -20.62327 -20.57218 -20.56818 -11.42497 -11.31760
  Beta  occ. eigenvalues --  -11.30536 -11.25073 -11.23265  -1.49098  -1.38599
  Beta  occ. eigenvalues --   -1.25937  -1.07098  -1.04605  -0.93482  -0.84487
  Beta  occ. eigenvalues --   -0.77459  -0.72851  -0.70272  -0.67165  -0.63787
  Beta  occ. eigenvalues --   -0.61469  -0.58985  -0.55444  -0.54762  -0.51708
  Beta  occ. eigenvalues --   -0.51213  -0.48946  -0.46984  -0.46609  -0.41999
  Beta virt. eigenvalues --    0.03835   0.04771   0.05280   0.05549   0.06723
  Beta virt. eigenvalues --    0.07273   0.08192   0.08936   0.09692   0.11753
  Beta virt. eigenvalues --    0.12782   0.12893   0.13697   0.14309   0.14694

 Mulliken charges and spin densities:
               1          2
     1  O   -0.270241   0.684521
     2  H    0.268093  -0.026893
     3  C   -1.470026  -1.087069
     4  H    0.213672   0.087672
     5  C    1.724313   1.415790
     6  C   -0.358724  -0.199471
     7  O   -0.328959   0.122079
     8  O   -0.063124   0.003684
     9  C   -0.159505  -0.004958
    10  C   -0.362541   0.003791
    11  H    0.169775   0.000525
    12  H    0.183451   0.000218
    13  H    0.133903   0.000253
    14  H    0.147069  -0.000058
    15  H    0.172843  -0.000085
 Sum of Mulliken charges =  -0.00000   1.00000

 Dipole moment (field-independent basis, Debye):
    X=             -2.7470    Y=             -1.5835    Z=              0.1129  Tot=              3.1727
 Quadrupole moment (field-independent basis, Debye-Ang):
   XX=            -45.7449   YY=            -48.7860   ZZ=            -47.6088
   XY=             -4.8256   XZ=              1.2452   YZ=             -0.1040

 Normal termination of Gaussian 16 at Fri Jul 18 16:02:10 2025.
