 Gaussian 16, Revision A.03,
 Gaussian 16:  ES64L-G16RevA.03 25-Dec-2016

 --------------------------
 # ccsd(t)/6-311++g(d,p) sp
 --------------------------

 -------------------
 Title Card Required
 -------------------
 Symbolic Z-matrix:
 Charge =  0 Multiplicity = 2

                         Standard orientation:
 ---------------------------------------------------------------------
 Center     Atomic      Atomic             Coordinates (Angstroms)
 Number     Number       Type             X           Y           Z
 ---------------------------------------------------------------------
      1          8           0        3.377880    0.837476    0.109036
      2          1           0        2.594785    1.383514   -0.082164
      3          6           0        2.365124   -1.089211    0.273487
      4          1           0        3.321860   -1.515101    0.467350
      5          6           0        1.228661   -0.747898    0.068705
      6          6           0       -0.011374   -0.043000   -0.206758
      7          8           0       -0.035742    1.145945   -0.394523
      8          8           0       -1.062747   -0.851567   -0.227945
      9          6           0       -2.341806   -0.229900   -0.480495
     10          6           0       -2.885527    0.423016    0.774621
     11          1           0       -2.971740   -1.052334   -0.813791
     12          1           0       -2.223949    0.491409   -1.289779
     13          1           0       -3.883915    0.817468    0.576479
     14          1           0       -2.956324   -0.306016    1.583063
     15          1           0       -2.246319    1.248192    1.088939
 ---------------------------------------------------------------------

 SCF Done:  E(UHF) =  -417.990601645     A.U. after   35 cycles
 E2 =    -0.1256836620D+01 EUMP2 =    -0.41924743826485D+03
 CCSD(T)= -0.41935666750D+03

 The electronic state is 2-A.
 Alpha  occ. eigenvalues --  -20.62278 -20.61692 -20.57166 -11.42269 -11.30423
 Alpha  occ. eigenvalues --  -11.26744 -11.26193 -11.23169  -1.49278  -1.39325
 Alpha  occ. eigenvalues --   -1.37293  -1.09003  -1.04630  -0.92844  -0.84456
 Alpha  occ. eigenvalues --   -0.77396  -0.73469  -0.70777  -0.67458  -0.66165
 Alpha  occ. eigenvalues --   -0.64606  -0.63916  -0.59308  -0.56147  -0.54828
 Alpha  occ. eigenvalues --   -0.54502  -0.51423  -0.49808  -0.47929  -0.43000
 Alpha  occ. eigenvalues --   -0.41899
 Alpha virt. eigenvalues --    0.03890   0.04701   0.05629   0.06306   0.07174
 Alpha virt. eigenvalues --    0.08539   0.08772   0.09366   0.11064   0.12269
 Alpha virt. eigenvalues --    0.12722   0.13620   0.14494   0.14978   0.16566

  Beta  occ. eigenvalues --  -20.62264 -20.57677 -20.56836 -11.42518 -11.30420
  Beta  occ. eigenvalues --  -11.27975 -11.24742 -11.23168  -1.49098  -1.38760
  Beta  occ. eigenvalues --   -1.22353  -1.07671  -1.04659  -0.93268  -0.84437
  Beta  occ. eigenvalues --   -0.77318  -0.73321  -0.70356  -0.67160  -0.63890
  Beta  occ. eigenvalues --   -0.61995  -0.58995  -0.55498  -0.54737  -0.51252
  Beta  occ. eigenvalues --   -0.50019  -0.48937  -0.47142  -0.43436  -0.42646
  Beta virt. eigenvalues --    0.03890   0.04664   0.05633   0.06003   0.06961
  Beta virt. eigenvalues --    0.07739   0.08523   0.09103   0.10263   0.12027
  Beta virt. eigenvalues --    0.12703   0.13108   0.13659   0.14509   0.14795

 Mulliken charges and spin densities:
               1          2
     1  O   -0.241079   0.963555
     2  H    0.269828  -0.034933
     3  C   -2.621605  -0.546397
     4  H    0.192770   0.054929
     5  C    2.727262   0.653651
     6  C   -0.247040  -0.154952
     7  O   -0.333416   0.061137
     8  O   -0.043058   0.001919
     9  C   -0.156018  -0.001255
    10  C   -0.356082   0.002042
    11  H    0.172037   0.000219
    12  H    0.181604   0.000012
    13  H    0.136533   0.000151
    14  H    0.145957  -0.000096
    15  H    0.172308   0.000018
 Sum of Mulliken charges =  -0.00000   1.00000

 Dipole moment (field-independent basis, Debye):
    X=             -2.2327    Y=             -0.9888    Z=              0.0644  Tot=              2.4427
 Quadrupole moment (field-independent basis, Debye-Ang):
   XX=            -42.5050   YY=            -48.9028   ZZ=            -47.7337
   XY=             -3.5365   XZ=              1.3086   YZ=             -0.0787

 P3-0=-419.2836013\MP4SDQ=-419.3012257\CCSD=-419.3038012\CCSD(T)=-419.3
 Normal termination of Gaussian 16 at Sat Aug  2 04:13:37 2025.
