 Gaussian 16, Revision A.03,
 Gaussian 16:  ES64L-G16RevA.03 25-Dec-2016

 -------------------
 # freq 6-31+g m062x
 -------------------

 -------------------
 Title Card Required
 -------------------
 Symbolic Z-matrix:
 Charge =  0 Multiplicity = 2

                         Standard orientation:
 ---------------------------------------------------------------------
 Center     Atomic      Atomic             Coordinates (Angstroms)
 Number     Number       Type             X           Y           Z
 ---------------------------------------------------------------------
      1          8           0        3.357537    0.806682    0.108121
      2          1           0        2.591288    1.373709   -0.086810
      3          6           0        2.390348   -1.027496    0.272641
      4          1           0        3.326167   -1.497345    0.473142
      5          6           0        1.231255   -0.745431    0.072342
      6          6           0       -0.011406   -0.044580   -0.206464
      7          8           0       -0.037529    1.143198   -0.399873
      8          8           0       -1.060902   -0.855346   -0.223561
      9          6           0       -2.341501   -0.237381   -0.478999
     10          6           0       -2.886293    0.420570    0.772984
     11          1           0       -2.969716   -1.062772   -0.808142
     12          1           0       -2.225096    0.480077   -1.291893
     13          1           0       -3.885547    0.811875    0.573010
     14          1           0       -2.955486   -0.304600    1.585028
     15          1           0       -2.248880    1.248701    1.083151
 ---------------------------------------------------------------------

 SCF Done:  E(UM062X) =  -419.959497639     A.U. after   23 cycles

 The electronic state is 2-A.
 Alpha  occ. eigenvalues --  -19.71912 -19.68143 -19.67673 -10.74217 -10.62510
 Alpha  occ. eigenvalues --  -10.60848 -10.59727 -10.55387  -1.29318  -1.19960
 Alpha  occ. eigenvalues --   -1.12633  -0.92428  -0.89010  -0.79619  -0.72390
 Alpha  occ. eigenvalues --   -0.65825  -0.62457  -0.59745  -0.58100  -0.54992
 Alpha  occ. eigenvalues --   -0.52957  -0.50599  -0.49398  -0.47906  -0.46209
 Alpha  occ. eigenvalues --   -0.43041  -0.41785  -0.40380  -0.39447  -0.37576
 Alpha  occ. eigenvalues --   -0.34402
 Alpha virt. eigenvalues --   -0.02625   0.01591   0.02894   0.03115   0.03587
 Alpha virt. eigenvalues --    0.04423   0.05442   0.06311   0.06984   0.07835
 Alpha virt. eigenvalues --    0.08309   0.08618   0.09108   0.10708   0.11782

  Beta  occ. eigenvalues --  -19.71901 -19.67636 -19.66618 -10.74239 -10.62508
  Beta  occ. eigenvalues --  -10.60905 -10.59506 -10.55387  -1.29267  -1.19875
  Beta  occ. eigenvalues --   -1.06297  -0.91923  -0.88675  -0.79518  -0.72198
  Beta  occ. eigenvalues --   -0.65774  -0.62126  -0.59641  -0.57978  -0.54916
  Beta  occ. eigenvalues --   -0.50499  -0.50120  -0.47861  -0.46254  -0.42991
  Beta  occ. eigenvalues --   -0.41020  -0.39893  -0.39422  -0.37972  -0.35792
  Beta virt. eigenvalues --   -0.08864  -0.02620   0.01588   0.02953   0.03151
  Beta virt. eigenvalues --    0.03879   0.04550   0.05870   0.06410   0.07276
  Beta virt. eigenvalues --    0.07870   0.08387   0.08729   0.09357   0.10702

 Mulliken charges and spin densities:
               1          2
     1  O   -0.474536   0.847675
     2  H    0.414519  -0.029931
     3  C   -0.291805  -0.153647
     4  H    0.319946   0.013965
     5  C   -0.049043   0.321106
     6  C    0.355409  -0.012092
     7  O   -0.403307   0.008723
     8  O   -0.215678   0.003530
     9  C   -0.222875  -0.000163
    10  C   -0.561228   0.000759
    11  H    0.223927   0.000028
    12  H    0.236394  -0.000021
    13  H    0.210871   0.000065
    14  H    0.222234   0.000009
    15  H    0.235172  -0.000006
 Sum of Mulliken charges =  -0.00000   1.00000

 Dipole moment (field-independent basis, Debye):
    X=             -3.0086    Y=             -1.1396    Z=              0.0243  Tot=              3.2173
 Quadrupole moment (field-independent basis, Debye-Ang):
   XX=            -45.6842   YY=            -49.3803   ZZ=            -47.9403
   XY=             -4.7975   XZ=              1.1029   YZ=             -0.1154

  Exact polarizability:  99.731   4.557  66.869   3.577  -2.706  46.447
 Approx polarizability: 101.399   1.106  79.455   6.775  -5.360  48.829

 ******    5 imaginary frequencies (negative Signs) ******

                      1                      2                      3
                      A                      A                      A
 Frequencies --   -388.7780              -354.6303              -108.7417
 Red. masses --      1.0875                12.3245                 5.7786
 Frc consts  --      0.0968                 0.9132                 0.0403
 IR Inten    --    154.0530                19.4039                 3.3471

                      4                      5                      6
                      A                      A                      A
 Frequencies --    -86.3168               -26.0288                40.8049
 Red. masses --      6.8892                 3.1602                 3.2957
 Frc consts  --      0.0302                 0.0013                 0.0032
 IR Inten    --      0.3681                 7.0057                 4.4229

                      7                      8                      9
                      A                      A                      A
 Frequencies --    165.9371               200.3352               237.0615
 Red. masses --      2.0049                 2.0251                 4.0916
 Frc consts  --      0.0325                 0.0479                 0.1355
 IR Inten    --      7.7225                 4.1645                 1.9183

                     10                     11                     12
                      A                      A                      A
 Frequencies --    311.6110               418.7188               558.4928
 Red. masses --      2.9870                 3.9704                 3.6059
 Frc consts  --      0.1709                 0.4101                 0.6627
 IR Inten    --     21.3887                 2.6189                31.1006

                     13                     14                     15
                      A                      A                      A
 Frequencies --    594.4528               634.8082               763.6190
 Red. masses --      1.2250                 6.1248                 5.7082
 Frc consts  --      0.2551                 1.4542                 1.9611
 IR Inten    --    159.0414                40.6083                54.5367

                     16                     17                     18
                      A                      A                      A
 Frequencies --    802.3778               816.2120               818.1673
 Red. masses --      1.0764                 1.2837                 1.4361
 Frc consts  --      0.4083                 0.5039                 0.5664
 IR Inten    --     60.3111                12.3272                18.3920

                     19                     20                     21
                      A                      A                      A
 Frequencies --    899.4147               947.7100              1111.1167
 Red. masses --      3.3178                 2.6555                 4.2229
 Frc consts  --      1.5813                 1.4052                 3.0717
 IR Inten    --     15.4626                 5.4955                 9.6378

                     22                     23                     24
                      A                      A                      A
 Frequencies --   1157.2872              1228.9421              1336.6079
 Red. masses --      2.0627                 1.7554                 1.5228
 Frc consts  --      1.6277                 1.5620                 1.6029
 IR Inten    --     21.2957                 2.4389               249.3911

                     25                     26                     27
                      A                      A                      A
 Frequencies --   1380.8223              1446.2868              1457.6939
 Red. masses --      2.1363                 1.4409                 1.2800
 Frc consts  --      2.3999                 1.7758                 1.6024
 IR Inten    --    463.6187                82.0018                17.3268

                     28                     29                     30
                      A                      A                      A
 Frequencies --   1528.5546              1537.7471              1545.7244
 Red. masses --      1.0422                 1.0722                 1.0748
 Frc consts  --      1.4348                 1.4938                 1.5130
 IR Inten    --     13.9348                 6.3463                25.2013

                     31                     32                     33
                      A                      A                      A
 Frequencies --   1882.0433              2241.2821              3108.4220
 Red. masses --     12.1059                 5.9576                 1.0351
 Frc consts  --     25.2642                17.6326                 5.8929
 IR Inten    --    228.6420                93.6291                12.1567

                     34                     35                     36
                      A                      A                      A
 Frequencies --   3139.8596              3188.7422              3192.3018
 Red. masses --      1.0601                 1.1002                 1.1027
 Frc consts  --      6.1580                 6.5913                 6.6208
 IR Inten    --     18.7252                13.7457                 4.6305

                     37                     38                     39
                      A                      A                      A
 Frequencies --   3213.4150              3510.9270              3780.5411
 Red. masses --      1.1055                 1.1627                 1.0677
 Frc consts  --      6.7258                 8.4446                 8.9914
 IR Inten    --     16.8096                68.9740                12.1098

 - Thermochemistry -
 -------------------
 Temperature   298.150 Kelvin.  Pressure   1.00000 Atm.
 Atom     1 has atomic number  8 and mass  15.99491

 Molecular mass:   115.03952 amu.
 Principal axes and moments of inertia in atomic units:
                           1         2         3
     Eigenvalues --   337.457191902.427142086.29570
           X            0.99993  -0.00998  -0.00587
           Y            0.01007   0.99984   0.01512
           Z            0.00572  -0.01517   0.99987
 This molecule is an asymmetric top.
 Rotational symmetry number  1.
 Rotational temperatures (Kelvin)      0.25667     0.04553     0.04152
 Rotational constants (GHZ):           5.34806     0.94865     0.86505
    5 imaginary frequencies ignored.
 Zero-point vibrational energy     294269.6 (Joules/Mol)
                                   70.33213 (Kcal/Mol)
 Warning -- explicit consideration of   8 degrees of freedom as
           vibrations may cause significant error
 Vibrational temperatures:     58.71   238.75   288.24   341.08   448.34
          (Kelvin)            602.44   803.55   855.28   913.35  1098.68
                             1154.44  1174.35  1177.16  1294.06  1363.54
                             1598.65  1665.08  1768.17  1923.08  1986.70
                             2080.88  2097.30  2199.25  2212.48  2223.95
                             2707.84  3224.71  4472.33  4517.56  4587.89
                             4593.01  4623.39  5051.44  5439.36

 Zero-point correction=                           0.112081 (Hartree/Particle)
 Thermal correction to Energy=                    0.119152
 Thermal correction to Enthalpy=                  0.120096
 Thermal correction to Gibbs Free Energy=         0.078845
 Sum of electronic and zero-point Energies=           -419.847416
 Sum of electronic and thermal Energies=              -419.840346
 Sum of electronic and thermal Enthalpies=            -419.839402
 Sum of electronic and thermal Free Energies=         -419.880653

                     E (Thermal)             CV                S
                      KCal/Mol        Cal/Mol-Kelvin    Cal/Mol-Kelvin
 Total                   74.769             24.533             86.820
 Electronic               0.000              0.000              1.377
 Translational            0.889              2.981             40.136
 Rotational               0.889              2.981             28.684
 Vibrational             72.991             18.571             16.623
 Vibration     1          0.594              1.981              5.220
 Vibration     2          0.624              1.884              2.481
 Vibration     3          0.638              1.839              2.130
 Vibration     4          0.656              1.784              1.825
 Vibration     5          0.700              1.652              1.354
 Vibration     6          0.782              1.430              0.896
 Vibration     7          0.914              1.121              0.527
 Vibration     8          0.952              1.044              0.459

 Normal termination of Gaussian 16 at Fri Jun 20 13:13:02 2025.
