 Gaussian 16, Revision A.03,
 Gaussian 16:  ES64L-G16RevA.03 25-Dec-2016

 --------------------------
 # ccsd(t)/6-311++g(d,p) sp
 --------------------------

 -------------------
 Title Card Required
 -------------------
 Symbolic Z-matrix:
 Charge =  0 Multiplicity = 2

                         Standard orientation:
 ---------------------------------------------------------------------
 Center     Atomic      Atomic             Coordinates (Angstroms)
 Number     Number       Type             X           Y           Z
 ---------------------------------------------------------------------
      1          8           0        3.370993    0.827005    0.108697
      2          1           0        2.593641    1.380419   -0.083754
      3          6           0        2.373389   -1.068856    0.273305
      4          1           0        3.324634   -1.506694    0.469133
      5          6           0        1.229681   -0.746658    0.069895
      6          6           0       -0.011385   -0.043579   -0.206653
      7          8           0       -0.036409    1.144992   -0.396339
      8          8           0       -1.062129   -0.852905   -0.226454
      9          6           0       -2.341693   -0.232474   -0.479985
     10          6           0       -2.885793    0.422161    0.774064
     11          1           0       -2.971066   -1.055899   -0.811876
     12          1           0       -2.224327    0.487537   -1.290491
     13          1           0       -3.884474    0.815552    0.575290
     14          1           0       -2.956052   -0.305559    1.583734
     15          1           0       -2.247188    1.248338    1.086973
 ---------------------------------------------------------------------

 SCF Done:  E(UHF) =  -417.989231675     A.U. after   35 cycles
 E2 =    -0.1256055877D+01 EUMP2 =    -0.41924528755158D+03
 CCSD(T)= -0.41935606940D+03

 The electronic state is 2-A.
 Alpha  occ. eigenvalues --  -20.62269 -20.61636 -20.57163 -11.42232 -11.30420
 Alpha  occ. eigenvalues --  -11.26760 -11.26232 -11.23167  -1.49275  -1.39337
 Alpha  occ. eigenvalues --   -1.37266  -1.09067  -1.04635  -0.92813  -0.84444
 Alpha  occ. eigenvalues --   -0.77404  -0.73484  -0.70790  -0.67464  -0.66055
 Alpha  occ. eigenvalues --   -0.64563  -0.63892  -0.59317  -0.56168  -0.54825
 Alpha  occ. eigenvalues --   -0.54475  -0.51433  -0.49848  -0.47952  -0.43023
 Alpha  occ. eigenvalues --   -0.41875
 Alpha virt. eigenvalues --    0.03891   0.04708   0.05629   0.06305   0.07171
 Alpha virt. eigenvalues --    0.08531   0.08817   0.09368   0.11061   0.12279
 Alpha virt. eigenvalues --    0.12727   0.13637   0.14501   0.14988   0.16601

  Beta  occ. eigenvalues --  -20.62253 -20.57652 -20.56805 -11.42500 -11.30416
  Beta  occ. eigenvalues --  -11.28098 -11.24658 -11.23166  -1.49080  -1.38726
  Beta  occ. eigenvalues --   -1.22513  -1.07619  -1.04667  -0.93266  -0.84420
  Beta  occ. eigenvalues --   -0.77316  -0.73314  -0.70330  -0.67142  -0.63868
  Beta  occ. eigenvalues --   -0.61979  -0.58978  -0.55473  -0.54727  -0.51245
  Beta  occ. eigenvalues --   -0.50103  -0.48894  -0.47103  -0.43541  -0.42625
  Beta virt. eigenvalues --    0.03891   0.04666   0.05632   0.05976   0.06955
  Beta virt. eigenvalues --    0.07699   0.08544   0.09103   0.10209   0.12013
  Beta virt. eigenvalues --    0.12747   0.13118   0.13667   0.14500   0.14764

 Mulliken charges and spin densities:
               1          2
     1  O   -0.239650   0.954593
     2  H    0.270590  -0.034746
     3  C   -2.529199  -0.598138
     4  H    0.194846   0.059193
     5  C    2.648307   0.712505
     6  C   -0.260954  -0.162617
     7  O   -0.334166   0.066037
     8  O   -0.045159   0.002084
     9  C   -0.156398  -0.001455
    10  C   -0.356416   0.002207
    11  H    0.171846   0.000246
    12  H    0.181755   0.000013
    13  H    0.136249   0.000164
    14  H    0.146033  -0.000100
    15  H    0.172316   0.000013
 Sum of Mulliken charges =  -0.00000   1.00000

 Dipole moment (field-independent basis, Debye):
    X=             -2.2341    Y=             -1.0000    Z=              0.0674  Tot=              2.4486
 Quadrupole moment (field-independent basis, Debye-Ang):
   XX=            -42.5282   YY=            -48.9024   ZZ=            -47.7243
   XY=             -3.5206   XZ=              1.3093   YZ=             -0.0712

 92\PMP3-0=-419.2829005\MP4SDQ=-419.299731\CCSD=-419.3030282\CCSD(T)=-4
 Normal termination of Gaussian 16 at Sun Aug 24 22:14:40 2025.
