 Gaussian 16, Revision A.03,
 Gaussian 16:  ES64L-G16RevA.03 25-Dec-2016

 --------------------------
 # freq 6-311++g(d,p) m062x
 --------------------------

 -------------------
 Title Card Required
 -------------------
 Symbolic Z-matrix:
 Charge =  0 Multiplicity = 2

                         Standard orientation:
 ---------------------------------------------------------------------
 Center     Atomic      Atomic             Coordinates (Angstroms)
 Number     Number       Type             X           Y           Z
 ---------------------------------------------------------------------
      1          8           0        3.287920    0.693681    0.107604
      2          1           0        2.567702    1.307200   -0.100133
      3          6           0        2.498350   -0.776358    0.262899
      4          1           0        3.256690   -1.509083    0.495405
      5          6           0        1.225549   -0.767849    0.089378
      6          6           0       -0.006562   -0.047110   -0.205267
      7          8           0       -0.042632    1.137280   -0.420488
      8          8           0       -1.054495   -0.864983   -0.207662
      9          6           0       -2.339373   -0.261437   -0.473438
     10          6           0       -2.888163    0.415283    0.766743
     11          1           0       -2.962177   -1.096937   -0.787233
     12          1           0       -2.228903    0.442009   -1.299415
     13          1           0       -3.890268    0.795964    0.560556
     14          1           0       -2.951810   -0.295500    1.591887
     15          1           0       -2.256390    1.253365    1.061416
 ---------------------------------------------------------------------

 SCF Done:  E(UM062X) =  -420.235560041     A.U. after   19 cycles

 The electronic state is 2-A.
 Alpha  occ. eigenvalues --  -19.69316 -19.64618 -19.64428 -10.71497 -10.64207
 Alpha  occ. eigenvalues --  -10.61388 -10.59606 -10.54471  -1.26725  -1.17551
 Alpha  occ. eigenvalues --   -1.11401  -0.92100  -0.88342  -0.79174  -0.72121
 Alpha  occ. eigenvalues --   -0.65733  -0.61977  -0.59721  -0.57635  -0.54472
 Alpha  occ. eigenvalues --   -0.53084  -0.50469  -0.49159  -0.47651  -0.46043
 Alpha  occ. eigenvalues --   -0.43228  -0.42731  -0.40588  -0.39590  -0.35421
 Alpha  occ. eigenvalues --   -0.31673
 Alpha virt. eigenvalues --   -0.03170  -0.00481   0.00790   0.01409   0.01797
 Alpha virt. eigenvalues --    0.02572   0.03832   0.05178   0.05851   0.06544
 Alpha virt. eigenvalues --    0.07022   0.07809   0.08185   0.08886   0.10426

  Beta  occ. eigenvalues --  -19.69290 -19.64287 -19.64199 -10.71535 -10.64343
  Beta  occ. eigenvalues --  -10.61384 -10.58874 -10.54470  -1.26559  -1.17205
  Beta  occ. eigenvalues --   -1.09857  -0.90530  -0.87285  -0.78951  -0.71550
  Beta  occ. eigenvalues --   -0.65538  -0.61410  -0.59266  -0.57252  -0.54180
  Beta  occ. eigenvalues --   -0.51807  -0.50094  -0.47489  -0.46025  -0.45008
  Beta  occ. eigenvalues --   -0.42868  -0.42426  -0.39608  -0.38821  -0.33903
  Beta virt. eigenvalues --   -0.08247  -0.02910  -0.00527   0.00815   0.01385
  Beta virt. eigenvalues --    0.02026   0.02721   0.04205   0.05229   0.05781
  Beta virt. eigenvalues --    0.06495   0.06994   0.08003   0.08483   0.08877

 Mulliken charges and spin densities:
               1          2
     1  O   -0.302407   0.217216
     2  H    0.255337  -0.004619
     3  C   -0.954510  -0.133413
     4  H    0.210824   0.031470
     5  C    1.064651   0.862349
     6  C   -0.274893  -0.013501
     7  O   -0.258917   0.040011
     8  O    0.022419   0.003250
     9  C   -0.269586  -0.006028
    10  C   -0.408811   0.002349
    11  H    0.198109   0.000012
    12  H    0.200034   0.000759
    13  H    0.164753   0.000271
    14  H    0.169109   0.000117
    15  H    0.183888  -0.000244
 Sum of Mulliken charges =  -0.00000   1.00000

 Dipole moment (field-independent basis, Debye):
    X=             -3.0327    Y=             -1.6664    Z=              0.1307  Tot=              3.4628
 Quadrupole moment (field-independent basis, Debye-Ang):
   XX=            -46.9185   YY=            -48.5931   ZZ=            -47.7681
   XY=             -5.4135   XZ=              1.1383   YZ=             -0.1881

  Exact polarizability: 101.966   2.403  66.840   3.103  -2.176  50.731
 Approx polarizability: 104.606   5.396  87.163   5.022  -4.635  59.235

 ******    1 imaginary frequencies (negative Signs) ******

                      1                      2                      3
                      A                      A                      A
 Frequencies --   -406.1804                73.6851               109.3072
 Red. masses --     11.7945                 5.6097                 3.2002
 Frc consts  --      1.1465                 0.0179                 0.0225
 IR Inten    --    117.7005                 1.1899                 0.2194

                      4                      5                      6
                      A                      A                      A
 Frequencies --    137.0121               178.7437               218.5866
 Red. masses --      4.4711                 5.8211                 1.3169
 Frc consts  --      0.0495                 0.1096                 0.0371
 IR Inten    --      1.0293                 0.9061                 4.0823

                      7                      8                      9
                      A                      A                      A
 Frequencies --    289.3221               325.5363               352.2673
 Red. masses --      3.2181                 2.1768                 2.4583
 Frc consts  --      0.1587                 0.1359                 0.1797
 IR Inten    --      7.0014                 5.9983                27.8878

                     10                     11                     12
                      A                      A                      A
 Frequencies --    402.0366               449.9406               588.8649
 Red. masses --      1.5410                 3.4909                 4.3601
 Frc consts  --      0.1468                 0.4164                 0.8908
 IR Inten    --     95.2237                 5.3861                 4.4812

                     13                     14                     15
                      A                      A                      A
 Frequencies --    626.8020               768.7182               799.4455
 Red. masses --      8.6601                 7.2200                 1.2104
 Frc consts  --      2.0046                 2.5138                 0.4558
 IR Inten    --     14.6879                13.4069                 5.0541

                     16                     17                     18
                      A                      A                      A
 Frequencies --    828.2873               890.8374               924.8278
 Red. masses --      1.5139                 3.1004                 2.7818
 Frc consts  --      0.6119                 1.4496                 1.4018
 IR Inten    --     42.5870                 8.5753                 0.8217

                     19                     20                     21
                      A                      A                      A
 Frequencies --   1052.6047              1070.1836              1127.4311
 Red. masses --      1.1096                 3.8109                 2.0627
 Frc consts  --      0.7244                 2.5715                 1.5447
 IR Inten    --     38.4856                21.5264                20.3335

                     22                     23                     24
                      A                      A                      A
 Frequencies --   1200.4812              1220.9117              1303.1677
 Red. masses --      1.6754                 1.3168                 2.6163
 Frc consts  --      1.4226                 1.1565                 2.6178
 IR Inten    --     24.5741               185.7932               443.5510

                     25                     26                     27
                      A                      A                      A
 Frequencies --   1348.4957              1402.2052              1431.1467
 Red. masses --      1.2775                 1.2890                 1.3849
 Frc consts  --      1.3687                 1.4932                 1.6712
 IR Inten    --    137.9669                33.8994                10.4958

                     28                     29                     30
                      A                      A                      A
 Frequencies --   1492.9815              1502.7760              1514.6826
 Red. masses --      1.0413                 1.0629                 1.0838
 Frc consts  --      1.3676                 1.4142                 1.4651
 IR Inten    --      9.9243                 2.6679                17.8477

                     31                     32                     33
                      A                      A                      A
 Frequencies --   1784.1762              1837.8592              3076.0253
 Red. masses --      9.8433                 9.5929                 1.0354
 Frc consts  --     18.4615                19.0909                 5.7722
 IR Inten    --    227.5137               229.1586                 9.5160

                     34                     35                     36
                      A                      A                      A
 Frequencies --   3108.3734              3151.4388              3155.6332
 Red. masses --      1.0608                 1.1014                 1.1049
 Frc consts  --      6.0391                 6.4450                 6.4824
 IR Inten    --     17.3738                14.0720                 1.6994

                     37                     38                     39
                      A                      A                      A
 Frequencies --   3176.4227              3282.4071              3813.1605
 Red. masses --      1.1074                 1.1072                 1.0680
 Frc consts  --      6.5832                 7.0286                 9.1494
 IR Inten    --     14.6572                 9.5854                46.6124

 - Thermochemistry -
 -------------------
 Temperature   298.150 Kelvin.  Pressure   1.00000 Atm.
 Atom     1 has atomic number  8 and mass  15.99491

 Molecular mass:   115.03952 amu.
 Principal axes and moments of inertia in atomic units:
                           1         2         3
     Eigenvalues --   309.595401894.939782051.55198
           X            0.99994  -0.00972  -0.00584
           Y            0.00982   0.99981   0.01702
           Z            0.00568  -0.01708   0.99984
 This molecule is an asymmetric top.
 Rotational symmetry number  1.
 Rotational temperatures (Kelvin)      0.27976     0.04571     0.04222
 Rotational constants (GHZ):           5.82935     0.95240     0.87970
    1 imaginary frequencies ignored.
 Zero-point vibrational energy     299166.8 (Joules/Mol)
                                   71.50258 (Kcal/Mol)
 Warning -- explicit consideration of  11 degrees of freedom as
           vibrations may cause significant error
 Vibrational temperatures:    106.02   157.27   197.13   257.17   314.50
          (Kelvin)            416.27   468.37   506.83   578.44   647.36
                              847.25   901.83  1106.01  1150.22  1191.72
                             1281.72  1330.62  1514.46  1539.76  1622.12
                             1727.22  1756.62  1874.97  1940.18  2017.46
                             2059.10  2148.07  2162.16  2179.29  2567.03
                             2644.27  4425.71  4472.26  4534.22  4540.25
                             4570.16  4722.65  5486.29

 Zero-point correction=                           0.113947 (Hartree/Particle)
 Thermal correction to Energy=                    0.122647
 Thermal correction to Enthalpy=                  0.123591
 Thermal correction to Gibbs Free Energy=         0.079675
 Sum of electronic and zero-point Energies=           -420.121613
 Sum of electronic and thermal Energies=              -420.112914
 Sum of electronic and thermal Enthalpies=            -420.111969
 Sum of electronic and thermal Free Energies=         -420.155885

                     E (Thermal)             CV                S
                      KCal/Mol        Cal/Mol-Kelvin    Cal/Mol-Kelvin
 Total                   76.962             30.181             92.428
 Electronic               0.000              0.000              1.377
 Translational            0.889              2.981             40.136
 Rotational               0.889              2.981             28.578
 Vibrational             75.184             24.220             22.337
 Vibration     1          0.599              1.966              4.052
 Vibration     2          0.606              1.942              3.281
 Vibration     3          0.614              1.916              2.845
 Vibration     4          0.629              1.868              2.341
 Vibration     5          0.646              1.813              1.971
 Vibration     6          0.686              1.694              1.478
 Vibration     7          0.710              1.624              1.282
 Vibration     8          0.729              1.571              1.156
 Vibration     9          0.768              1.466              0.955
 Vibration    10          0.809              1.361              0.796
 Vibration    11          0.946              1.056              0.469

 1\1\GINC-AJ\Freq\UM062X\6-311++G(d,p)\C5H7O3(2)\AAYUSH\23-Jun-2025\0\\
 # freq 6-311++g(d,p) m062x\\Title Card Required\\0,2\O,3.28792,0.69368
 1,0.107604\H,2.567702,1.3072,-0.100133\C,2.49835,-0.776358,0.262899\H,
 3.25669,-1.509083,0.495405\C,1.225549,-0.767849,0.089378\C,-0.006562,-
 0.04711,-0.205267\O,-0.042632,1.13728,-0.420488\O,-1.054495,-0.864983,
 -0.207662\C,-2.339373,-0.261437,-0.473438\C,-2.888163,0.415283,0.76674
 3\H,-2.962177,-1.096937,-0.787233\H,-2.228903,0.442009,-1.299415\H,-3.
 890268,0.795964,0.560556\H,-2.95181,-0.2955,1.591887\H,-2.25639,1.2533

 Normal termination of Gaussian 16 at Mon Jun 23 03:27:40 2025.
