 Gaussian 16, Revision A.03,
 Gaussian 16:  ES64L-G16RevA.03 25-Dec-2016

 --------------------------
 # freq 6-311++g(d,p) m062x
 --------------------------

 -------------------
 Title Card Required
 -------------------
 Symbolic Z-matrix:
 Charge =  0 Multiplicity = 2

                         Standard orientation:
 ---------------------------------------------------------------------
 Center     Atomic      Atomic             Coordinates (Angstroms)
 Number     Number       Type             X           Y           Z
 ---------------------------------------------------------------------
      1          8           0        3.412406    0.892494    0.111010
      2          1           0        2.600990    1.398807   -0.074731
      3          6           0        2.324959   -1.186035    0.273028
      4          1           0        3.289900   -1.595199    0.461619
      5          6           0        1.221670   -0.760927    0.063532
      6          6           0       -0.010639   -0.040382   -0.207145
      7          8           0       -0.029724    1.150292   -0.385044
      8          8           0       -1.066223   -0.843654   -0.235697
      9          6           0       -2.342562   -0.215417   -0.483335
     10          6           0       -2.884191    0.428450    0.777312
     11          1           0       -2.975330   -1.032707   -0.823900
     12          1           0       -2.221988    0.512487   -1.286321
     13          1           0       -3.881076    0.828371    0.582604
     14          1           0       -2.957694   -0.307375    1.579333
     15          1           0       -2.241888    1.248419    1.098898
 ---------------------------------------------------------------------

 SCF Done:  E(UM062X) =  -420.211043617     A.U. after   24 cycles

 The electronic state is 2-A.
 Alpha  occ. eigenvalues --  -19.69356 -19.66574 -19.64302 -10.71693 -10.61380
 Alpha  occ. eigenvalues --  -10.58140 -10.57311 -10.54453  -1.26750  -1.17432
 Alpha  occ. eigenvalues --   -1.12172  -0.91270  -0.87855  -0.78867  -0.71413
 Alpha  occ. eigenvalues --   -0.65416  -0.61800  -0.59550  -0.57460  -0.54452
 Alpha  occ. eigenvalues --   -0.54158  -0.50197  -0.49266  -0.47544  -0.46075
 Alpha  occ. eigenvalues --   -0.42853  -0.42009  -0.40272  -0.39481  -0.37617
 Alpha  occ. eigenvalues --   -0.35609
 Alpha virt. eigenvalues --   -0.02277  -0.00428   0.00849   0.01471   0.01911
 Alpha virt. eigenvalues --    0.02702   0.03978   0.04906   0.05315   0.05858
 Alpha virt. eigenvalues --    0.06638   0.07373   0.08105   0.08908   0.10260

  Beta  occ. eigenvalues --  -19.69351 -19.64999 -19.64292 -10.71700 -10.61379
  Beta  occ. eigenvalues --  -10.58138 -10.57223 -10.54453  -1.26732  -1.17399
  Beta  occ. eigenvalues --   -1.04429  -0.91059  -0.87644  -0.78818  -0.71340
  Beta  occ. eigenvalues --   -0.65389  -0.61608  -0.59503  -0.57417  -0.54358
  Beta  occ. eigenvalues --   -0.51114  -0.50157  -0.47516  -0.46110  -0.42839
  Beta  occ. eigenvalues --   -0.40648  -0.39579  -0.39155  -0.37225  -0.36693
  Beta virt. eigenvalues --   -0.07892  -0.02242  -0.00394   0.00990   0.01474
  Beta virt. eigenvalues --    0.02061   0.02832   0.04224   0.05157   0.05682
  Beta virt. eigenvalues --    0.05955   0.06733   0.07388   0.08242   0.09106

 Mulliken charges and spin densities:
               1          2
     1  O   -0.271651   0.940880
     2  H    0.252675  -0.018472
     3  C   -2.472520   0.011621
     4  H    0.182014   0.008526
     5  C    2.436504   0.076466
     6  C   -0.174790  -0.024123
     7  O   -0.253454   0.002228
     8  O    0.043599   0.002012
     9  C   -0.259645   0.000270
    10  C   -0.401987   0.000545
    11  H    0.201246  -0.000015
    12  H    0.197479   0.000144
    13  H    0.168888  -0.000016
    14  H    0.167601  -0.000037
    15  H    0.184040  -0.000029
 Sum of Mulliken charges =  -0.00000   1.00000

 Dipole moment (field-independent basis, Debye):
    X=             -2.7026    Y=             -1.1177    Z=              0.0482  Tot=              2.9250
 Quadrupole moment (field-independent basis, Debye-Ang):
   XX=            -43.9244   YY=            -48.3745   ZZ=            -47.7703
   XY=             -4.3879   XZ=              1.1351   YZ=             -0.2192

  Exact polarizability:  96.162  -3.603  65.916   3.346  -2.200  50.522
 Approx polarizability: 100.289  -7.062  82.694   6.516  -4.900  58.193

 ******    2 imaginary frequencies (negative Signs) ******

                      1                      2                      3
                      A                      A                      A
 Frequencies --    -45.2600               -35.8507                78.5192
 Red. masses --      6.9463                 6.6869                 3.8671
 Frc consts  --      0.0084                 0.0051                 0.0140
 IR Inten    --      1.0673                 1.0362                 2.7667

                      4                      5                      6
                      A                      A                      A
 Frequencies --    116.1873               170.4067               227.7508
 Red. masses --      3.4698                 3.6285                 1.6336
 Frc consts  --      0.0276                 0.0621                 0.0499
 IR Inten    --      1.9503                 4.5131                 2.1647

                      7                      8                      9
                      A                      A                      A
 Frequencies --    246.3933               265.3148               270.5849
 Red. masses --      3.3928                 1.4191                 2.0699
 Frc consts  --      0.1214                 0.0589                 0.0893
 IR Inten    --      1.2833                90.7084                27.9580

                     10                     11                     12
                      A                      A                      A
 Frequencies --    339.1324               423.6385               559.6840
 Red. masses --      2.9433                 4.0118                 4.3703
 Frc consts  --      0.1994                 0.4242                 0.8066
 IR Inten    --     15.2298                 1.9545                 1.1138

                     13                     14                     15
                      A                      A                      A
 Frequencies --    596.7985               626.7301               762.2647
 Red. masses --      1.1128                 5.3246                 1.2053
 Frc consts  --      0.2335                 1.2322                 0.4126
 IR Inten    --    159.0306                46.9482                45.3235

                     16                     17                     18
                      A                      A                      A
 Frequencies --    781.1140               788.0983               801.6440
 Red. masses --      2.9467                 1.7920                 1.2307
 Frc consts  --      1.0593                 0.6557                 0.4660
 IR Inten    --      0.6029                59.6443                 5.3151

                     19                     20                     21
                      A                      A                      A
 Frequencies --    896.5159               932.7812              1076.4230
 Red. masses --      3.0905                 2.9361                 4.1662
 Frc consts  --      1.4635                 1.5052                 2.8442
 IR Inten    --     11.8961                 4.4699                24.4932

                     22                     23                     24
                      A                      A                      A
 Frequencies --   1128.3740              1204.3228              1306.5003
 Red. masses --      2.0779                 1.7688                 2.8247
 Frc consts  --      1.5588                 1.5115                 2.8408
 IR Inten    --     23.0457                 3.2362               556.5250

                     25                     26                     27
                      A                      A                      A
 Frequencies --   1350.8785              1403.5100              1432.4457
 Red. masses --      1.3381                 1.3080                 1.4079
 Frc consts  --      1.4387                 1.5180                 1.7021
 IR Inten    --    179.1537                48.6382                15.8766

                     28                     29                     30
                      A                      A                      A
 Frequencies --   1492.8283              1503.5472              1515.7410
 Red. masses --      1.0413                 1.0627                 1.0875
 Frc consts  --      1.3672                 1.4154                 1.4721
 IR Inten    --     10.2054                 3.0957                20.9363

                     31                     32                     33
                      A                      A                      A
 Frequencies --   1817.2521              2249.1144              3075.6262
 Red. masses --     11.8417                 5.8241                 1.0354
 Frc consts  --     23.0406                17.3580                 5.7708
 IR Inten    --    290.8081                83.8492                 9.3703

                     34                     35                     36
                      A                      A                      A
 Frequencies --   3108.9059              3151.0811              3155.6551
 Red. masses --      1.0607                 1.1014                 1.1049
 Frc consts  --      6.0405                 6.4432                 6.4827
 IR Inten    --     17.1338                14.0747                 1.5460

                     37                     38                     39
                      A                      A                      A
 Frequencies --   3176.5283              3490.8585              3753.0978
 Red. masses --      1.1076                 1.1680                 1.0676
 Frc consts  --      6.5845                 8.3863                 8.8602
 IR Inten    --     14.0962                73.7578                26.9374

 - Thermochemistry -
 -------------------
 Temperature   298.150 Kelvin.  Pressure   1.00000 Atm.
 Atom     1 has atomic number  8 and mass  15.99491

 Molecular mass:   115.03952 amu.
 Principal axes and moments of inertia in atomic units:
                           1         2         3
     Eigenvalues --   362.979961909.177002118.11937
           X            0.99992  -0.01100  -0.00592
           Y            0.01107   0.99986   0.01291
           Z            0.00578  -0.01297   0.99990
 This molecule is an asymmetric top.
 Rotational symmetry number  1.
 Rotational temperatures (Kelvin)      0.23862     0.04537     0.04089
 Rotational constants (GHZ):           4.97201     0.94530     0.85205
    2 imaginary frequencies ignored.
 Zero-point vibrational energy     294737.4 (Joules/Mol)
                                   70.44393 (Kcal/Mol)
 Warning -- explicit consideration of  11 degrees of freedom as
           vibrations may cause significant error
 Vibrational temperatures:    112.97   167.17   245.18   327.68   354.51
          (Kelvin)            381.73   389.31   487.94   609.52   805.26
                              858.66   901.72  1096.73  1123.85  1133.90
                             1153.39  1289.89  1342.06  1548.73  1623.48
                             1732.75  1879.76  1943.61  2019.34  2060.97
                             2147.85  2163.27  2180.81  2614.62  3235.97
                             4425.14  4473.02  4533.70  4540.28  4570.32
                             5022.57  5399.87

 Zero-point correction=                           0.112260 (Hartree/Particle)
 Thermal correction to Energy=                    0.120819
 Thermal correction to Enthalpy=                  0.121763
 Thermal correction to Gibbs Free Energy=         0.078242
 Sum of electronic and zero-point Energies=           -420.098784
 Sum of electronic and thermal Energies=              -420.090225
 Sum of electronic and thermal Enthalpies=            -420.089281
 Sum of electronic and thermal Free Energies=         -420.132802

                     E (Thermal)             CV                S
                      KCal/Mol        Cal/Mol-Kelvin    Cal/Mol-Kelvin
 Total                   75.815             30.077             91.599
 Electronic               0.000              0.000              1.377
 Translational            0.889              2.981             40.136
 Rotational               0.889              2.981             28.775
 Vibrational             74.038             24.116             21.311
 Vibration     1          0.600              1.964              3.928
 Vibration     2          0.608              1.936              3.163
 Vibration     3          0.626              1.879              2.431
 Vibration     4          0.651              1.799              1.897
 Vibration     5          0.661              1.769              1.756
 Vibration     6          0.671              1.737              1.627
 Vibration     7          0.674              1.727              1.592
 Vibration     8          0.719              1.597              1.216
 Vibration     9          0.786              1.419              0.880
 Vibration    10          0.915              1.119              0.524
 Vibration    11          0.955              1.039              0.455

 1\1\GINC-AJ\Freq\UM062X\6-311++G(d,p)\C5H7O3(2)\AAYUSH\23-Jun-2025\0\\
 # freq 6-311++g(d,p) m062x\\Title Card Required\\0,2\O,3.412406,0.8924
 94,0.11101\H,2.60099,1.398807,-0.074731\C,2.324959,-1.186035,0.273028\
 H,3.2899,-1.595199,0.461619\C,1.22167,-0.760927,0.063532\C,-0.010639,-
 0.040382,-0.207145\O,-0.029724,1.150292,-0.385044\O,-1.066223,-0.84365
 4,-0.235697\C,-2.342562,-0.215417,-0.483335\C,-2.884191,0.42845,0.7773
 12\H,-2.97533,-1.032707,-0.8239\H,-2.221988,0.512487,-1.286321\H,-3.88
 1076,0.828371,0.582604\H,-2.957694,-0.307375,1.579333\H,-2.241888,1.24

 Normal termination of Gaussian 16 at Mon Jun 23 02:54:54 2025.
