 Gaussian 16, Revision A.03,
 Gaussian 16:  ES64L-G16RevA.03 25-Dec-2016

 -------------------
 # freq 6-31+g m062x
 -------------------

 -------------------
 Title Card Required
 -------------------
 Symbolic Z-matrix:
 Charge =  0 Multiplicity = 2

                         Standard orientation:
 ---------------------------------------------------------------------
 Center     Atomic      Atomic             Coordinates (Angstroms)
 Number     Number       Type             X           Y           Z
 ---------------------------------------------------------------------
      1          8           0        3.364209    0.816750    0.108394
      2          1           0        2.592488    1.377188   -0.085309
      3          6           0        2.381807   -1.048263    0.273018
      4          1           0        3.325933   -1.500998    0.471083
      5          6           0        1.230547   -0.745849    0.071106
      6          6           0       -0.011390   -0.044104   -0.206554
      7          8           0       -0.036999    1.144080   -0.398117
      8          8           0       -1.061513   -0.854159   -0.224997
      9          6           0       -2.341591   -0.234966   -0.479488
     10          6           0       -2.886049    0.421343    0.773520
     11          1           0       -2.970390   -1.059379   -0.809992
     12          1           0       -2.224712    0.483760   -1.291198
     13          1           0       -3.885019    0.813682    0.574134
     14          1           0       -2.955771   -0.305090    1.584389
     15          1           0       -2.248043    1.248506    1.085042
 ---------------------------------------------------------------------

 SCF Done:  E(UM062X) =  -419.960268459     A.U. after   23 cycles

 The electronic state is 2-A.
 Alpha  occ. eigenvalues --  -19.71878 -19.68354 -19.67629 -10.74175 -10.62483
 Alpha  occ. eigenvalues --  -10.60580 -10.59567 -10.55367  -1.29274  -1.19911
 Alpha  occ. eigenvalues --   -1.12810  -0.92335  -0.88939  -0.79573  -0.72325
 Alpha  occ. eigenvalues --   -0.65782  -0.62399  -0.59706  -0.58057  -0.54967
 Alpha  occ. eigenvalues --   -0.53145  -0.50563  -0.49406  -0.47877  -0.46189
 Alpha  occ. eigenvalues --   -0.43011  -0.41839  -0.40344  -0.39414  -0.37645
 Alpha  occ. eigenvalues --   -0.34682
 Alpha virt. eigenvalues --   -0.02576   0.01604   0.02895   0.03123   0.03623
 Alpha virt. eigenvalues --    0.04426   0.05441   0.06322   0.06977   0.07853
 Alpha virt. eigenvalues --    0.08354   0.08615   0.09093   0.10778   0.11788

  Beta  occ. eigenvalues --  -19.71867 -19.67598 -19.66799 -10.74193 -10.62482
  Beta  occ. eigenvalues --  -10.60625 -10.59372 -10.55367  -1.29230  -1.19839
  Beta  occ. eigenvalues --   -1.06223  -0.91892  -0.88629  -0.79481  -0.72153
  Beta  occ. eigenvalues --   -0.65736  -0.62082  -0.59616  -0.57950  -0.54899
  Beta  occ. eigenvalues --   -0.50475  -0.50220  -0.47837  -0.46234  -0.42967
  Beta  occ. eigenvalues --   -0.40948  -0.39814  -0.39384  -0.37899  -0.35976
  Beta virt. eigenvalues --   -0.08661  -0.02568   0.01609   0.02972   0.03162
  Beta virt. eigenvalues --    0.03872   0.04554   0.05823   0.06424   0.07258
  Beta virt. eigenvalues --    0.07896   0.08435   0.08712   0.09313   0.10757

 Mulliken charges and spin densities:
               1          2
     1  O   -0.469021   0.870846
     2  H    0.415236  -0.030735
     3  C   -0.303912  -0.137053
     4  H    0.327092   0.012080
     5  C   -0.043305   0.286707
     6  C    0.345932  -0.013026
     7  O   -0.401761   0.007356
     8  O   -0.214821   0.003245
     9  C   -0.222960  -0.000129
    10  C   -0.560747   0.000642
    11  H    0.223786   0.000025
    12  H    0.236268  -0.000022
    13  H    0.210806   0.000059
    14  H    0.222213   0.000008
    15  H    0.235193  -0.000002
 Sum of Mulliken charges =  -0.00000   1.00000

 Dipole moment (field-independent basis, Debye):
    X=             -2.9557    Y=             -1.0842    Z=              0.0204  Tot=              3.1483
 Quadrupole moment (field-independent basis, Debye-Ang):
   XX=            -45.4745   YY=            -49.3807   ZZ=            -47.9443
   XY=             -4.6523   XZ=              1.0919   YZ=             -0.1102

  Exact polarizability:  98.337   3.252  66.023   3.623  -2.697  46.419
 Approx polarizability: 100.243  -0.271  78.782   6.843  -5.394  48.783

 ******    5 imaginary frequencies (negative Signs) ******

                      1                      2                      3
                      A                      A                      A
 Frequencies --   -389.9142              -247.7547              -109.3559
 Red. masses --      1.0884                11.1512                 5.8028
 Frc consts  --      0.0975                 0.4033                 0.0409
 IR Inten    --    155.5665                 5.7134                 4.4690

                      4                      5                      6
                      A                      A                      A
 Frequencies --    -89.7608               -28.6208                40.2863
 Red. masses --      6.6014                 3.2692                 3.2321
 Frc consts  --      0.0313                 0.0016                 0.0031
 IR Inten    --      0.5065                 7.2194                 3.8481

                      7                      8                      9
                      A                      A                      A
 Frequencies --    162.1800               197.0102               237.8847
 Red. masses --      2.3424                 1.7790                 4.1042
 Frc consts  --      0.0363                 0.0407                 0.1368
 IR Inten    --      7.7902                 3.7114                 1.7629

                     10                     11                     12
                      A                      A                      A
 Frequencies --    311.2953               418.8525               552.5589
 Red. masses --      2.9712                 3.9724                 1.5028
 Frc consts  --      0.1696                 0.4106                 0.2703
 IR Inten    --     22.3932                 2.6779               149.3435

                     13                     14                     15
                      A                      A                      A
 Frequencies --    568.0992               635.7353               765.5551
 Red. masses --      2.1581                 7.6187                 5.2568
 Frc consts  --      0.4104                 1.8142                 1.8152
 IR Inten    --     53.0006                25.4782                56.6589

                     16                     17                     18
                      A                      A                      A
 Frequencies --    792.2007               816.6229               824.5431
 Red. masses --      1.0835                 1.2525                 1.5107
 Frc consts  --      0.4006                 0.4921                 0.6051
 IR Inten    --     66.1551                 6.7733                21.7617

                     19                     20                     21
                      A                      A                      A
 Frequencies --    899.7020               947.9637              1111.4067
 Red. masses --      3.3332                 2.6549                 4.2208
 Frc consts  --      1.5897                 1.4057                 3.0718
 IR Inten    --     15.5027                 5.5007                 9.5586

                     22                     23                     24
                      A                      A                      A
 Frequencies --   1157.3900              1228.9471              1336.8644
 Red. masses --      2.0650                 1.7562                 1.5140
 Frc consts  --      1.6298                 1.5627                 1.5942
 IR Inten    --     21.3468                 2.4887               241.9630

                     25                     26                     27
                      A                      A                      A
 Frequencies --   1381.0749              1446.3841              1457.6438
 Red. masses --      2.1463                 1.4427                 1.2813
 Frc consts  --      2.4120                 1.7783                 1.6040
 IR Inten    --    459.7752                82.1775                17.3048

                     28                     29                     30
                      A                      A                      A
 Frequencies --   1528.5335              1537.7158              1545.7012
 Red. masses --      1.0423                 1.0726                 1.0746
 Frc consts  --      1.4347                 1.4943                 1.5127
 IR Inten    --     13.9728                 6.3971                25.1603

                     31                     32                     33
                      A                      A                      A
 Frequencies --   1882.4126              2260.0950              3108.3706
 Red. masses --     12.1183                 5.8737                 1.0351
 Frc consts  --     25.3000                17.6773                 5.8927
 IR Inten    --    236.6910                90.7928                12.1875

                     34                     35                     36
                      A                      A                      A
 Frequencies --   3139.7796              3188.6633              3192.2221
 Red. masses --      1.0601                 1.1002                 1.1027
 Frc consts  --      6.1576                 6.5910                 6.6204
 IR Inten    --     18.7389                13.7622                 4.6639

                     37                     38                     39
                      A                      A                      A
 Frequencies --   3213.3367              3517.9914              3777.5880
 Red. masses --      1.1055                 1.1660                 1.0677
 Frc consts  --      6.7255                 8.5023                 8.9772
 IR Inten    --     16.8128                69.6594                11.0278

 - Thermochemistry -
 -------------------
 Temperature   298.150 Kelvin.  Pressure   1.00000 Atm.
 Atom     1 has atomic number  8 and mass  15.99491

 Molecular mass:   115.03952 amu.
 Principal axes and moments of inertia in atomic units:
                           1         2         3
     Eigenvalues --   340.336471903.229912089.92331
           X            0.99993  -0.01005  -0.00588
           Y            0.01014   0.99984   0.01492
           Z            0.00573  -0.01498   0.99987
 This molecule is an asymmetric top.
 Rotational symmetry number  1.
 Rotational temperatures (Kelvin)      0.25449     0.04551     0.04144
 Rotational constants (GHZ):           5.30281     0.94825     0.86354
    5 imaginary frequencies ignored.
 Zero-point vibrational energy     294177.3 (Joules/Mol)
                                   70.31007 (Kcal/Mol)
 Warning -- explicit consideration of   8 degrees of freedom as
           vibrations may cause significant error
 Vibrational temperatures:     57.96   233.34   283.45   342.26   447.88
          (Kelvin)            602.64   795.01   817.37   914.68  1101.46
                             1139.80  1174.94  1186.33  1294.47  1363.91
                             1599.07  1665.23  1768.18  1923.45  1987.06
                             2081.02  2097.22  2199.22  2212.43  2223.92
                             2708.37  3251.77  4472.25  4517.44  4587.78
                             4592.90  4623.27  5061.61  5435.11

 Zero-point correction=                           0.112046 (Hartree/Particle)
 Thermal correction to Energy=                    0.119147
 Thermal correction to Enthalpy=                  0.120091
 Thermal correction to Gibbs Free Energy=         0.078762
 Sum of electronic and zero-point Energies=           -419.848222
 Sum of electronic and thermal Energies=              -419.841121
 Sum of electronic and thermal Enthalpies=            -419.840177
 Sum of electronic and thermal Free Energies=         -419.881506

                     E (Thermal)             CV                S
                      KCal/Mol        Cal/Mol-Kelvin    Cal/Mol-Kelvin
 Total                   74.766             24.610             86.985
 Electronic               0.000              0.000              1.377
 Translational            0.889              2.981             40.136
 Rotational               0.889              2.981             28.694
 Vibrational             72.989             18.648             16.777
 Vibration     1          0.594              1.981              5.245
 Vibration     2          0.622              1.889              2.524
 Vibration     3          0.636              1.844              2.161
 Vibration     4          0.656              1.783              1.819
 Vibration     5          0.700              1.652              1.355
 Vibration     6          0.782              1.429              0.896
 Vibration     7          0.908              1.134              0.539
 Vibration     8          0.924              1.100              0.508

 Normal termination of Gaussian 16 at Fri Jun 20 13:07:35 2025.
