 Gaussian 16, Revision A.03,
 Gaussian 16:  ES64L-G16RevA.03 25-Dec-2016

 -------------------
 # freq 6-31+g m062x
 -------------------

 -------------------
 Title Card Required
 -------------------
 Symbolic Z-matrix:
 Charge =  0 Multiplicity = 2

                         Standard orientation:
 ---------------------------------------------------------------------
 Center     Atomic      Atomic             Coordinates (Angstroms)
 Number     Number       Type             X           Y           Z
 ---------------------------------------------------------------------
      1          8           0        3.405662    0.881182    0.110612
      2          1           0        2.599784    1.395715   -0.076056
      3          6           0        2.332879   -1.167385    0.273246
      4          1           0        3.298348   -1.574788    0.462342
      5          6           0        1.223308   -0.757426    0.064430
      6          6           0       -0.010918   -0.040753   -0.207107
      7          8           0       -0.031465    1.149592   -0.386980
      8          8           0       -1.065438   -0.845383   -0.234127
      9          6           0       -2.342392   -0.218575   -0.482717
     10          6           0       -2.884443    0.427148    0.776811
     11          1           0       -2.974554   -1.036954   -0.821775
     12          1           0       -2.222445    0.507995   -1.286996
     13          1           0       -3.881635    0.825958    0.581392
     14          1           0       -2.957400   -0.307295    1.580149
     15          1           0       -2.242772    1.248185    1.096918
 ---------------------------------------------------------------------

 SCF Done:  E(UM062X) =  -419.964642292     A.U. after   24 cycles

 The electronic state is 2-A.
 Alpha  occ. eigenvalues --  -19.71787 -19.69178 -19.67538 -10.74086 -10.62418
 Alpha  occ. eigenvalues --  -10.59828 -10.59141 -10.55320  -1.29161  -1.19786
 Alpha  occ. eigenvalues --   -1.13371  -0.92064  -0.88681  -0.79452  -0.72121
 Alpha  occ. eigenvalues --   -0.65649  -0.62095  -0.59613  -0.57946  -0.54925
 Alpha  occ. eigenvalues --   -0.53865  -0.50462  -0.49298  -0.47804  -0.46153
 Alpha  occ. eigenvalues --   -0.42933  -0.42024  -0.40292  -0.39339  -0.37898
 Alpha  occ. eigenvalues --   -0.35883
 Alpha virt. eigenvalues --   -0.02480   0.01629   0.02865   0.03135   0.03736
 Alpha virt. eigenvalues --    0.04412   0.05230   0.06346   0.06931   0.07909
 Alpha virt. eigenvalues --    0.08426   0.08645   0.09006   0.11125   0.11805

  Beta  occ. eigenvalues --  -19.71782 -19.67540 -19.67526 -10.74096 -10.62417
  Beta  occ. eigenvalues --  -10.59832 -10.59040 -10.55320  -1.29141  -1.19754
  Beta  occ. eigenvalues --   -1.05988  -0.91835  -0.88484  -0.79397  -0.72029
  Beta  occ. eigenvalues --   -0.65626  -0.61890  -0.59569  -0.57894  -0.54877
  Beta  occ. eigenvalues --   -0.50640  -0.50419  -0.47784  -0.46191  -0.42910
  Beta  occ. eigenvalues --   -0.40712  -0.39508  -0.39225  -0.37700  -0.36730
  Beta virt. eigenvalues --   -0.08202  -0.02460   0.01653   0.02980   0.03161
  Beta virt. eigenvalues --    0.03869   0.04528   0.05448   0.06450   0.07145
  Beta virt. eigenvalues --    0.07964   0.08567   0.08633   0.09109   0.11047

 Mulliken charges and spin densities:
               1          2
     1  O   -0.450006   0.948390
     2  H    0.416884  -0.033972
     3  C   -0.337645  -0.093761
     4  H    0.354061   0.005247
     5  C    0.018434   0.184601
     6  C    0.254700  -0.015870
     7  O   -0.392556   0.003094
     8  O   -0.207009   0.002148
     9  C   -0.225067  -0.000166
    10  C   -0.559195   0.000256
    11  H    0.223426   0.000008
    12  H    0.235599  -0.000018
    13  H    0.210772   0.000033
    14  H    0.222218   0.000005
    15  H    0.235385   0.000007
 Sum of Mulliken charges =  -0.00000   1.00000

 Dipole moment (field-independent basis, Debye):
    X=             -2.8543    Y=             -0.9521    Z=              0.0016  Tot=              3.0089
 Quadrupole moment (field-independent basis, Debye-Ang):
   XX=            -45.2427   YY=            -49.2632   ZZ=            -47.9683
   XY=             -4.4438   XZ=              1.0287   YZ=             -0.1438

  Exact polarizability:  92.647  -2.259  63.280   3.805  -2.740  46.278
 Approx polarizability:  95.088  -6.121  77.279   7.033  -5.673  48.567

 ******    4 imaginary frequencies (negative Signs) ******

                      1                      2                      3
                      A                      A                      A
 Frequencies --   -405.9125              -125.1993               -82.3254
 Red. masses --      1.0890                 4.7683                 6.7328
 Frc consts  --      0.1057                 0.0440                 0.0269
 IR Inten    --    162.1265                17.8396                 0.5969

                      4                      5                      6
                      A                      A                      A
 Frequencies --    -27.6494                40.6127               134.4094
 Red. masses --      3.2915                 3.1869                 3.8502
 Frc consts  --      0.0015                 0.0031                 0.0410
 IR Inten    --      6.5792                 3.0717                 5.2143

                      7                      8                      9
                      A                      A                      A
 Frequencies --    185.1408               206.4318               245.5679
 Red. masses --      1.5729                 3.4616                 4.0473
 Frc consts  --      0.0318                 0.0869                 0.1438
 IR Inten    --     12.8679                13.9195                 1.2521

                     10                     11                     12
                      A                      A                      A
 Frequencies --    310.5798               390.6765               420.5229
 Red. masses --      2.8964                 1.1883                 3.8553
 Frc consts  --      0.1646                 0.1069                 0.4017
 IR Inten    --     30.0967               173.1832                 3.2654

                     13                     14                     15
                      A                      A                      A
 Frequencies --    568.2170               638.9041               774.8911
 Red. masses --      4.3994                 6.4825                 4.0721
 Frc consts  --      0.8369                 1.5591                 1.4406
 IR Inten    --      3.0213                20.3540                63.0946

                     16                     17                     18
                      A                      A                      A
 Frequencies --    792.0032               816.9457               859.0820
 Red. masses --      1.2297                 1.2575                 1.6470
 Frc consts  --      0.4545                 0.4945                 0.7162
 IR Inten    --     67.0520                 2.9062                18.8971

                     19                     20                     21
                      A                      A                      A
 Frequencies --    900.4652               948.4092              1112.3382
 Red. masses --      3.3989                 2.6365                 4.2117
 Frc consts  --      1.6238                 1.3972                 3.0703
 IR Inten    --     15.3674                 5.3587                 8.9987

                     22                     23                     24
                      A                      A                      A
 Frequencies --   1157.7452              1228.7673              1336.9787
 Red. masses --      2.0734                 1.7575                 1.5128
 Frc consts  --      1.6374                 1.5635                 1.5932
 IR Inten    --     21.2590                 2.8511               226.0293

                     25                     26                     27
                      A                      A                      A
 Frequencies --   1381.0992              1446.3522              1457.4347
 Red. masses --      2.1473                 1.4428                 1.2825
 Frc consts  --      2.4132                 1.7782                 1.6051
 IR Inten    --    432.1969                77.6260                16.8173

                     28                     29                     30
                      A                      A                      A
 Frequencies --   1528.4322              1537.5406              1545.5808
 Red. masses --      1.0423                 1.0739                 1.0737
 Frc consts  --      1.4346                 1.4958                 1.5112
 IR Inten    --     14.2123                 6.4628                24.7262

                     31                     32                     33
                      A                      A                      A
 Frequencies --   1884.2465              2309.2886              3108.1222
 Red. masses --     12.1535                 5.6474                 1.0351
 Frc consts  --     25.4230                17.7441                 5.8917
 IR Inten    --    268.6717                87.0252                12.2331

                     34                     35                     36
                      A                      A                      A
 Frequencies --   3139.4192              3188.3518              3191.8721
 Red. masses --      1.0601                 1.1003                 1.1026
 Frc consts  --      6.1560                 6.5900                 6.6187
 IR Inten    --     18.7517                13.6088                 4.9438

                     37                     38                     39
                      A                      A                      A
 Frequencies --   3212.9735              3533.6915              3766.2355
 Red. masses --      1.1055                 1.1750                 1.0676
 Frc consts  --      6.7239                 8.6449                 8.9224
 IR Inten    --     16.7696                69.4261                 7.5113

 - Thermochemistry -
 -------------------
 Temperature   298.150 Kelvin.  Pressure   1.00000 Atm.
 Atom     1 has atomic number  8 and mass  15.99491

 Molecular mass:   115.03952 amu.
 Principal axes and moments of inertia in atomic units:
                           1         2         3
     Eigenvalues --   359.526921908.403942113.94736
           X            0.99992  -0.01081  -0.00591
           Y            0.01089   0.99985   0.01325
           Z            0.00577  -0.01332   0.99989
 This molecule is an asymmetric top.
 Rotational symmetry number  1.
 Rotational temperatures (Kelvin)      0.24091     0.04539     0.04097
 Rotational constants (GHZ):           5.01977     0.94568     0.85373
    4 imaginary frequencies ignored.
 Zero-point vibrational energy     294875.5 (Joules/Mol)
                                   70.47693 (Kcal/Mol)
 Warning -- explicit consideration of   9 degrees of freedom as
           vibrations may cause significant error
 Vibrational temperatures:     58.43   193.39   266.38   297.01   353.32
          (Kelvin)            446.86   562.10   605.04   817.54   919.24
                             1114.90  1139.52  1175.40  1236.03  1295.57
                             1364.55  1600.41  1665.74  1767.92  1923.61
                             1987.09  2080.98  2096.92  2199.07  2212.18
                             2223.75  2711.01  3322.55  4471.89  4516.92
                             4587.33  4592.39  4622.75  5084.19  5418.77

 Zero-point correction=                           0.112312 (Hartree/Particle)
 Thermal correction to Energy=                    0.120136
 Thermal correction to Enthalpy=                  0.121080
 Thermal correction to Gibbs Free Energy=         0.078343
 Sum of electronic and zero-point Energies=           -419.852330
 Sum of electronic and thermal Energies=              -419.844506
 Sum of electronic and thermal Enthalpies=            -419.843562
 Sum of electronic and thermal Free Energies=         -419.886299

                     E (Thermal)             CV                S
                      KCal/Mol        Cal/Mol-Kelvin    Cal/Mol-Kelvin
 Total                   75.386             26.749             89.947
 Electronic               0.000              0.000              1.377
 Translational            0.889              2.981             40.136
 Rotational               0.889              2.981             28.763
 Vibrational             73.609             20.787             19.671
 Vibration     1          0.594              1.981              5.229
 Vibration     2          0.613              1.919              2.882
 Vibration     3          0.631              1.860              2.276
 Vibration     4          0.641              1.831              2.075
 Vibration     5          0.660              1.770              1.762
 Vibration     6          0.699              1.654              1.359
 Vibration     7          0.758              1.490              0.998
 Vibration     8          0.783              1.426              0.890
 Vibration     9          0.924              1.100              0.508

 Normal termination of Gaussian 16 at Fri Jun 20 13:06:48 2025.
