 Gaussian 16, Revision A.03,
 Gaussian 16:  ES64L-G16RevA.03 25-Dec-2016

 --------------------------
 # ccsd(t)/6-311++g(d,p) sp
 --------------------------

 -------------------
 Title Card Required
 -------------------
 Symbolic Z-matrix:
 Charge =  0 Multiplicity = 2

                         Standard orientation:
 ---------------------------------------------------------------------
 Center     Atomic      Atomic             Coordinates (Angstroms)
 Number     Number       Type             X           Y           Z
 ---------------------------------------------------------------------
      1          8           0        3.405662    0.881182    0.110612
      2          1           0        2.599784    1.395715   -0.076056
      3          6           0        2.332879   -1.167385    0.273246
      4          1           0        3.298348   -1.574788    0.462342
      5          6           0        1.223308   -0.757426    0.064430
      6          6           0       -0.010918   -0.040753   -0.207107
      7          8           0       -0.031465    1.149592   -0.386980
      8          8           0       -1.065438   -0.845383   -0.234127
      9          6           0       -2.342392   -0.218575   -0.482717
     10          6           0       -2.884443    0.427148    0.776811
     11          1           0       -2.974554   -1.036954   -0.821775
     12          1           0       -2.222445    0.507995   -1.286996
     13          1           0       -3.881635    0.825958    0.581392
     14          1           0       -2.957400   -0.307295    1.580149
     15          1           0       -2.242772    1.248185    1.096918
 ---------------------------------------------------------------------

 SCF Done:  E(UHF) =  -417.995445304     A.U. after   36 cycles
 E2 =    -0.1258992741D+01 EUMP2 =    -0.41925443804525D+03
 CCSD(T)= -0.41935907956D+03

 The electronic state is 2-A.
 Alpha  occ. eigenvalues --  -20.62325 -20.61829 -20.57205 -11.42418 -11.30449
 Alpha  occ. eigenvalues --  -11.26801 -11.26155 -11.23189  -1.49311  -1.39303
 Alpha  occ. eigenvalues --   -1.37288  -1.08832  -1.04632  -0.92971  -0.84507
 Alpha  occ. eigenvalues --   -0.77384  -0.73353  -0.70762  -0.67458  -0.66422
 Alpha  occ. eigenvalues --   -0.64683  -0.63985  -0.59294  -0.56086  -0.54850
 Alpha  occ. eigenvalues --   -0.54520  -0.51411  -0.49694  -0.47866  -0.42966
 Alpha  occ. eigenvalues --   -0.42077
 Alpha virt. eigenvalues --    0.03881   0.04683   0.05623   0.06302   0.07179
 Alpha virt. eigenvalues --    0.08548   0.08612   0.09362   0.11076   0.12218
 Alpha virt. eigenvalues --    0.12690   0.13547   0.14461   0.14940   0.16422

  Beta  occ. eigenvalues --  -20.62313 -20.57747 -20.56968 -11.42599 -11.30446
  Beta  occ. eigenvalues --  -11.27670 -11.25115 -11.23188  -1.49180  -1.38898
  Beta  occ. eigenvalues --   -1.21866  -1.07871  -1.04644  -0.93285  -0.84500
  Beta  occ. eigenvalues --   -0.77335  -0.73299  -0.70466  -0.67244  -0.63983
  Beta  occ. eigenvalues --   -0.62011  -0.59068  -0.55607  -0.54784  -0.51294
  Beta  occ. eigenvalues --   -0.49739  -0.49100  -0.47292  -0.43193  -0.42731
  Beta virt. eigenvalues --    0.03882   0.04666   0.05627   0.06068   0.06968
  Beta virt. eigenvalues --    0.07860   0.08423   0.09094   0.10434   0.12056
  Beta virt. eigenvalues --    0.12472   0.13066   0.13622   0.14523   0.14928

 Mulliken charges and spin densities:
               1          2
     1  O   -0.245492   0.988380
     2  H    0.265714  -0.035602
     3  C   -2.878304  -0.375340
     4  H    0.188198   0.039912
     5  C    2.971511   0.459737
     6  C   -0.234587  -0.123551
     7  O   -0.329163   0.044008
     8  O   -0.036708   0.001417
     9  C   -0.155081  -0.000643
    10  C   -0.355342   0.001478
    11  H    0.172630   0.000135
    12  H    0.181045   0.000015
    13  H    0.137499   0.000102
    14  H    0.145757  -0.000080
    15  H    0.172323   0.000032
 Sum of Mulliken charges =  -0.00000   1.00000

 Dipole moment (field-independent basis, Debye):
    X=             -2.2785    Y=             -1.0002    Z=              0.0537  Tot=              2.4890
 Quadrupole moment (field-independent basis, Debye-Ang):
   XX=            -42.7214   YY=            -48.8208   ZZ=            -47.7615
   XY=             -3.7743   XZ=              1.2968   YZ=             -0.1326

 8\PMP3-0=-419.2865829\MP4SDQ=-419.306283\CCSD=-419.3067219\CCSD(T)=-41
 Normal termination of Gaussian 16 at Tue Jul 15 22:20:22 2025.
