 Gaussian 16, Revision A.03,
 Gaussian 16:  ES64L-G16RevA.03 25-Dec-2016

 --------------------------
 # ccsd(t)/6-311++g(d,p) sp
 --------------------------

 -------------------
 Title Card Required
 -------------------
 Symbolic Z-matrix:
 Charge =  0 Multiplicity = 2

                         Standard orientation:
 ---------------------------------------------------------------------
 Center     Atomic      Atomic             Coordinates (Angstroms)
 Number     Number       Type             X           Y           Z
 ---------------------------------------------------------------------
      1          8           0        3.287920    0.693681    0.107604
      2          1           0        2.567702    1.307200   -0.100133
      3          6           0        2.498350   -0.776358    0.262899
      4          1           0        3.256690   -1.509083    0.495405
      5          6           0        1.225549   -0.767849    0.089378
      6          6           0       -0.006562   -0.047110   -0.205267
      7          8           0       -0.042632    1.137280   -0.420488
      8          8           0       -1.054495   -0.864983   -0.207662
      9          6           0       -2.339373   -0.261437   -0.473438
     10          6           0       -2.888163    0.415283    0.766743
     11          1           0       -2.962177   -1.096937   -0.787233
     12          1           0       -2.228903    0.442009   -1.299415
     13          1           0       -3.890268    0.795964    0.560556
     14          1           0       -2.951810   -0.295500    1.591887
     15          1           0       -2.256390    1.253365    1.061416
 ---------------------------------------------------------------------

 SCF Done:  E(UHF) =  -418.001938589     A.U. after   28 cycles
 E2 =    -0.1263250150D+01 EUMP2 =    -0.41926518873853D+03
 CCSD(T)= -0.41938293335D+03

 The electronic state is 2-A.
 Alpha  occ. eigenvalues --  -20.62316 -20.59166 -20.57569 -11.41979 -11.31794
 Alpha  occ. eigenvalues --  -11.30534 -11.28961 -11.23271  -1.49415  -1.39710
 Alpha  occ. eigenvalues --   -1.34289  -1.10796  -1.04911  -0.93014  -0.85139
 Alpha  occ. eigenvalues --   -0.77832  -0.73197  -0.71371  -0.67853  -0.64363
 Alpha  occ. eigenvalues --   -0.63022  -0.61172  -0.59512  -0.56635  -0.54886
 Alpha  occ. eigenvalues --   -0.52579  -0.51783  -0.50508  -0.48448  -0.43498
 Alpha  occ. eigenvalues --   -0.42563
 Alpha virt. eigenvalues --    0.03817   0.04795   0.05516   0.06241   0.07158
 Alpha virt. eigenvalues --    0.08429   0.08824   0.09344   0.10961   0.12111
 Alpha virt. eigenvalues --    0.12651   0.13762   0.14405   0.14892   0.16545

  Beta  occ. eigenvalues --  -20.62299 -20.57523 -20.56849 -11.42416 -11.33890
  Beta  occ. eigenvalues --  -11.30533 -11.25537 -11.23269  -1.49005  -1.38495
  Beta  occ. eigenvalues --   -1.29346  -1.06836  -1.04192  -0.93451  -0.84492
  Beta  occ. eigenvalues --   -0.77494  -0.72717  -0.70212  -0.67113  -0.63780
  Beta  occ. eigenvalues --   -0.61434  -0.58952  -0.55530  -0.54754  -0.53070
  Beta  occ. eigenvalues --   -0.51596  -0.51157  -0.47948  -0.46768  -0.41161
  Beta virt. eigenvalues --    0.03810   0.04670   0.05190   0.05522   0.06657
  Beta virt. eigenvalues --    0.07224   0.07971   0.08858   0.09605   0.11653
  Beta virt. eigenvalues --    0.12648   0.12846   0.13690   0.14257   0.14793

 Mulliken charges and spin densities:
               1          2
     1  O   -0.320679   0.394750
     2  H    0.267911  -0.016850
     3  C   -1.138229  -0.963107
     4  H    0.217525   0.084172
     5  C    1.400260   1.548086
     6  C   -0.310716  -0.181769
     7  O   -0.329541   0.132419
     8  O   -0.067976   0.004032
     9  C   -0.158995  -0.006781
    10  C   -0.365345   0.004020
    11  H    0.168734   0.000564
    12  H    0.183735   0.000378
    13  H    0.133017   0.000242
    14  H    0.147334  -0.000008
    15  H    0.172965  -0.000148
 Sum of Mulliken charges =  -0.00000   1.00000

 Dipole moment (field-independent basis, Debye):
    X=             -2.9066    Y=             -1.8297    Z=              0.1424  Tot=              3.4375
 Quadrupole moment (field-independent basis, Debye-Ang):
   XX=            -47.2479   YY=            -48.8795   ZZ=            -47.5762
   XY=             -5.4550   XZ=              1.2202   YZ=             -0.1072

 8\PMP3-0=-419.3090714\MP4SDQ=-419.3215354\CCSD=-419.327992\CCSD(T)=-41
 Normal termination of Gaussian 16 at Sun Aug 24 11:09:37 2025.
