 Gaussian 16, Revision A.03,
 Gaussian 16:  ES64L-G16RevA.03 25-Dec-2016

 -------------------
 # freq 6-31+g m062x
 -------------------

 -------------------
 Title Card Required
 -------------------
 Symbolic Z-matrix:
 Charge =  0 Multiplicity = 2

                         Standard orientation:
 ---------------------------------------------------------------------
 Center     Atomic      Atomic             Coordinates (Angstroms)
 Number     Number       Type             X           Y           Z
 ---------------------------------------------------------------------
      1          8           0        3.338796    0.778016    0.107551
      2          1           0        2.585520    1.359427   -0.090815
      3          6           0        2.417424   -0.964514    0.270984
      4          1           0        3.317872   -1.499549    0.479872
      5          6           0        1.231541   -0.746758    0.075995
      6          6           0       -0.011351   -0.045491   -0.206268
      7          8           0       -0.038989    1.141062   -0.404897
      8          8           0       -1.059042   -0.858425   -0.219499
      9          6           0       -2.341192   -0.244156   -0.477576
     10          6           0       -2.886904    0.418390    0.771510
     11          1           0       -2.967614   -1.072422   -0.802796
     12          1           0       -2.226206    0.469627   -1.293880
     13          1           0       -3.886978    0.806687    0.569852
     14          1           0       -2.954552   -0.303155    1.586893
     15          1           0       -2.251261    1.249336    1.077764
 ---------------------------------------------------------------------

 SCF Done:  E(UM062X) =  -419.958393281     A.U. after   23 cycles

 The electronic state is 2-A.
 Alpha  occ. eigenvalues --  -19.72063 -19.67879 -19.67377 -10.74402 -10.62621
 Alpha  occ. eigenvalues --  -10.62093 -10.60452 -10.55472  -1.29509  -1.20169
 Alpha  occ. eigenvalues --   -1.11912  -0.92845  -0.89280  -0.79832  -0.72685
 Alpha  occ. eigenvalues --   -0.66004  -0.62654  -0.59921  -0.58297  -0.55109
 Alpha  occ. eigenvalues --   -0.52356  -0.50756  -0.49262  -0.48029  -0.46299
 Alpha  occ. eigenvalues --   -0.43173  -0.41644  -0.40559  -0.39602  -0.37230
 Alpha  occ. eigenvalues --   -0.33407
 Alpha virt. eigenvalues --   -0.02893   0.01526   0.02863   0.03076   0.03456
 Alpha virt. eigenvalues --    0.04408   0.05362   0.06257   0.07010   0.07761
 Alpha virt. eigenvalues --    0.08148   0.08608   0.09133   0.10481   0.11755

  Beta  occ. eigenvalues --  -19.72047 -19.67816 -19.66007 -10.74434 -10.62618
  Beta  occ. eigenvalues --  -10.62198 -10.60119 -10.55472  -1.29427  -1.20032
  Beta  occ. eigenvalues --   -1.06679  -0.92054  -0.88850  -0.79692  -0.72406
  Beta  occ. eigenvalues --   -0.65933  -0.62297  -0.59759  -0.58103  -0.54999
  Beta  occ. eigenvalues --   -0.50607  -0.49859  -0.47965  -0.46342  -0.43097
  Beta  occ. eigenvalues --   -0.41328  -0.40217  -0.39582  -0.38327  -0.35128
  Beta virt. eigenvalues --   -0.09658  -0.02900   0.01486   0.02847   0.03082
  Beta virt. eigenvalues --    0.03901   0.04517   0.05980   0.06335   0.07310
  Beta virt. eigenvalues --    0.07743   0.08218   0.08756   0.09468   0.10534

 Mulliken charges and spin densities:
               1          2
     1  O   -0.497933   0.741159
     2  H    0.411546  -0.026172
     3  C   -0.258692  -0.222778
     4  H    0.297351   0.021413
     5  C   -0.042868   0.474474
     6  C    0.369411  -0.008608
     7  O   -0.405996   0.014890
     8  O   -0.216978   0.004723
     9  C   -0.222745  -0.000489
    10  C   -0.563046   0.001287
    11  H    0.224479   0.000040
    12  H    0.236757  -0.000013
    13  H    0.211209   0.000090
    14  H    0.222333   0.000011
    15  H    0.235172  -0.000026
 Sum of Mulliken charges =  -0.00000   1.00000

 Dipole moment (field-independent basis, Debye):
    X=             -3.2559    Y=             -1.3841    Z=              0.0385  Tot=              3.5380
 Quadrupole moment (field-independent basis, Debye-Ang):
   XX=            -46.7836   YY=            -49.3732   ZZ=            -47.9345
   XY=             -5.4881   XZ=              1.1316   YZ=             -0.1513

  Exact polarizability: 103.483   8.022  69.247   3.441  -2.763  46.546
 Approx polarizability: 104.913   5.691  82.403   6.475  -5.346  49.004

 ******    4 imaginary frequencies (negative Signs) ******

                      1                      2                      3
                      A                      A                      A
 Frequencies --   -666.0508              -382.5286               -92.8760
 Red. masses --     11.6565                 1.0820                 5.8624
 Frc consts  --      3.0467                 0.0933                 0.0298
 IR Inten    --     77.3731               148.5768                 1.0946

                      4                      5                      6
                      A                      A                      A
 Frequencies --    -60.1644                30.6611                60.5834
 Red. masses --      7.1088                 2.7857                 3.8792
 Frc consts  --      0.0152                 0.0015                 0.0084
 IR Inten    --      1.3327                 0.3136                11.6310

                      7                      8                      9
                      A                      A                      A
 Frequencies --    175.2998               219.4407               239.7101
 Red. masses --      1.3992                 3.5140                 3.8528
 Frc consts  --      0.0253                 0.0997                 0.1304
 IR Inten    --      5.2510                 6.4805                 3.2385

                     10                     11                     12
                      A                      A                      A
 Frequencies --    313.5619               419.6788               557.7687
 Red. masses --      3.0716                 3.9248                 4.4017
 Frc consts  --      0.1779                 0.4073                 0.8068
 IR Inten    --     19.8692                 2.6768                12.6331

                     13                     14                     15
                      A                      A                      A
 Frequencies --    623.8492               713.1727               757.5636
 Red. masses --      8.1695                 1.1320                 8.0182
 Frc consts  --      1.8733                 0.3392                 2.7112
 IR Inten    --      6.7786               226.5287                45.5843

                     16                     17                     18
                      A                      A                      A
 Frequencies --    799.9534               816.5536               855.2931
 Red. masses --      1.3854                 1.2581                 1.0749
 Frc consts  --      0.5223                 0.4942                 0.4633
 IR Inten    --     30.1670                 8.8233                19.1515

                     19                     20                     21
                      A                      A                      A
 Frequencies --    898.1156               947.3254              1110.1650
 Red. masses --      3.2452                 2.6401                 4.2277
 Frc consts  --      1.5423                 1.3959                 3.0699
 IR Inten    --     14.9024                 4.5026                 9.8554

                     22                     23                     24
                      A                      A                      A
 Frequencies --   1156.9422              1228.8651              1335.5147
 Red. masses --      2.0557                 1.7524                 1.5651
 Frc consts  --      1.6212                 1.5591                 1.6448
 IR Inten    --     21.3632                 2.3549               274.5813

                     25                     26                     27
                      A                      A                      A
 Frequencies --   1379.6927              1445.8143              1457.8549
 Red. masses --      2.0900                 1.4320                 1.2743
 Frc consts  --      2.3441                 1.7637                 1.5956
 IR Inten    --    465.1010                77.9741                17.2095

                     28                     29                     30
                      A                      A                      A
 Frequencies --   1528.6265              1537.8316              1545.7822
 Red. masses --      1.0422                 1.0708                 1.0753
 Frc consts  --      1.4348                 1.4920                 1.5138
 IR Inten    --     13.8709                 6.0460                25.1665

                     31                     32                     33
                      A                      A                      A
 Frequencies --   1880.0103              2149.7046              3108.5892
 Red. masses --     12.0205                 6.3540                 1.0351
 Frc consts  --     25.0318                17.3003                 5.8935
 IR Inten    --    201.7631               111.1860                12.0029

                     34                     35                     36
                      A                      A                      A
 Frequencies --   3140.1139              3189.0317              3192.5449
 Red. masses --      1.0602                 1.1002                 1.1027
 Frc consts  --      6.1592                 6.5924                 6.6218
 IR Inten    --     18.6021                13.6648                 4.4872

                     37                     38                     39
                      A                      A                      A
 Frequencies --   3213.6745              3483.0190              3791.8685
 Red. masses --      1.1055                 1.1482                 1.0679
 Frc consts  --      6.7271                 8.2067                 9.0462
 IR Inten    --     16.7260                61.4782                17.3118

 - Thermochemistry -
 -------------------
 Temperature   298.150 Kelvin.  Pressure   1.00000 Atm.
 Atom     1 has atomic number  8 and mass  15.99491

 Molecular mass:   115.03952 amu.
 Principal axes and moments of inertia in atomic units:
                           1         2         3
     Eigenvalues --   329.483691900.378542076.42187
           X            0.99993  -0.00990  -0.00585
           Y            0.00999   0.99983   0.01556
           Z            0.00570  -0.01562   0.99986
 This molecule is an asymmetric top.
 Rotational symmetry number  1.
 Rotational temperatures (Kelvin)      0.26288     0.04558     0.04171
 Rotational constants (GHZ):           5.47748     0.94967     0.86916
    4 imaginary frequencies ignored.
 Zero-point vibrational energy     294904.5 (Joules/Mol)
                                   70.48386 (Kcal/Mol)
 Warning -- explicit consideration of   8 degrees of freedom as
           vibrations may cause significant error
 Vibrational temperatures:     44.11    87.17   252.22   315.73   344.89
          (Kelvin)            451.15   603.82   802.50   897.58  1026.10
                             1089.97  1150.95  1174.84  1230.58  1292.19
                             1362.99  1597.28  1664.58  1768.06  1921.51
                             1985.07  2080.20  2097.53  2199.35  2212.60
                             2224.04  2704.92  3092.95  4472.57  4517.92
                             4588.31  4593.36  4623.76  5011.29  5455.65

 Zero-point correction=                           0.112323 (Hartree/Particle)
 Thermal correction to Energy=                    0.120120
 Thermal correction to Enthalpy=                  0.121065
 Thermal correction to Gibbs Free Energy=         0.077673
 Sum of electronic and zero-point Energies=           -419.846070
 Sum of electronic and thermal Energies=              -419.838273
 Sum of electronic and thermal Enthalpies=            -419.837329
 Sum of electronic and thermal Free Energies=         -419.880720

                     E (Thermal)             CV                S
                      KCal/Mol        Cal/Mol-Kelvin    Cal/Mol-Kelvin
 Total                   75.377             26.207             91.325
 Electronic               0.000              0.000              1.377
 Translational            0.889              2.981             40.136
 Rotational               0.889              2.981             28.654
 Vibrational             73.599             20.246             21.157
 Vibration     1          0.594              1.984              5.786
 Vibration     2          0.597              1.973              4.438
 Vibration     3          0.627              1.873              2.378
 Vibration     4          0.647              1.811              1.964
 Vibration     5          0.657              1.780              1.805
 Vibration     6          0.701              1.648              1.343
 Vibration     7          0.782              1.427              0.893
 Vibration     8          0.913              1.123              0.528

 Normal termination of Gaussian 16 at Fri Jun 20 13:11:28 2025.
