 Gaussian 16, Revision A.03,
 Gaussian 16:  ES64L-G16RevA.03 25-Dec-2016

 --------------------------
 # ccsd(t)/6-311++g(d,p) sp
 --------------------------

 -------------------
 Title Card Required
 -------------------
 Symbolic Z-matrix:
 Charge =  0 Multiplicity = 2

                         Standard orientation:
 ---------------------------------------------------------------------
 Center     Atomic      Atomic             Coordinates (Angstroms)
 Number     Number       Type             X           Y           Z
 ---------------------------------------------------------------------
      1          8           0        3.391818    0.859003    0.109792
      2          1           0        2.597153    1.389515   -0.078993
      3          6           0        2.348873   -1.129000    0.273539
      4          1           0        3.312484   -1.539885    0.464398
      5          6           0        1.226226   -0.751769    0.066455
      6          6           0       -0.011255   -0.041801   -0.206960
      7          8           0       -0.034024    1.147862   -0.390798
      8          8           0       -1.064029   -0.848635   -0.231005
      9          6           0       -2.342073   -0.224464   -0.481565
     10          6           0       -2.884980    0.424904    0.775738
     11          1           0       -2.973109   -1.044900   -0.817712
     12          1           0       -2.223215    0.499467   -1.288368
     13          1           0       -3.882775    0.821518    0.578923
     14          1           0       -2.956859   -0.306807    1.581661
     15          1           0       -2.244554    1.248037    1.092928
 ---------------------------------------------------------------------

 SCF Done:  E(UHF) =  -417.993175897     A.U. after   37 cycles
 E2 =    -0.1258097802D+01 EUMP2 =    -0.41925127369850D+03
 CCSD(T)= -0.41935791011D+03

 The electronic state is 2-A.
 Alpha  occ. eigenvalues --  -20.62301 -20.61775 -20.57182 -11.42344 -11.30434
 Alpha  occ. eigenvalues --  -11.26755 -11.26158 -11.23177  -1.49293  -1.39310
 Alpha  occ. eigenvalues --   -1.37308  -1.08903  -1.04627  -0.92908  -0.84481
 Alpha  occ. eigenvalues --   -0.77387  -0.73417  -0.70765  -0.67454  -0.66325
 Alpha  occ. eigenvalues --   -0.64661  -0.63954  -0.59298  -0.56113  -0.54838
 Alpha  occ. eigenvalues --   -0.54526  -0.51412  -0.49743  -0.47894  -0.42973
 Alpha  occ. eigenvalues --   -0.41976
 Alpha virt. eigenvalues --    0.03886   0.04691   0.05628   0.06305   0.07177
 Alpha virt. eigenvalues --    0.08551   0.08684   0.09364   0.11070   0.12246
 Alpha virt. eigenvalues --    0.12708   0.13583   0.14478   0.14959   0.16492

  Beta  occ. eigenvalues --  -20.62288 -20.57718 -20.56901 -11.42558 -11.30431
  Beta  occ. eigenvalues --  -11.27793 -11.24927 -11.23177  -1.49139  -1.38829
  Beta  occ. eigenvalues --   -1.22084  -1.07773  -1.04648  -0.93275  -0.84470
  Beta  occ. eigenvalues --   -0.77325  -0.73316  -0.70412  -0.67202  -0.63937
  Beta  occ. eigenvalues --   -0.62012  -0.59031  -0.55552  -0.54760  -0.51271
  Beta  occ. eigenvalues --   -0.49870  -0.49022  -0.47219  -0.43286  -0.42687
  Beta virt. eigenvalues --    0.03887   0.04665   0.05631   0.06042   0.06967
  Beta virt. eigenvalues --    0.07807   0.08474   0.09100   0.10357   0.12047
  Beta virt. eigenvalues --    0.12595   0.13087   0.13641   0.14520   0.14862

 Mulliken charges and spin densities:
               1          2
     1  O   -0.243618   0.977747
     2  H    0.267903  -0.035264
     3  C   -2.773204  -0.454243
     4  H    0.189866   0.046946
     5  C    2.865017   0.549271
     6  C   -0.233053  -0.139249
     7  O   -0.331402   0.052084
     8  O   -0.039357   0.001637
     9  C   -0.155443  -0.000916
    10  C   -0.355601   0.001740
    11  H    0.172370   0.000172
    12  H    0.181317   0.000013
    13  H    0.137058   0.000125
    14  H    0.145836  -0.000088
    15  H    0.172312   0.000026
 Sum of Mulliken charges =  -0.00000   1.00000

 Dipole moment (field-independent basis, Debye):
    X=             -2.2476    Y=             -0.9847    Z=              0.0588  Tot=              2.4546
 Quadrupole moment (field-independent basis, Debye-Ang):
   XX=            -42.5633   YY=            -48.8793   ZZ=            -47.7497
   XY=             -3.6244   XZ=              1.3041   YZ=             -0.1009

 \PMP3-0=-419.2851162\MP4SDQ=-419.3039606\CCSD=-419.3053304\CCSD(T)=-41
 Normal termination of Gaussian 16 at Mon Aug 25 00:51:03 2025.
