 Gaussian 16, Revision A.03,
 Gaussian 16:  ES64L-G16RevA.03 25-Dec-2016

 --------------------------
 # ccsd(t)/6-311++g(d,p) sp
 --------------------------

 -------------------
 Title Card Required
 -------------------
 Symbolic Z-matrix:
 Charge =  0 Multiplicity = 2

                         Standard orientation:
 ---------------------------------------------------------------------
 Center     Atomic      Atomic             Coordinates (Angstroms)
 Number     Number       Type             X           Y           Z
 ---------------------------------------------------------------------
      1          8           0        3.398778    0.870018    0.110199
      2          1           0        2.598457    1.392580   -0.077481
      3          6           0        2.340846   -1.148377    0.273427
      4          1           0        3.305973   -1.556159    0.463257
      5          6           0        1.224828   -0.754376    0.065410
      6          6           0       -0.011120   -0.041241   -0.207043
      7          8           0       -0.032877    1.148767   -0.388899
      8          8           0       -1.064712   -0.847047   -0.232561
      9          6           0       -2.342228   -0.221583   -0.482129
     10          6           0       -2.884707    0.425974    0.776284
     11          1           0       -2.973819   -1.041004   -0.819719
     12          1           0       -2.222844    0.503664   -1.287676
     13          1           0       -3.882202    0.823682    0.580160
     14          1           0       -2.957126   -0.307099    1.580922
     15          1           0       -2.243662    1.248064    1.094927
 ---------------------------------------------------------------------

 SCF Done:  E(UHF) =  -417.994351944     A.U. after   36 cycles
 E2 =    -0.1258587543D+01 EUMP2 =    -0.41925293948679D+03
 CCSD(T)= -0.41935851051D+03

 The electronic state is 2-A.
 Alpha  occ. eigenvalues --  -20.62313 -20.61805 -20.57193 -11.42382 -11.30441
 Alpha  occ. eigenvalues --  -11.26775 -11.26154 -11.23183  -1.49302  -1.39306
 Alpha  occ. eigenvalues --   -1.37302  -1.08865  -1.04628  -0.92940  -0.84494
 Alpha  occ. eigenvalues --   -0.77385  -0.73385  -0.70763  -0.67455  -0.66380
 Alpha  occ. eigenvalues --   -0.64676  -0.63970  -0.59295  -0.56099  -0.54843
 Alpha  occ. eigenvalues --   -0.54526  -0.51411  -0.49717  -0.47879  -0.42967
 Alpha  occ. eigenvalues --   -0.42025
 Alpha virt. eigenvalues --    0.03884   0.04687   0.05626   0.06303   0.07178
 Alpha virt. eigenvalues --    0.08553   0.08644   0.09363   0.11073   0.12232
 Alpha virt. eigenvalues --    0.12699   0.13565   0.14470   0.14949   0.16456

  Beta  occ. eigenvalues --  -20.62301 -20.57734 -20.56935 -11.42579 -11.30438
  Beta  occ. eigenvalues --  -11.27726 -11.25022 -11.23182  -1.49160  -1.38864
  Beta  occ. eigenvalues --   -1.21969  -1.07822  -1.04645  -0.93280  -0.84486
  Beta  occ. eigenvalues --   -0.77330  -0.73308  -0.70439  -0.67223  -0.63960
  Beta  occ. eigenvalues --   -0.62014  -0.59050  -0.55580  -0.54772  -0.51282
  Beta  occ. eigenvalues --   -0.49802  -0.49062  -0.47256  -0.43234  -0.42709
  Beta virt. eigenvalues --    0.03885   0.04665   0.05629   0.06057   0.06968
  Beta virt. eigenvalues --    0.07835   0.08448   0.09097   0.10398   0.12053
  Beta virt. eigenvalues --    0.12534   0.13076   0.13631   0.14522   0.14895

 Mulliken charges and spin densities:
               1          2
     1  O   -0.244641   0.983423
     2  H    0.266821  -0.035428
     3  C   -2.831431  -0.413260
     4  H    0.188930   0.043302
     5  C    2.922351   0.502829
     6  C   -0.232266  -0.131367
     7  O   -0.330279   0.047924
     8  O   -0.037888   0.001520
     9  C   -0.155239  -0.000772
    10  C   -0.355446   0.001604
    11  H    0.172509   0.000152
    12  H    0.181179   0.000014
    13  H    0.137290   0.000113
    14  H    0.145791  -0.000084
    15  H    0.172319   0.000030
 Sum of Mulliken charges =  -0.00000   1.00000

 Dipole moment (field-independent basis, Debye):
    X=             -2.2615    Y=             -0.9903    Z=              0.0562  Tot=              2.4695
 Quadrupole moment (field-independent basis, Debye-Ang):
   XX=            -42.6322   YY=            -48.8544   ZZ=            -47.7561
   XY=             -3.6923   XZ=              1.3007   YZ=             -0.1156

 \PMP3-0=-419.2858658\MP4SDQ=-419.3051755\CCSD=-419.3060486\CCSD(T)=-41
 Normal termination of Gaussian 16 at Fri Jul 18 17:27:03 2025.
