 Gaussian 16, Revision A.03,
 Gaussian 16:  ES64L-G16RevA.03 25-Dec-2016

 --------------------------
 # ccsd(t)/6-311++g(d,p) sp
 --------------------------

 -------------------
 Title Card Required
 -------------------
 Symbolic Z-matrix:
 Charge =  0 Multiplicity = 2

                         Standard orientation:
 ---------------------------------------------------------------------
 Center     Atomic      Atomic             Coordinates (Angstroms)
 Number     Number       Type             X           Y           Z
 ---------------------------------------------------------------------
      1          8           0        3.321678    0.750685    0.107276
      2          1           0        2.578072    1.341371   -0.093837
      3          6           0        2.445759   -0.901434    0.268756
      4          1           0        3.300893   -1.510075    0.486228
      5          6           0        1.229244   -0.751614    0.079796
      6          6           0       -0.010747   -0.045914   -0.206083
      7          8           0       -0.040353    1.139544   -0.409833
      8          8           0       -1.057311   -0.860941   -0.215632
      9          6           0       -2.340759   -0.250273   -0.476200
     10          6           0       -2.887371    0.416657    0.770110
     11          1           0       -2.965613   -1.081132   -0.797752
     12          1           0       -2.227162    0.460109   -1.295664
     13          1           0       -3.888185    0.802221    0.566954
     14          1           0       -2.953590   -0.301469    1.588625
     15          1           0       -2.253285    1.250146    1.072686
 ---------------------------------------------------------------------

 SCF Done:  E(UHF) =  -417.983220871     A.U. after   31 cycles
 E2 =    -0.1250483406D+01 EUMP2 =    -0.41923370427769D+03
 CCSD(T)= -0.41935924803D+03

 The electronic state is 2-A.
 Alpha  occ. eigenvalues --  -20.62315 -20.60571 -20.57373 -11.42060 -11.30503
 Alpha  occ. eigenvalues --  -11.28317 -11.27570 -11.23237  -1.49417  -1.39635
 Alpha  occ. eigenvalues --   -1.36040  -1.10033  -1.04795  -0.92772  -0.84625
 Alpha  occ. eigenvalues --   -0.77612  -0.73221  -0.71128  -0.67719  -0.64553
 Alpha  occ. eigenvalues --   -0.63831  -0.63029  -0.59539  -0.56492  -0.54891
 Alpha  occ. eigenvalues --   -0.53539  -0.51723  -0.50397  -0.48308  -0.43513
 Alpha  occ. eigenvalues --   -0.42329
 Alpha virt. eigenvalues --    0.03854   0.04791   0.05566   0.06267   0.07157
 Alpha virt. eigenvalues --    0.08462   0.08968   0.09382   0.11004   0.12248
 Alpha virt. eigenvalues --    0.12684   0.13709   0.14491   0.15007   0.16652

  Beta  occ. eigenvalues --  -20.62295 -20.57295 -20.56764 -11.42482 -11.30625
  Beta  occ. eigenvalues --  -11.30500 -11.24782 -11.23235  -1.49083  -1.38601
  Beta  occ. eigenvalues --   -1.24837  -1.07197  -1.04681  -0.93417  -0.84433
  Beta  occ. eigenvalues --   -0.77411  -0.72961  -0.70259  -0.67140  -0.63781
  Beta  occ. eigenvalues --   -0.61605  -0.58964  -0.55413  -0.54740  -0.51400
  Beta  occ. eigenvalues --   -0.51031  -0.48751  -0.46896  -0.45727  -0.42248
  Beta virt. eigenvalues --    0.03856   0.04756   0.05459   0.05582   0.06793
  Beta virt. eigenvalues --    0.07329   0.08355   0.08991   0.09760   0.11818
  Beta virt. eigenvalues --    0.12826   0.12977   0.13699   0.14351   0.14671

 Mulliken charges and spin densities:
               1          2
     1  O   -0.250603   0.781754
     2  H    0.269365  -0.030074
     3  C   -1.660457  -1.049868
     4  H    0.211334   0.086721
     5  C    1.908151   1.297638
     6  C   -0.373632  -0.202089
     7  O   -0.330763   0.112181
     8  O   -0.060123   0.003500
     9  C   -0.159424  -0.004076
    10  C   -0.361016   0.003574
    11  H    0.170191   0.000488
    12  H    0.183135   0.000143
    13  H    0.134268   0.000248
    14  H    0.146858  -0.000080
    15  H    0.172717  -0.000060
 Sum of Mulliken charges =  -0.00000   1.00000

 Dipole moment (field-independent basis, Debye):
    X=             -2.5920    Y=             -1.4078    Z=              0.0997  Tot=              2.9513
 Quadrupole moment (field-independent basis, Debye-Ang):
   XX=            -44.7358   YY=            -48.7857   ZZ=            -47.6330
   XY=             -4.3670   XZ=              1.2610   YZ=             -0.0879

 \PMP3-0=-419.2872198\MP4SDQ=-419.2938619\CCSD=-419.3041757\CCSD(T)=-41
 Normal termination of Gaussian 16 at Sun Aug 24 15:54:54 2025.
