 Gaussian 16, Revision A.03,
 Gaussian 16:  ES64L-G16RevA.03 25-Dec-2016

 --------------------------
 # ccsd(t)/6-311++g(d,p) sp
 --------------------------

 -------------------
 Title Card Required
 -------------------
 Symbolic Z-matrix:
 Charge =  0 Multiplicity = 2

                         Standard orientation:
 ---------------------------------------------------------------------
 Center     Atomic      Atomic             Coordinates (Angstroms)
 Number     Number       Type             X           Y           Z
 ---------------------------------------------------------------------
      1          8           0        3.364209    0.816750    0.108394
      2          1           0        2.592488    1.377188   -0.085309
      3          6           0        2.381807   -1.048263    0.273018
      4          1           0        3.325933   -1.500998    0.471083
      5          6           0        1.230547   -0.745849    0.071106
      6          6           0       -0.011390   -0.044104   -0.206554
      7          8           0       -0.036999    1.144080   -0.398117
      8          8           0       -1.061513   -0.854159   -0.224997
      9          6           0       -2.341591   -0.234966   -0.479488
     10          6           0       -2.886049    0.421343    0.773520
     11          1           0       -2.970390   -1.059379   -0.809992
     12          1           0       -2.224712    0.483760   -1.291198
     13          1           0       -3.885019    0.813682    0.574134
     14          1           0       -2.955771   -0.305090    1.584389
     15          1           0       -2.248043    1.248506    1.085042
 ---------------------------------------------------------------------

 SCF Done:  E(UHF) =  -417.987843717     A.U. after   35 cycles
 E2 =    -0.1255170403D+01 EUMP2 =    -0.41924301412031D+03
 CCSD(T)= -0.41935553349D+03

 The electronic state is 2-A.
 Alpha  occ. eigenvalues --  -20.62261 -20.61569 -20.57165 -11.42198 -11.30420
 Alpha  occ. eigenvalues --  -11.26796 -11.26290 -11.23166  -1.49275  -1.39355
 Alpha  occ. eigenvalues --   -1.37219  -1.09141  -1.04643  -0.92785  -0.84435
 Alpha  occ. eigenvalues --   -0.77415  -0.73489  -0.70807  -0.67475  -0.65921
 Alpha  occ. eigenvalues --   -0.64511  -0.63865  -0.59329  -0.56193  -0.54823
 Alpha  occ. eigenvalues --   -0.54434  -0.51448  -0.49896  -0.47979  -0.43054
 Alpha  occ. eigenvalues --   -0.41866
 Alpha virt. eigenvalues --    0.03891   0.04717   0.05627   0.06304   0.07169
 Alpha virt. eigenvalues --    0.08521   0.08860   0.09371   0.11058   0.12286
 Alpha virt. eigenvalues --    0.12730   0.13653   0.14507   0.14997   0.16631

  Beta  occ. eigenvalues --  -20.62245 -20.57623 -20.56778 -11.42486 -11.30416
  Beta  occ. eigenvalues --  -11.28250 -11.24586 -11.23165  -1.49065  -1.38695
  Beta  occ. eigenvalues --   -1.22692  -1.07567  -1.04676  -0.93267  -0.84403
  Beta  occ. eigenvalues --   -0.77316  -0.73301  -0.70306  -0.67126  -0.63846
  Beta  occ. eigenvalues --   -0.61957  -0.58964  -0.55450  -0.54719  -0.51241
  Beta  occ. eigenvalues --   -0.50192  -0.48851  -0.47065  -0.43672  -0.42603
  Beta virt. eigenvalues --    0.03891   0.04670   0.05630   0.05942   0.06947
  Beta virt. eigenvalues --    0.07654   0.08560   0.09102   0.10151   0.11996
  Beta virt. eigenvalues --    0.12783   0.13125   0.13675   0.14487   0.14737

 Mulliken charges and spin densities:
               1          2
     1  O   -0.238253   0.943986
     2  H    0.271162  -0.034526
     3  C   -2.427542  -0.654046
     4  H    0.197199   0.063555
     5  C    2.564048   0.776559
     6  C   -0.278977  -0.170084
     7  O   -0.334653   0.071219
     8  O   -0.047315   0.002264
     9  C   -0.156830  -0.001680
    10  C   -0.356807   0.002381
    11  H    0.171644   0.000276
    12  H    0.181911   0.000016
    13  H    0.135961   0.000177
    14  H    0.146118  -0.000103
    15  H    0.172333   0.000007
 Sum of Mulliken charges =  -0.00000   1.00000

 Dipole moment (field-independent basis, Debye):
    X=             -2.2435    Y=             -1.0184    Z=              0.0705  Tot=              2.4648
 Quadrupole moment (field-independent basis, Debye-Ang):
   XX=            -42.5970   YY=            -48.8943   ZZ=            -47.7141
   XY=             -3.5262   XZ=              1.3083   YZ=             -0.0662

 MP3-0=-419.2823024\MP4SDQ=-419.2981857\CCSD=-419.3022919\CCSD(T)=-419.
 Normal termination of Gaussian 16 at Sun Aug 24 21:27:27 2025.
