 Gaussian 16, Revision A.03,
 Gaussian 16:  ES64L-G16RevA.03 25-Dec-2016

 --------------------------
 # freq 6-311++g(d,p) m062x
 --------------------------

 -------------------
 Title Card Required
 -------------------
 Symbolic Z-matrix:
 Charge =  0 Multiplicity = 2

                         Standard orientation:
 ---------------------------------------------------------------------
 Center     Atomic      Atomic             Coordinates (Angstroms)
 Number     Number       Type             X           Y           Z
 ---------------------------------------------------------------------
      1          8           0        3.398778    0.870018    0.110199
      2          1           0        2.598457    1.392580   -0.077481
      3          6           0        2.340846   -1.148377    0.273427
      4          1           0        3.305973   -1.556159    0.463257
      5          6           0        1.224828   -0.754376    0.065410
      6          6           0       -0.011120   -0.041241   -0.207043
      7          8           0       -0.032877    1.148767   -0.388899
      8          8           0       -1.064712   -0.847047   -0.232561
      9          6           0       -2.342228   -0.221583   -0.482129
     10          6           0       -2.884707    0.425974    0.776284
     11          1           0       -2.973819   -1.041004   -0.819719
     12          1           0       -2.222844    0.503664   -1.287676
     13          1           0       -3.882202    0.823682    0.580160
     14          1           0       -2.957126   -0.307099    1.580922
     15          1           0       -2.243662    1.248064    1.094927
 ---------------------------------------------------------------------

 SCF Done:  E(UM062X) =  -420.210000129     A.U. after   24 cycles

 The electronic state is 2-A.
 Alpha  occ. eigenvalues --  -19.69369 -19.66387 -19.64300 -10.71691 -10.61386
 Alpha  occ. eigenvalues --  -10.58258 -10.57362 -10.54457  -1.26760  -1.17441
 Alpha  occ. eigenvalues --   -1.12079  -0.91302  -0.87905  -0.78881  -0.71445
 Alpha  occ. eigenvalues --   -0.65441  -0.61881  -0.59558  -0.57471  -0.54414
 Alpha  occ. eigenvalues --   -0.54043  -0.50210  -0.49305  -0.47553  -0.46073
 Alpha  occ. eigenvalues --   -0.42862  -0.41977  -0.40266  -0.39485  -0.37566
 Alpha  occ. eigenvalues --   -0.35330
 Alpha virt. eigenvalues --   -0.02281  -0.00427   0.00851   0.01469   0.01917
 Alpha virt. eigenvalues --    0.02686   0.03980   0.04983   0.05331   0.05900
 Alpha virt. eigenvalues --    0.06631   0.07370   0.08102   0.08899   0.10228

  Beta  occ. eigenvalues --  -19.69363 -19.64825 -19.64287 -10.71701 -10.61385
  Beta  occ. eigenvalues --  -10.58262 -10.57256 -10.54457  -1.26738  -1.17400
  Beta  occ. eigenvalues --   -1.04499  -0.91048  -0.87659  -0.78823  -0.71355
  Beta  occ. eigenvalues --   -0.65407  -0.61649  -0.59500  -0.57418  -0.54349
  Beta  occ. eigenvalues --   -0.51019  -0.50160  -0.47519  -0.46111  -0.42845
  Beta  occ. eigenvalues --   -0.40690  -0.39606  -0.39234  -0.37253  -0.36520
  Beta virt. eigenvalues --   -0.07931  -0.02243  -0.00393   0.01007   0.01471
  Beta virt. eigenvalues --    0.02065   0.02823   0.04236   0.05191   0.05739
  Beta virt. eigenvalues --    0.06078   0.06727   0.07386   0.08256   0.09089

 Mulliken charges and spin densities:
               1          2
     1  O   -0.273599   0.925497
     2  H    0.253790  -0.018072
     3  C   -2.413147   0.013475
     4  H    0.184487   0.010332
     5  C    2.361666   0.089377
     6  C   -0.157039  -0.026908
     7  O   -0.254926   0.003283
     8  O    0.041685   0.002142
     9  C   -0.260291   0.000167
    10  C   -0.402053   0.000634
    11  H    0.201133  -0.000007
    12  H    0.197838   0.000162
    13  H    0.168657  -0.000008
    14  H    0.167701  -0.000037
    15  H    0.184099  -0.000036
 Sum of Mulliken charges =  -0.00000   1.00000

 Dipole moment (field-independent basis, Debye):
    X=             -2.7015    Y=             -1.1221    Z=              0.0536  Tot=              2.9258
 Quadrupole moment (field-independent basis, Debye-Ang):
   XX=            -43.8432   YY=            -48.4520   ZZ=            -47.7631
   XY=             -4.3174   XZ=              1.1507   YZ=             -0.1929

  Exact polarizability:  97.457  -2.307  66.345   3.325  -2.167  50.529
 Approx polarizability: 101.505  -5.733  82.836   6.497  -4.819  58.251

 ******    2 imaginary frequencies (negative Signs) ******

                      1                      2                      3
                      A                      A                      A
 Frequencies --    -50.9522               -41.2554                77.7925
 Red. masses --      6.6533                 6.7902                 3.9205
 Frc consts  --      0.0102                 0.0068                 0.0140
 IR Inten    --      1.0597                 0.9322                 2.7890

                      4                      5                      6
                      A                      A                      A
 Frequencies --    116.6347               175.2282               228.3972
 Red. masses --      3.4143                 3.4909                 1.6615
 Frc consts  --      0.0274                 0.0632                 0.0511
 IR Inten    --      1.7357                 5.2713                 1.6057

                      7                      8                      9
                      A                      A                      A
 Frequencies --    247.4045               267.2591               273.5178
 Red. masses --      3.6719                 3.1385                 1.1487
 Frc consts  --      0.1324                 0.1321                 0.0506
 IR Inten    --      1.1586                23.1046                94.6870

                     10                     11                     12
                      A                      A                      A
 Frequencies --    339.6549               423.7342               558.8563
 Red. masses --      2.9640                 4.0368                 4.4655
 Frc consts  --      0.2015                 0.4270                 0.8217
 IR Inten    --     15.1667                 1.7985                 2.7116

                     13                     14                     15
                      A                      A                      A
 Frequencies --    618.1369               633.7260               768.5057
 Red. masses --      1.8159                 1.8712                 1.1705
 Frc consts  --      0.4088                 0.4428                 0.4073
 IR Inten    --     59.5802               139.3929                49.5523

                     16                     17                     18
                      A                      A                      A
 Frequencies --    780.3469               787.6225               801.6576
 Red. masses --      3.0083                 1.7833                 1.2263
 Frc consts  --      1.0793                 0.6518                 0.4643
 IR Inten    --      0.8617                59.2806                 5.1692

                     19                     20                     21
                      A                      A                      A
 Frequencies --    896.4570               932.8356              1076.1765
 Red. masses --      3.0788                 2.9482                 4.1643
 Frc consts  --      1.4578                 1.5115                 2.8416
 IR Inten    --     11.7114                 4.3558                24.7767

                     22                     23                     24
                      A                      A                      A
 Frequencies --   1128.3159              1204.3375              1306.8744
 Red. masses --      2.0775                 1.7690                 2.7983
 Frc consts  --      1.5583                 1.5117                 2.8159
 IR Inten    --     23.1915                 3.1395               561.6766

                     25                     26                     27
                      A                      A                      A
 Frequencies --   1350.9824              1403.5362              1432.4960
 Red. masses --      1.3419                 1.3088                 1.4087
 Frc consts  --      1.4430                 1.5191                 1.7032
 IR Inten    --    184.0553                49.8378                16.4014

                     28                     29                     30
                      A                      A                      A
 Frequencies --   1492.8366              1503.5082              1515.6938
 Red. masses --      1.0413                 1.0626                 1.0876
 Frc consts  --      1.3672                 1.4153                 1.4722
 IR Inten    --     10.1128                 3.1885                21.0720

                     31                     32                     33
                      A                      A                      A
 Frequencies --   1816.7835              2241.1358              3075.7227
 Red. masses --     11.8340                 5.8624                 1.0354
 Frc consts  --     23.0139                17.3485                 5.7712
 IR Inten    --    282.5561                84.1493                 9.3814

                     34                     35                     36
                      A                      A                      A
 Frequencies --   3109.0684              3151.1601              3155.7950
 Red. masses --      1.0607                 1.1014                 1.1049
 Frc consts  --      6.0411                 6.4434                 6.4834
 IR Inten    --     17.1473                14.1248                 1.4980

                     37                     38                     39
                      A                      A                      A
 Frequencies --   3176.6768              3490.9867              3754.6162
 Red. masses --      1.1076                 1.1666                 1.0676
 Frc consts  --      6.5851                 8.3764                 8.8676
 IR Inten    --     14.1155                74.5848                26.5686

 - Thermochemistry -
 -------------------
 Temperature   298.150 Kelvin.  Pressure   1.00000 Atm.
 Atom     1 has atomic number  8 and mass  15.99491

 Molecular mass:   115.03952 amu.
 Principal axes and moments of inertia in atomic units:
                           1         2         3
     Eigenvalues --   356.131001907.573982109.77697
           X            0.99993  -0.01064  -0.00591
           Y            0.01072   0.99985   0.01359
           Z            0.00576  -0.01365   0.99989
 This molecule is an asymmetric top.
 Rotational symmetry number  1.
 Rotational temperatures (Kelvin)      0.24321     0.04541     0.04105
 Rotational constants (GHZ):           5.06763     0.94609     0.85542
    2 imaginary frequencies ignored.
 Zero-point vibrational energy     294966.0 (Joules/Mol)
                                   70.49857 (Kcal/Mol)
 Warning -- explicit consideration of  11 degrees of freedom as
           vibrations may cause significant error
 Vibrational temperatures:    111.93   167.81   252.11   328.61   355.96
          (Kelvin)            384.53   393.53   488.69   609.66   804.07
                              889.36   911.79  1105.71  1122.75  1133.21
                             1153.41  1289.80  1342.14  1548.38  1623.39
                             1732.77  1880.30  1943.76  2019.38  2061.04
                             2147.86  2163.21  2180.75  2613.95  3224.49
                             4425.28  4473.26  4533.82  4540.49  4570.53
                             5022.75  5402.06

 Zero-point correction=                           0.112347 (Hartree/Particle)
 Thermal correction to Energy=                    0.120873
 Thermal correction to Enthalpy=                  0.121817
 Thermal correction to Gibbs Free Energy=         0.078372
 Sum of electronic and zero-point Energies=           -420.097653
 Sum of electronic and thermal Energies=              -420.089127
 Sum of electronic and thermal Enthalpies=            -420.088183
 Sum of electronic and thermal Free Energies=         -420.131628

                     E (Thermal)             CV                S
                      KCal/Mol        Cal/Mol-Kelvin    Cal/Mol-Kelvin
 Total                   75.849             29.992             91.437
 Electronic               0.000              0.000              1.377
 Translational            0.889              2.981             40.136
 Rotational               0.889              2.981             28.751
 Vibrational             74.071             24.031             21.173
 Vibration     1          0.599              1.964              3.946
 Vibration     2          0.608              1.936              3.155
 Vibration     3          0.627              1.873              2.379
 Vibration     4          0.651              1.798              1.892
 Vibration     5          0.661              1.767              1.749
 Vibration     6          0.672              1.733              1.614
 Vibration     7          0.676              1.722              1.574
 Vibration     8          0.720              1.596              1.214
 Vibration     9          0.786              1.419              0.879
 Vibration    10          0.914              1.120              0.526
 Vibration    11          0.978              0.994              0.419

 1\1\GINC-AJ\Freq\UM062X\6-311++G(d,p)\C5H7O3(2)\AAYUSH\23-Jun-2025\0\\
 # freq 6-311++g(d,p) m062x\\Title Card Required\\0,2\O,3.398778,0.8700
 18,0.110199\H,2.598457,1.39258,-0.077481\C,2.340846,-1.148377,0.273427
 \H,3.305973,-1.556159,0.463257\C,1.224828,-0.754376,0.06541\C,-0.01112
 ,-0.041241,-0.207043\O,-0.032877,1.148767,-0.388899\O,-1.064712,-0.847
 047,-0.232561\C,-2.342228,-0.221583,-0.482129\C,-2.884707,0.425974,0.7
 76284\H,-2.973819,-1.041004,-0.819719\H,-2.222844,0.503664,-1.287676\H
 ,-3.882202,0.823682,0.58016\H,-2.957126,-0.307099,1.580922\H,-2.243662

 Normal termination of Gaussian 16 at Mon Jun 23 03:04:20 2025.
