 Gaussian 16, Revision A.03,
 Gaussian 16:  ES64L-G16RevA.03 25-Dec-2016

 --------------------------
 # freq 6-311++g(d,p) m062x
 --------------------------

 -------------------
 Title Card Required
 -------------------
 Symbolic Z-matrix:
 Charge =  0 Multiplicity = 2

                         Standard orientation:
 ---------------------------------------------------------------------
 Center     Atomic      Atomic             Coordinates (Angstroms)
 Number     Number       Type             X           Y           Z
 ---------------------------------------------------------------------
      1          8           0        3.398778    0.870018    0.110199
      2          1           0        2.598457    1.392580   -0.077481
      3          6           0        2.340846   -1.148377    0.273427
      4          1           0        3.305973   -1.556159    0.463257
      5          6           0        1.224828   -0.754376    0.065410
      6          6           0       -0.011120   -0.041241   -0.207043
      7          8           0       -0.032877    1.148767   -0.388899
      8          8           0       -1.064712   -0.847047   -0.232561
      9          6           0       -2.342228   -0.221583   -0.482129
     10          6           0       -2.884707    0.425974    0.776284
     11          1           0       -2.973819   -1.041004   -0.819719
     12          1           0       -2.222844    0.503664   -1.287676
     13          1           0       -3.882202    0.823682    0.580160
     14          1           0       -2.957126   -0.307099    1.580922
     15          1           0       -2.243662    1.248064    1.094927
 ---------------------------------------------------------------------

 SCF Done:  E(UM062X) =  -420.210000132     A.U. after   24 cycles

 The electronic state is 2-A.
 Alpha  occ. eigenvalues --  -19.69369 -19.66387 -19.64300 -10.71691 -10.61386
 Alpha  occ. eigenvalues --  -10.58258 -10.57362 -10.54457  -1.26760  -1.17441
 Alpha  occ. eigenvalues --   -1.12079  -0.91302  -0.87905  -0.78881  -0.71445
 Alpha  occ. eigenvalues --   -0.65441  -0.61881  -0.59558  -0.57471  -0.54414
 Alpha  occ. eigenvalues --   -0.54043  -0.50210  -0.49305  -0.47553  -0.46073
 Alpha  occ. eigenvalues --   -0.42862  -0.41977  -0.40266  -0.39485  -0.37566
 Alpha  occ. eigenvalues --   -0.35331
 Alpha virt. eigenvalues --   -0.02281  -0.00427   0.00851   0.01469   0.01917
 Alpha virt. eigenvalues --    0.02686   0.03980   0.04983   0.05331   0.05900
 Alpha virt. eigenvalues --    0.06631   0.07370   0.08102   0.08899   0.10228

  Beta  occ. eigenvalues --  -19.69363 -19.64825 -19.64287 -10.71701 -10.61385
  Beta  occ. eigenvalues --  -10.58262 -10.57256 -10.54457  -1.26738  -1.17400
  Beta  occ. eigenvalues --   -1.04499  -0.91048  -0.87659  -0.78823  -0.71355
  Beta  occ. eigenvalues --   -0.65407  -0.61649  -0.59500  -0.57418  -0.54349
  Beta  occ. eigenvalues --   -0.51019  -0.50160  -0.47519  -0.46111  -0.42845
  Beta  occ. eigenvalues --   -0.40690  -0.39606  -0.39234  -0.37253  -0.36520
  Beta virt. eigenvalues --   -0.07931  -0.02243  -0.00393   0.01007   0.01471
  Beta virt. eigenvalues --    0.02065   0.02823   0.04236   0.05191   0.05739
  Beta virt. eigenvalues --    0.06078   0.06727   0.07386   0.08256   0.09089

 Mulliken charges and spin densities:
               1          2
     1  O   -0.273599   0.925497
     2  H    0.253790  -0.018072
     3  C   -2.413148   0.013475
     4  H    0.184487   0.010332
     5  C    2.361665   0.089377
     6  C   -0.157038  -0.026908
     7  O   -0.254926   0.003283
     8  O    0.041685   0.002142
     9  C   -0.260292   0.000167
    10  C   -0.402053   0.000634
    11  H    0.201133  -0.000007
    12  H    0.197838   0.000162
    13  H    0.168657  -0.000008
    14  H    0.167701  -0.000037
    15  H    0.184099  -0.000036
 Sum of Mulliken charges =  -0.00000   1.00000

 Dipole moment (field-independent basis, Debye):
    X=             -2.7015    Y=             -1.1221    Z=              0.0536  Tot=              2.9258
 Quadrupole moment (field-independent basis, Debye-Ang):
   XX=            -43.8432   YY=            -48.4520   ZZ=            -47.7631
   XY=             -4.3174   XZ=              1.1507   YZ=             -0.1929

  Exact polarizability:  97.457  -2.307  66.345   3.325  -2.167  50.529
 Approx polarizability: 101.505  -5.733  82.836   6.497  -4.819  58.251

 ******    2 imaginary frequencies (negative Signs) ******

                      1                      2                      3
                      A                      A                      A
 Frequencies --    -50.9512               -41.2546                77.7931
 Red. masses --      6.6533                 6.7902                 3.9205
 Frc consts  --      0.0102                 0.0068                 0.0140
 IR Inten    --      1.0596                 0.9321                 2.7892

                      4                      5                      6
                      A                      A                      A
 Frequencies --    116.6352               175.2281               228.3961
 Red. masses --      3.4143                 3.4908                 1.6615
 Frc consts  --      0.0274                 0.0632                 0.0511
 IR Inten    --      1.7355                 5.2713                 1.6057

                      7                      8                      9
                      A                      A                      A
 Frequencies --    247.4048               267.2613               273.5318
 Red. masses --      3.6722                 3.1418                 1.1482
 Frc consts  --      0.1324                 0.1322                 0.0506
 IR Inten    --      1.1582                23.0353                94.7570

                     10                     11                     12
                      A                      A                      A
 Frequencies --    339.6551               423.7342               558.8565
 Red. masses --      2.9640                 4.0368                 4.4655
 Frc consts  --      0.2015                 0.4270                 0.8217
 IR Inten    --     15.1666                 1.7985                 2.7117

                     13                     14                     15
                      A                      A                      A
 Frequencies --    618.1402               633.7290               768.5068
 Red. masses --      1.8164                 1.8707                 1.1705
 Frc consts  --      0.4089                 0.4426                 0.4073
 IR Inten    --     59.5474               139.4258                49.5523

                     16                     17                     18
                      A                      A                      A
 Frequencies --    780.3472               787.6232               801.6574
 Red. masses --      3.0087                 1.7831                 1.2263
 Frc consts  --      1.0795                 0.6517                 0.4643
 IR Inten    --      0.8625                59.2799                 5.1692

                     19                     20                     21
                      A                      A                      A
 Frequencies --    896.4568               932.8356              1076.1763
 Red. masses --      3.0788                 2.9482                 4.1644
 Frc consts  --      1.4578                 1.5115                 2.8416
 IR Inten    --     11.7112                 4.3560                24.7762

                     22                     23                     24
                      A                      A                      A
 Frequencies --   1128.3155              1204.3374              1306.8747
 Red. masses --      2.0775                 1.7690                 2.7983
 Frc consts  --      1.5583                 1.5117                 2.8158
 IR Inten    --     23.1919                 3.1395               561.6738

                     25                     26                     27
                      A                      A                      A
 Frequencies --   1350.9828              1403.5358              1432.4957
 Red. masses --      1.3419                 1.3088                 1.4087
 Frc consts  --      1.4430                 1.5191                 1.7032
 IR Inten    --    184.0578                49.8375                16.4018

                     28                     29                     30
                      A                      A                      A
 Frequencies --   1492.8363              1503.5083              1515.6939
 Red. masses --      1.0413                 1.0626                 1.0876
 Frc consts  --      1.3672                 1.4153                 1.4722
 IR Inten    --     10.1127                 3.1884                21.0723

                     31                     32                     33
                      A                      A                      A
 Frequencies --   1816.7837              2241.1353              3075.7241
 Red. masses --     11.8340                 5.8624                 1.0354
 Frc consts  --     23.0139                17.3485                 5.7712
 IR Inten    --    282.5559                84.1497                 9.3813

                     34                     35                     36
                      A                      A                      A
 Frequencies --   3109.0667              3151.1638              3155.7930
 Red. masses --      1.0607                 1.1014                 1.1049
 Frc consts  --      6.0411                 6.4435                 6.4834
 IR Inten    --     17.1474                14.1275                 1.4951

                     37                     38                     39
                      A                      A                      A
 Frequencies --   3176.6764              3490.9847              3754.6084
 Red. masses --      1.1076                 1.1666                 1.0676
 Frc consts  --      6.5851                 8.3764                 8.8676
 IR Inten    --     14.1156                74.5848                26.5687

 - Thermochemistry -
 -------------------
 Temperature   298.150 Kelvin.  Pressure   1.00000 Atm.
 Atom     1 has atomic number  8 and mass  15.99491

 Molecular mass:   115.03952 amu.
 Principal axes and moments of inertia in atomic units:
                           1         2         3
     Eigenvalues --   356.131041907.573892109.77684
           X            0.99993  -0.01064  -0.00591
           Y            0.01072   0.99985   0.01359
           Z            0.00576  -0.01365   0.99989
 This molecule is an asymmetric top.
 Rotational symmetry number  1.
 Rotational temperatures (Kelvin)      0.24321     0.04541     0.04105
 Rotational constants (GHZ):           5.06763     0.94609     0.85542
    2 imaginary frequencies ignored.
 Zero-point vibrational energy     294966.1 (Joules/Mol)
                                   70.49860 (Kcal/Mol)
 Warning -- explicit consideration of  11 degrees of freedom as
           vibrations may cause significant error
 Vibrational temperatures:    111.93   167.81   252.11   328.61   355.96
          (Kelvin)            384.53   393.55   488.69   609.66   804.07
                              889.37   911.79  1105.71  1122.75  1133.21
                             1153.41  1289.80  1342.14  1548.38  1623.39
                             1732.77  1880.30  1943.76  2019.38  2061.04
                             2147.86  2163.21  2180.75  2613.95  3224.49
                             4425.28  4473.25  4533.82  4540.48  4570.53
                             5022.75  5402.04

 Zero-point correction=                           0.112347 (Hartree/Particle)
 Thermal correction to Energy=                    0.120873
 Thermal correction to Enthalpy=                  0.121817
 Thermal correction to Gibbs Free Energy=         0.078372
 Sum of electronic and zero-point Energies=           -420.097653
 Sum of electronic and thermal Energies=              -420.089127
 Sum of electronic and thermal Enthalpies=            -420.088183
 Sum of electronic and thermal Free Energies=         -420.131628

                     E (Thermal)             CV                S
                      KCal/Mol        Cal/Mol-Kelvin    Cal/Mol-Kelvin
 Total                   75.849             29.992             91.437
 Electronic               0.000              0.000              1.377
 Translational            0.889              2.981             40.136
 Rotational               0.889              2.981             28.751
 Vibrational             74.071             24.031             21.173
 Vibration     1          0.599              1.964              3.946
 Vibration     2          0.608              1.936              3.155
 Vibration     3          0.627              1.873              2.379
 Vibration     4          0.651              1.798              1.892
 Vibration     5          0.661              1.767              1.749
 Vibration     6          0.672              1.733              1.614
 Vibration     7          0.676              1.722              1.574
 Vibration     8          0.720              1.596              1.214
 Vibration     9          0.786              1.419              0.879
 Vibration    10          0.914              1.120              0.526
 Vibration    11          0.978              0.994              0.419

 1\1\GINC-AJ\Freq\UM062X\6-311++G(d,p)\C5H7O3(2)\AAYUSH\16-Aug-2025\0\\
 # freq 6-311++g(d,p) m062x\\Title Card Required\\0,2\O,3.321449,0.9003
 53,0.110451\H,2.517983,1.415722,-0.083577\C,2.275509,-1.121966,0.30023
 6\H,3.243102,-1.521566,0.494853\C,1.157102,-0.737269,0.087684\C,-0.083
 141,-0.035009,-0.193362\O,-0.111992,1.152402,-0.390559\O,-1.131971,-0.
 847273,-0.207968\C,-2.413255,-0.232625,-0.464979\C,-2.959038,0.427922,
 0.785228\H,-3.040137,-1.060046,-0.791657\H,-2.298477,0.482849,-1.27988
 1\H,-3.958941,0.817178,0.584463\H,-3.026806,-0.295111,1.599299\H,-2.32

 Normal termination of Gaussian 16 at Sat Aug 16 17:45:35 2025.
