 Gaussian 16, Revision A.03,
 Gaussian 16:  ES64L-G16RevA.03 25-Dec-2016

 -------------------
 # freq 6-31+g m062x
 -------------------

 -------------------
 Title Card Required
 -------------------
 Symbolic Z-matrix:
 Charge =  0 Multiplicity = 2

                         Standard orientation:
 ---------------------------------------------------------------------
 Center     Atomic      Atomic             Coordinates (Angstroms)
 Number     Number       Type             X           Y           Z
 ---------------------------------------------------------------------
      1          8           0        3.398778    0.870018    0.110199
      2          1           0        2.598457    1.392580   -0.077481
      3          6           0        2.340846   -1.148377    0.273427
      4          1           0        3.305973   -1.556159    0.463257
      5          6           0        1.224828   -0.754376    0.065410
      6          6           0       -0.011120   -0.041241   -0.207043
      7          8           0       -0.032877    1.148767   -0.388899
      8          8           0       -1.064712   -0.847047   -0.232561
      9          6           0       -2.342228   -0.221583   -0.482129
     10          6           0       -2.884707    0.425974    0.776284
     11          1           0       -2.973819   -1.041004   -0.819719
     12          1           0       -2.222844    0.503664   -1.287676
     13          1           0       -3.882202    0.823682    0.580160
     14          1           0       -2.957126   -0.307099    1.580922
     15          1           0       -2.243662    1.248064    1.094927
 ---------------------------------------------------------------------

 SCF Done:  E(UM062X) =  -419.964063789     A.U. after   24 cycles

 The electronic state is 2-A.
 Alpha  occ. eigenvalues --  -19.71794 -19.69080 -19.67541 -10.74088 -10.62422
 Alpha  occ. eigenvalues --  -10.59891 -10.59173 -10.55322  -1.29169  -1.19795
 Alpha  occ. eigenvalues --   -1.13317  -0.92087  -0.88709  -0.79461  -0.72141
 Alpha  occ. eigenvalues --   -0.65662  -0.62139  -0.59619  -0.57953  -0.54923
 Alpha  occ. eigenvalues --   -0.53788  -0.50470  -0.49323  -0.47808  -0.46153
 Alpha  occ. eigenvalues --   -0.42938  -0.42008  -0.40289  -0.39342  -0.37867
 Alpha  occ. eigenvalues --   -0.35732
 Alpha virt. eigenvalues --   -0.02483   0.01628   0.02873   0.03136   0.03727
 Alpha virt. eigenvalues --    0.04418   0.05278   0.06345   0.06938   0.07904
 Alpha virt. eigenvalues --    0.08433   0.08634   0.09017   0.11078   0.11802

  Beta  occ. eigenvalues --  -19.71788 -19.67527 -19.67450 -10.74099 -10.62421
  Beta  occ. eigenvalues --  -10.59899 -10.59061 -10.55322  -1.29147  -1.19759
  Beta  occ. eigenvalues --   -1.06014  -0.91834  -0.88497  -0.79401  -0.72040
  Beta  occ. eigenvalues --   -0.65635  -0.61913  -0.59570  -0.57896  -0.54875
  Beta  occ. eigenvalues --   -0.50593  -0.50422  -0.47786  -0.46193  -0.42913
  Beta  occ. eigenvalues --   -0.40735  -0.39542  -0.39252  -0.37716  -0.36635
  Beta virt. eigenvalues --   -0.08220  -0.02464   0.01651   0.02988   0.03165
  Beta virt. eigenvalues --    0.03866   0.04536   0.05515   0.06451   0.07162
  Beta virt. eigenvalues --    0.07959   0.08583   0.08620   0.09132   0.11006

 Mulliken charges and spin densities:
               1          2
     1  O   -0.452274   0.940008
     2  H    0.416805  -0.033555
     3  C   -0.338097  -0.096374
     4  H    0.351770   0.006015
     5  C    0.008164   0.193459
     6  C    0.271924  -0.015519
     7  O   -0.393666   0.003494
     8  O   -0.208223   0.002286
     9  C   -0.224542  -0.000148
    10  C   -0.559327   0.000295
    11  H    0.223444   0.000010
    12  H    0.235697  -0.000019
    13  H    0.210755   0.000036
    14  H    0.222208   0.000005
    15  H    0.235364   0.000006
 Sum of Mulliken charges =  -0.00000   1.00000

 Dipole moment (field-independent basis, Debye):
    X=             -2.8542    Y=             -0.9563    Z=              0.0043  Tot=              3.0101
 Quadrupole moment (field-independent basis, Debye-Ang):
   XX=            -45.1992   YY=            -49.3012   ZZ=            -47.9652
   XY=             -4.4176   XZ=              1.0386   YZ=             -0.1307

  Exact polarizability:  93.319  -1.587  63.513   3.790  -2.723  46.299
 Approx polarizability:  95.759  -5.391  77.337   7.020  -5.629  48.601

 ******    4 imaginary frequencies (negative Signs) ******

                      1                      2                      3
                      A                      A                      A
 Frequencies --   -402.8160              -123.6591               -84.6709
 Red. masses --      1.0892                 4.9688                 6.6110
 Frc consts  --      0.1041                 0.0448                 0.0279
 IR Inten    --    161.2622                14.1380                 0.4750

                      4                      5                      6
                      A                      A                      A
 Frequencies --    -28.6124                40.5938               138.0641
 Red. masses --      3.3227                 3.1852                 3.6168
 Frc consts  --      0.0016                 0.0031                 0.0406
 IR Inten    --      6.7569                 3.1046                 5.9863

                      7                      8                      9
                      A                      A                      A
 Frequencies --    187.3525               208.3790               244.5310
 Red. masses --      1.5243                 4.3351                 4.0646
 Frc consts  --      0.0315                 0.1109                 0.1432
 IR Inten    --      8.4871                10.1284                 1.2743

                     10                     11                     12
                      A                      A                      A
 Frequencies --    310.8751               412.7377               420.7779
 Red. masses --      2.9257                 1.2266                 3.2646
 Frc consts  --      0.1666                 0.1231                 0.3406
 IR Inten    --     27.6287               170.9893                14.7957

                     13                     14                     15
                      A                      A                      A
 Frequencies --    567.5121               639.1616               773.7406
 Red. masses --      4.4292                 6.7282                 4.1687
 Frc consts  --      0.8405                 1.6195                 1.4704
 IR Inten    --      2.7053                20.4412                62.5023

                     16                     17                     18
                      A                      A                      A
 Frequencies --    789.4497               816.8751               855.1367
 Red. masses --      1.2026                 1.2561                 1.6314
 Frc consts  --      0.4416                 0.4938                 0.7029
 IR Inten    --     67.9012                 3.5352                19.0967

                     19                     20                     21
                      A                      A                      A
 Frequencies --    900.4186               948.4074              1112.2428
 Red. masses --      3.3906                 2.6404                 4.2130
 Frc consts  --      1.6196                 1.3993                 3.0707
 IR Inten    --     15.4056                 5.3567                 9.1058

                     22                     23                     24
                      A                      A                      A
 Frequencies --   1157.7063              1228.8088              1337.0718
 Red. masses --      2.0725                 1.7576                 1.5087
 Frc consts  --      1.6366                 1.5636                 1.5891
 IR Inten    --     21.3366                 2.7949               226.1167

                     25                     26                     27
                      A                      A                      A
 Frequencies --   1381.2301              1446.4044              1457.4611
 Red. masses --      2.1519                 1.4437                 1.2829
 Frc consts  --      2.4188                 1.7796                 1.6056
 IR Inten    --    436.5176                78.7356                16.9105

                     28                     29                     30
                      A                      A                      A
 Frequencies --   1528.4482              1537.5638              1545.5958
 Red. masses --      1.0423                 1.0738                 1.0738
 Frc consts  --      1.4347                 1.4957                 1.5114
 IR Inten    --     14.1741                 6.4825                24.8011

                     31                     32                     33
                      A                      A                      A
 Frequencies --   1883.9847              2305.1853              3108.1655
 Red. masses --     12.1498                 5.6671                 1.0351
 Frc consts  --     25.4082                17.7429                 5.8919
 IR Inten    --    264.8200                87.2536                12.2362

                     34                     35                     36
                      A                      A                      A
 Frequencies --   3139.4894              3188.3942              3191.9377
 Red. masses --      1.0601                 1.1003                 1.1027
 Frc consts  --      6.1562                 6.5901                 6.6191
 IR Inten    --     18.7494                13.6740                 4.8701

                     37                     38                     39
                      A                      A                      A
 Frequencies --   3213.0417              3533.2719              3767.7895
 Red. masses --      1.1055                 1.1742                 1.0676
 Frc consts  --      6.7242                 8.6369                 8.9299
 IR Inten    --     16.7766                69.8114                 7.8377

 - Thermochemistry -
 -------------------
 Temperature   298.150 Kelvin.  Pressure   1.00000 Atm.
 Atom     1 has atomic number  8 and mass  15.99491

 Molecular mass:   115.03952 amu.
 Principal axes and moments of inertia in atomic units:
                           1         2         3
     Eigenvalues --   356.131041907.573892109.77684
           X            0.99993  -0.01064  -0.00591
           Y            0.01072   0.99985   0.01359
           Z            0.00576  -0.01365   0.99989
 This molecule is an asymmetric top.
 Rotational symmetry number  1.
 Rotational temperatures (Kelvin)      0.24321     0.04541     0.04105
 Rotational constants (GHZ):           5.06763     0.94609     0.85542
    4 imaginary frequencies ignored.
 Zero-point vibrational energy     294986.0 (Joules/Mol)
                                   70.50334 (Kcal/Mol)
 Warning -- explicit consideration of   9 degrees of freedom as
           vibrations may cause significant error
 Vibrational temperatures:     58.41   198.64   269.56   299.81   351.83
          (Kelvin)            447.28   593.84   605.41   816.52   919.61
                             1113.24  1135.84  1175.30  1230.35  1295.50
                             1364.55  1600.27  1665.68  1767.98  1923.75
                             1987.28  2081.05  2096.96  2199.10  2212.21
                             2223.77  2710.63  3316.65  4471.96  4517.02
                             4587.39  4592.49  4622.85  5083.59  5421.01

 Zero-point correction=                           0.112354 (Hartree/Particle)
 Thermal correction to Energy=                    0.120147
 Thermal correction to Enthalpy=                  0.121091
 Thermal correction to Gibbs Free Energy=         0.078435
 Sum of electronic and zero-point Energies=           -419.851710
 Sum of electronic and thermal Energies=              -419.843917
 Sum of electronic and thermal Enthalpies=            -419.842973
 Sum of electronic and thermal Free Energies=         -419.885629

                     E (Thermal)             CV                S
                      KCal/Mol        Cal/Mol-Kelvin    Cal/Mol-Kelvin
 Total                   75.393             26.706             89.777
 Electronic               0.000              0.000              1.377
 Translational            0.889              2.981             40.136
 Rotational               0.889              2.981             28.751
 Vibrational             73.616             20.744             19.513
 Vibration     1          0.594              1.981              5.230
 Vibration     2          0.614              1.915              2.831
 Vibration     3          0.632              1.857              2.254
 Vibration     4          0.642              1.828              2.058
 Vibration     5          0.660              1.772              1.770
 Vibration     6          0.700              1.653              1.358
 Vibration     7          0.777              1.443              0.917
 Vibration     8          0.783              1.425              0.889
 Vibration     9          0.923              1.102              0.509

 Normal termination of Gaussian 16 at Fri Jun 20 13:12:15 2025.
