 Gaussian 16, Revision A.03,
 Gaussian 16:  ES64L-G16RevA.03 25-Dec-2016

 -------------------
 # freq 6-31+g m062x
 -------------------

 -------------------
 Title Card Required
 -------------------
 Symbolic Z-matrix:
 Charge =  0 Multiplicity = 2

                         Standard orientation:
 ---------------------------------------------------------------------
 Center     Atomic      Atomic             Coordinates (Angstroms)
 Number     Number       Type             X           Y           Z
 ---------------------------------------------------------------------
      1          8           0        3.344934    0.787502    0.107708
      2          1           0        2.587588    1.364488   -0.089509
      3          6           0        2.408343   -0.985536    0.271597
      4          1           0        3.321200   -1.498006    0.477614
      5          6           0        1.231580   -0.746123    0.074766
      6          6           0       -0.011382   -0.045216   -0.206331
      7          8           0       -0.038521    1.141745   -0.403225
      8          8           0       -1.059653   -0.857440   -0.220845
      9          6           0       -2.341300   -0.241952   -0.478048
     10          6           0       -2.886712    0.419078    0.771996
     11          1           0       -2.968306   -1.069283   -0.804552
     12          1           0       -2.225853    0.473036   -1.293237
     13          1           0       -3.886521    0.808353    0.570883
     14          1           0       -2.954860   -0.303658    1.586285
     15          1           0       -2.250496    1.249111    1.079529
 ---------------------------------------------------------------------

 SCF Done:  E(UM062X) =  -419.958456150     A.U. after   23 cycles

 The electronic state is 2-A.
 Alpha  occ. eigenvalues --  -19.72009 -19.67804 -19.67643 -10.74337 -10.62581
 Alpha  occ. eigenvalues --  -10.61612 -10.60186 -10.55441  -1.29440  -1.20093
 Alpha  occ. eigenvalues --   -1.12172  -0.92687  -0.89184  -0.79753  -0.72577
 Alpha  occ. eigenvalues --   -0.65940  -0.62592  -0.59856  -0.58224  -0.55066
 Alpha  occ. eigenvalues --   -0.52546  -0.50699  -0.49326  -0.47985  -0.46266
 Alpha  occ. eigenvalues --   -0.43125  -0.41672  -0.40491  -0.39545  -0.37374
 Alpha  occ. eigenvalues --   -0.33761
 Alpha virt. eigenvalues --   -0.02790   0.01550   0.02879   0.03091   0.03494
 Alpha virt. eigenvalues --    0.04410   0.05394   0.06278   0.06997   0.07786
 Alpha virt. eigenvalues --    0.08200   0.08615   0.09124   0.10553   0.11761

  Beta  occ. eigenvalues --  -19.71994 -19.67751 -19.66207 -10.74365 -10.62578
  Beta  occ. eigenvalues --  -10.61699 -10.59896 -10.55441  -1.29370  -1.19977
  Beta  occ. eigenvalues --   -1.06516  -0.92009  -0.88788  -0.79627  -0.72331
  Beta  occ. eigenvalues --   -0.65877  -0.62244  -0.59716  -0.58058  -0.54968
  Beta  occ. eigenvalues --   -0.50568  -0.49926  -0.47927  -0.46310  -0.43059
  Beta  occ. eigenvalues --   -0.41209  -0.40088  -0.39524  -0.38185  -0.35357
  Beta virt. eigenvalues --   -0.09393  -0.02794   0.01526   0.02890   0.03109
  Beta virt. eigenvalues --    0.03894   0.04530   0.05944   0.06364   0.07301
  Beta virt. eigenvalues --    0.07793   0.08276   0.08751   0.09435   0.10588

 Mulliken charges and spin densities:
               1          2
     1  O   -0.489079   0.783818
     2  H    0.412540  -0.027738
     3  C   -0.267105  -0.197620
     4  H    0.304351   0.018622
     5  C   -0.049435   0.415078
     6  C    0.366594  -0.009765
     7  O   -0.405456   0.012492
     8  O   -0.216691   0.004269
     9  C   -0.222776  -0.000327
    10  C   -0.562415   0.001080
    11  H    0.224287   0.000036
    12  H    0.236644  -0.000017
    13  H    0.211081   0.000081
    14  H    0.222299   0.000010
    15  H    0.235161  -0.000018
 Sum of Mulliken charges =  -0.00000   1.00000

 Dipole moment (field-independent basis, Debye):
    X=             -3.1637    Y=             -1.2943    Z=              0.0335  Tot=              3.4184
 Quadrupole moment (field-independent basis, Debye-Ang):
   XX=            -46.3573   YY=            -49.3733   ZZ=            -47.9356
   XY=             -5.2306   XZ=              1.1233   YZ=             -0.1378

  Exact polarizability: 102.508   7.113  68.625   3.482  -2.740  46.515
 Approx polarizability: 103.884   4.173  81.318   6.597  -5.331  48.942

 ******    4 imaginary frequencies (negative Signs) ******

                      1                      2                      3
                      A                      A                      A
 Frequencies --   -561.7506              -386.5514              -100.0181
 Red. masses --     12.2432                 1.0837                 5.8352
 Frc consts  --      2.2763                 0.0954                 0.0344
 IR Inten    --     61.9723               150.5841                 1.6794

                      4                      5                      6
                      A                      A                      A
 Frequencies --    -69.7292                15.8778                47.6547
 Red. masses --      7.8929                 2.7672                 3.6615
 Frc consts  --      0.0226                 0.0004                 0.0049
 IR Inten    --      0.3629                 3.6345                 8.6890

                      7                      8                      9
                      A                      A                      A
 Frequencies --    172.9192               211.8366               238.1654
 Red. masses --      1.5178                 2.9516                 3.9519
 Frc consts  --      0.0267                 0.0780                 0.1321
 IR Inten    --      6.2308                 5.8748                 2.6560

                     10                     11                     12
                      A                      A                      A
 Frequencies --    312.7842               419.0796               558.0388
 Red. masses --      3.0384                 3.9454                 4.3003
 Frc consts  --      0.1751                 0.4083                 0.7890
 IR Inten    --     20.0386                 2.5961                14.4213

                     13                     14                     15
                      A                      A                      A
 Frequencies --    625.7377               673.4315               759.3135
 Red. masses --      6.9733                 1.1521                 6.7528
 Frc consts  --      1.6087                 0.3078                 2.2939
 IR Inten    --      5.7246               221.8852                50.2884

                     16                     17                     18
                      A                      A                      A
 Frequencies --    802.2222               816.6185               829.8624
 Red. masses --      1.4273                 1.2592                 1.0723
 Frc consts  --      0.5412                 0.4948                 0.4351
 IR Inten    --     26.2538                 7.3732                35.6848

                     19                     20                     21
                      A                      A                      A
 Frequencies --    898.6197               947.3001              1110.4841
 Red. masses --      3.2793                 2.6517                 4.2266
 Frc consts  --      1.5602                 1.4020                 3.0709
 IR Inten    --     15.1085                 5.0667                 9.7831

                     22                     23                     24
                      A                      A                      A
 Frequencies --   1157.0635              1228.9043              1335.9014
 Red. masses --      2.0580                 1.7535                 1.5499
 Frc consts  --      1.6234                 1.5602                 1.6297
 IR Inten    --     21.2775                 2.3690               267.0894

                     25                     26                     27
                      A                      A                      A
 Frequencies --   1380.0879              1445.9899              1457.8008
 Red. masses --      2.1064                 1.4352                 1.2763
 Frc consts  --      2.3638                 1.7681                 1.5980
 IR Inten    --    466.8747                79.8819                17.2765

                     28                     29                     30
                      A                      A                      A
 Frequencies --   1528.6021              1537.8068              1545.7653
 Red. masses --      1.0422                 1.0713                 1.0751
 Frc consts  --      1.4348                 1.4926                 1.5136
 IR Inten    --     13.8757                 6.1729                25.2152

                     31                     32                     33
                      A                      A                      A
 Frequencies --   1880.8641              2184.7269              3108.5348
 Red. masses --     12.0600                 6.2180                 1.0351
 Frc consts  --     25.1370                17.4861                 5.8933
 IR Inten    --    210.5200               104.3243                12.0637

                     34                     35                     36
                      A                      A                      A
 Frequencies --   3140.0363              3188.9373              3192.4648
 Red. masses --      1.0602                 1.1002                 1.1027
 Frc consts  --      6.1588                 6.5920                 6.6215
 IR Inten    --     18.6611                13.7199                 4.5171

                     37                     38                     39
                      A                      A                      A
 Frequencies --   3213.5932              3497.7300              3788.3459
 Red. masses --      1.1055                 1.1531                 1.0678
 Frc consts  --      6.7267                 8.3115                 9.0291
 IR Inten    --     16.7664                65.3935                15.0708

 - Thermochemistry -
 -------------------
 Temperature   298.150 Kelvin.  Pressure   1.00000 Atm.
 Atom     1 has atomic number  8 and mass  15.99491

 Molecular mass:   115.03952 amu.
 Principal axes and moments of inertia in atomic units:
                           1         2         3
     Eigenvalues --   332.069971901.030282079.61183
           X            0.99993  -0.00992  -0.00586
           Y            0.01001   0.99983   0.01542
           Z            0.00570  -0.01548   0.99986
 This molecule is an asymmetric top.
 Rotational symmetry number  1.
 Rotational temperatures (Kelvin)      0.26083     0.04556     0.04165
 Rotational constants (GHZ):           5.43482     0.94935     0.86783
    4 imaginary frequencies ignored.
 Zero-point vibrational energy     294599.0 (Joules/Mol)
                                   70.41084 (Kcal/Mol)
 Warning -- explicit consideration of   8 degrees of freedom as
           vibrations may cause significant error
 Vibrational temperatures:     22.84    68.56   248.79   304.79   342.67
          (Kelvin)            450.03   602.96   802.89   900.30   968.92
                             1092.48  1154.22  1174.93  1193.99  1292.91
                             1362.95  1597.74  1664.76  1768.12  1922.06
                             1985.64  2080.46  2097.45  2199.32  2212.56
                             2224.01  2706.14  3143.33  4472.49  4517.81
                             4588.17  4593.24  4623.64  5032.45  5450.58

 Zero-point correction=                           0.112207 (Hartree/Particle)
 Thermal correction to Energy=                    0.120103
 Thermal correction to Enthalpy=                  0.121047
 Thermal correction to Gibbs Free Energy=         0.076726
 Sum of electronic and zero-point Energies=           -419.846249
 Sum of electronic and thermal Energies=              -419.838354
 Sum of electronic and thermal Enthalpies=            -419.837409
 Sum of electronic and thermal Free Energies=         -419.881730

                     E (Thermal)             CV                S
                      KCal/Mol        Cal/Mol-Kelvin    Cal/Mol-Kelvin
 Total                   75.366             26.337             93.281
 Electronic               0.000              0.000              1.377
 Translational            0.889              2.981             40.136
 Rotational               0.889              2.981             28.664
 Vibrational             73.588             20.375             23.104
 Vibration     1          0.593              1.986              7.093
 Vibration     2          0.595              1.978              4.912
 Vibration     3          0.626              1.876              2.404
 Vibration     4          0.643              1.823              2.028
 Vibration     5          0.656              1.782              1.817
 Vibration     6          0.701              1.649              1.348
 Vibration     7          0.782              1.429              0.895
 Vibration     8          0.914              1.122              0.528

 Normal termination of Gaussian 16 at Fri Jun 20 13:05:14 2025.
