 Gaussian 16, Revision A.03,
 Gaussian 16:  ES64L-G16RevA.03 25-Dec-2016

 --------------------------
 # ccsd(t)/6-311++g(d,p) sp
 --------------------------

 -------------------
 Title Card Required
 -------------------
 Symbolic Z-matrix:
 Charge =  0 Multiplicity = 2

                         Standard orientation:
 ---------------------------------------------------------------------
 Center     Atomic      Atomic             Coordinates (Angstroms)
 Number     Number       Type             X           Y           Z
 ---------------------------------------------------------------------
      1          8           0        3.305105    0.722976    0.107302
      2          1           0        2.571807    1.323316   -0.096803
      3          6           0        2.473378   -0.838727    0.266059
      4          1           0        3.278849   -1.515544    0.491445
      5          6           0        1.226407   -0.759245    0.084173
      6          6           0       -0.009122   -0.046273   -0.205778
      7          8           0       -0.041605    1.138426   -0.414954
      8          8           0       -1.055806   -0.863075   -0.211758
      9          6           0       -2.340147   -0.255946   -0.474830
     10          6           0       -2.887763    0.415622    0.768571
     11          1           0       -2.963816   -1.089183   -0.792633
     12          1           0       -2.228043    0.451056   -1.297464
     13          1           0       -3.889251    0.798673    0.563937
     14          1           0       -2.952655   -0.298981    1.590286
     15          1           0       -2.254961    1.251465    1.067339
 ---------------------------------------------------------------------

 SCF Done:  E(UHF) =  -417.988893226     A.U. after   30 cycles
 E2 =    -0.1255235762D+01 EUMP2 =    -0.41924412898794D+03
 CCSD(T)= -0.41936884872D+03

 The electronic state is 2-A.
 Alpha  occ. eigenvalues --  -20.62359 -20.59824 -20.57528 -11.42054 -11.30552
 Alpha  occ. eigenvalues --  -11.29986 -11.28392 -11.23280  -1.49480  -1.39746
 Alpha  occ. eigenvalues --   -1.35039  -1.10527  -1.04891  -0.92906  -0.84888
 Alpha  occ. eigenvalues --   -0.77743  -0.73141  -0.71305  -0.67844  -0.64372
 Alpha  occ. eigenvalues --   -0.63286  -0.61997  -0.59607  -0.56621  -0.54923
 Alpha  occ. eigenvalues --   -0.52898  -0.51835  -0.50540  -0.48440  -0.43686
 Alpha  occ. eigenvalues --   -0.42587
 Alpha virt. eigenvalues --    0.03823   0.04797   0.05528   0.06247   0.07157
 Alpha virt. eigenvalues --    0.08450   0.08890   0.09360   0.10966   0.12175
 Alpha virt. eigenvalues --    0.12652   0.13725   0.14447   0.14953   0.16598

  Beta  occ. eigenvalues --  -20.62340 -20.57212 -20.56845 -11.42499 -11.32359
  Beta  occ. eigenvalues --  -11.30550 -11.25227 -11.23278  -1.49098  -1.38593
  Beta  occ. eigenvalues --   -1.26618  -1.07047  -1.04543  -0.93503  -0.84509
  Beta  occ. eigenvalues --   -0.77481  -0.72807  -0.70275  -0.67172  -0.63791
  Beta  occ. eigenvalues --   -0.61413  -0.58993  -0.55464  -0.54771  -0.51964
  Beta  occ. eigenvalues --   -0.51255  -0.49201  -0.47302  -0.46772  -0.41836
  Beta virt. eigenvalues --    0.03824   0.04762   0.05207   0.05536   0.06691
  Beta virt. eigenvalues --    0.07254   0.08111   0.08910   0.09667   0.11722
  Beta virt. eigenvalues --    0.12746   0.12863   0.13695   0.14290   0.14710

 Mulliken charges and spin densities:
               1          2
     1  O   -0.283106   0.622756
     2  H    0.267623  -0.024806
     3  C   -1.381648  -1.080006
     4  H    0.214823   0.087222
     5  C    1.637934   1.461911
     6  C   -0.346957  -0.196132
     7  O   -0.328362   0.125930
     8  O   -0.064497   0.003761
     9  C   -0.159448  -0.005412
    10  C   -0.363295   0.003872
    11  H    0.169558   0.000539
    12  H    0.183588   0.000259
    13  H    0.133725   0.000252
    14  H    0.147161  -0.000046
    15  H    0.172900  -0.000100
 Sum of Mulliken charges =  -0.00000   1.00000

 Dipole moment (field-independent basis, Debye):
    X=             -2.8181    Y=             -1.6698    Z=              0.1205  Tot=              3.2778
 Quadrupole moment (field-independent basis, Debye-Ang):
   XX=            -46.2395   YY=            -48.7967   ZZ=            -47.5970
   XY=             -5.0555   XZ=              1.2391   YZ=             -0.1107

 Normal termination of Gaussian 16 at Sun Aug 24 13:31:29 2025.
