 Gaussian 16, Revision A.03,
 Gaussian 16:  ES64L-G16RevA.03 25-Dec-2016

 --------------------------
 # freq 6-311++g(d,p) m062x
 --------------------------

 -------------------
 Title Card Required
 -------------------
 Symbolic Z-matrix:
 Charge =  0 Multiplicity = 2

                         Standard orientation:
 ---------------------------------------------------------------------
 Center     Atomic      Atomic             Coordinates (Angstroms)
 Number     Number       Type             X           Y           Z
 ---------------------------------------------------------------------
      1          8           0        3.332912    0.768785    0.107423
      2          1           0        2.583117    1.353786   -0.091848
      3          6           0        2.426713   -0.943442    0.270293
      4          1           0        3.313282   -1.502694    0.482052
      5          6           0        1.231126   -0.747934    0.077244
      6          6           0       -0.011269   -0.045685   -0.206213
      7          8           0       -0.039448    1.140472   -0.406554
      8          8           0       -1.058445   -0.859325   -0.218187
      9          6           0       -2.341070   -0.246266   -0.477117
     10          6           0       -2.887077    0.417742    0.771042
     11          1           0       -2.966935   -1.075414   -0.801121
     12          1           0       -2.226535    0.466381   -1.294476
     13          1           0       -3.887405    0.805106    0.568886
     14          1           0       -2.954238   -0.302669    1.587470
     15          1           0       -2.251974    1.249549    1.076086
 ---------------------------------------------------------------------

 SCF Done:  E(UM062X) =  -420.206258960     A.U. after   20 cycles

 The electronic state is 2-A.
 Alpha  occ. eigenvalues --  -19.69697 -19.64691 -19.64285 -10.72034 -10.61624
 Alpha  occ. eigenvalues --  -10.61185 -10.58987 -10.54639  -1.27131  -1.17866
 Alpha  occ. eigenvalues --   -1.10255  -0.92171  -0.88590  -0.79326  -0.72050
 Alpha  occ. eigenvalues --   -0.65860  -0.62371  -0.59925  -0.57875  -0.54620
 Alpha  occ. eigenvalues --   -0.52160  -0.50563  -0.49092  -0.47854  -0.46240
 Alpha  occ. eigenvalues --   -0.43129  -0.41457  -0.40576  -0.39792  -0.36876
 Alpha  occ. eigenvalues --   -0.32779
 Alpha virt. eigenvalues --   -0.02829  -0.00531   0.00817   0.01358   0.01872
 Alpha virt. eigenvalues --    0.02427   0.03884   0.05009   0.05329   0.06116
 Alpha virt. eigenvalues --    0.06641   0.07247   0.07954   0.08802   0.09883

  Beta  occ. eigenvalues --  -19.69679 -19.64616 -19.63074 -10.72066 -10.61621
  Beta  occ. eigenvalues --  -10.61298 -10.58623 -10.54639  -1.27039  -1.17675
  Beta  occ. eigenvalues --   -1.05523  -0.91213  -0.87991  -0.79187  -0.71756
  Beta  occ. eigenvalues --   -0.65756  -0.61951  -0.59693  -0.57667  -0.54483
  Beta  occ. eigenvalues --   -0.50379  -0.49908  -0.47741  -0.46284  -0.43071
  Beta  occ. eigenvalues --   -0.41421  -0.40217  -0.39750  -0.38212  -0.34818
  Beta virt. eigenvalues --   -0.09726  -0.02769  -0.00527   0.00970   0.01345
  Beta virt. eigenvalues --    0.01998   0.02714   0.04249   0.05188   0.05644
  Beta virt. eigenvalues --    0.06505   0.06948   0.07484   0.08274   0.08922

 Mulliken charges and spin densities:
               1          2
     1  O   -0.303021   0.666680
     2  H    0.249064  -0.014475
     3  C   -1.641334  -0.139012
     4  H    0.203567   0.026618
     5  C    1.747572   0.460381
     6  C   -0.283933  -0.024998
     7  O   -0.252895   0.021022
     8  O    0.030630   0.003734
     9  C   -0.266221  -0.002033
    10  C   -0.404996   0.001659
    11  H    0.200475   0.000087
    12  H    0.200489   0.000365
    13  H    0.167312   0.000141
    14  H    0.168790   0.000004
    15  H    0.184502  -0.000175
 Sum of Mulliken charges =  -0.00000   1.00000

 Dipole moment (field-independent basis, Debye):
    X=             -3.2356    Y=             -1.6707    Z=              0.0968  Tot=              3.6428
 Quadrupole moment (field-independent basis, Debye-Ang):
   XX=            -46.1198   YY=            -48.4230   ZZ=            -47.7015
   XY=             -5.6730   XZ=              1.2235   YZ=             -0.2429

  Exact polarizability: 108.171   7.850  72.242   2.971  -2.235  50.557
 Approx polarizability: 110.513   6.215  89.092   5.793  -4.603  58.607

 ******    1 imaginary frequencies (negative Signs) ******

                      1                      2                      3
                      A                      A                      A
 Frequencies --   -779.4132                55.8091                81.5780
 Red. masses --     10.6298                 6.6336                 6.2838
 Frc consts  --      3.8046                 0.0122                 0.0246
 IR Inten    --     85.3132                 0.1366                 0.1124

                      4                      5                      6
                      A                      A                      A
 Frequencies --    104.7646               126.2145               210.3954
 Red. masses --      2.8498                 4.4162                 1.6179
 Frc consts  --      0.0184                 0.0414                 0.0422
 IR Inten    --      1.8703                 2.7379                 3.4770

                      7                      8                      9
                      A                      A                      A
 Frequencies --    250.6502               273.3706               300.1575
 Red. masses --      2.5280                 3.2384                 1.1131
 Frc consts  --      0.0936                 0.1426                 0.0591
 IR Inten    --      4.5990                 0.7943               110.2236

                     10                     11                     12
                      A                      A                      A
 Frequencies --    341.1902               427.9699               555.0624
 Red. masses --      3.0699                 3.9843                 4.7049
 Frc consts  --      0.2106                 0.4300                 0.8541
 IR Inten    --     14.7066                 2.2899                 5.7806

                     13                     14                     15
                      A                      A                      A
 Frequencies --    616.0128               769.5350               783.3574
 Red. masses --      8.3709                 2.2982                 2.3760
 Frc consts  --      1.8715                 0.8019                 0.8591
 IR Inten    --     12.4127                 0.7104                58.8693

                     16                     17                     18
                      A                      A                      A
 Frequencies --    800.6524               835.4963               893.8264
 Red. masses --      1.2208                 1.1227                 3.0063
 Frc consts  --      0.4611                 0.4617                 1.4151
 IR Inten    --      2.4770               170.1008                11.6555

                     19                     20                     21
                      A                      A                      A
 Frequencies --    919.0570               943.0382              1073.5537
 Red. masses --      1.5774                 1.5368                 4.1035
 Frc consts  --      0.7850                 0.8052                 2.7864
 IR Inten    --     19.9746                24.2777                26.0935

                     22                     23                     24
                      A                      A                      A
 Frequencies --   1127.8094              1203.9410              1302.4784
 Red. masses --      2.0717                 1.7673                 3.0051
 Frc consts  --      1.5525                 1.5093                 3.0037
 IR Inten    --     23.4572                 2.9361               646.8035

                     25                     26                     27
                      A                      A                      A
 Frequencies --   1350.1671              1403.3041              1432.1990
 Red. masses --      1.3132                 1.3005                 1.3977
 Frc consts  --      1.4104                 1.5089                 1.6891
 IR Inten    --    181.8168                47.9189                16.0541

                     28                     29                     30
                      A                      A                      A
 Frequencies --   1493.0074              1503.2337              1515.3144
 Red. masses --      1.0413                 1.0619                 1.0868
 Frc consts  --      1.3676                 1.4138                 1.4703
 IR Inten    --      9.6673                 3.3657                20.5196

                     31                     32                     33
                      A                      A                      A
 Frequencies --   1811.5679              2045.1321              3076.2640
 Red. masses --     11.6692                 6.6140                 1.0354
 Frc consts  --     22.5632                16.2988                 5.7732
 IR Inten    --    207.6409               118.0426                 9.1376

                     34                     35                     36
                      A                      A                      A
 Frequencies --   3109.7730              3151.8917              3156.3818
 Red. masses --      1.0608                 1.1013                 1.1049
 Frc consts  --      6.0444                 6.4463                 6.4858
 IR Inten    --     17.0527                13.9603                 1.3480

                     37                     38                     39
                      A                      A                      A
 Frequencies --   3177.4805              3421.7239              3781.6926
 Red. masses --      1.1076                 1.1388                 1.0681
 Frc consts  --      6.5888                 7.8554                 8.9995
 IR Inten    --     14.0358                58.8691                40.4850

 - Thermochemistry -
 -------------------
 Temperature   298.150 Kelvin.  Pressure   1.00000 Atm.
 Atom     1 has atomic number  8 and mass  15.99491

 Molecular mass:   115.03952 amu.
 Principal axes and moments of inertia in atomic units:
                           1         2         3
     Eigenvalues --   327.015521899.795792073.41563
           X            0.99993  -0.00989  -0.00585
           Y            0.00998   0.99983   0.01569
           Z            0.00569  -0.01575   0.99986
 This molecule is an asymmetric top.
 Rotational symmetry number  1.
 Rotational temperatures (Kelvin)      0.26486     0.04559     0.04177
 Rotational constants (GHZ):           5.51882     0.94997     0.87042
    1 imaginary frequencies ignored.
 Zero-point vibrational energy     295627.5 (Joules/Mol)
                                   70.65666 (Kcal/Mol)
 Warning -- explicit consideration of  12 degrees of freedom as
           vibrations may cause significant error
 Vibrational temperatures:     80.30   117.37   150.73   181.59   302.71
          (Kelvin)            360.63   393.32   431.86   490.90   615.75
                              798.61   886.31  1107.19  1127.08  1151.96
                             1202.09  1286.02  1322.32  1356.82  1544.60
                             1622.67  1732.20  1873.98  1942.59  2019.04
                             2060.61  2148.10  2162.82  2180.20  2606.44
                             2942.49  4426.06  4474.27  4534.87  4541.33
                             4571.69  4923.10  5441.01

 Zero-point correction=                           0.112599 (Hartree/Particle)
 Thermal correction to Energy=                    0.121918
 Thermal correction to Enthalpy=                  0.122863
 Thermal correction to Gibbs Free Energy=         0.077116
 Sum of electronic and zero-point Energies=           -420.093660
 Sum of electronic and thermal Energies=              -420.084340
 Sum of electronic and thermal Enthalpies=            -420.083396
 Sum of electronic and thermal Free Energies=         -420.129143

                     E (Thermal)             CV                S
                      KCal/Mol        Cal/Mol-Kelvin    Cal/Mol-Kelvin
 Total                   76.505             31.425             96.283
 Electronic               0.000              0.000              1.377
 Translational            0.889              2.981             40.136
 Rotational               0.889              2.981             28.645
 Vibrational             74.728             25.463             26.124
 Vibration     1          0.596              1.975              4.600
 Vibration     2          0.600              1.962              3.853
 Vibration     3          0.605              1.945              3.364
 Vibration     4          0.611              1.927              3.003
 Vibration     5          0.643              1.825              2.040
 Vibration     6          0.663              1.762              1.726
 Vibration     7          0.676              1.722              1.575
 Vibration     8          0.693              1.673              1.416
 Vibration     9          0.721              1.593              1.207
 Vibration    10          0.789              1.409              0.865
 Vibration    11          0.911              1.129              0.534
 Vibration    12          0.976              0.998              0.423

 1\1\GINC-AJ\Freq\UM062X\6-311++G(d,p)\C5H7O3(2)\AAYUSH\23-Jun-2025\0\\
 # freq 6-311++g(d,p) m062x\\Title Card Required\\0,2\O,3.332912,0.7687
 85,0.107423\H,2.583117,1.353786,-0.091848\C,2.426713,-0.943442,0.27029
 3\H,3.313282,-1.502694,0.482052\C,1.231126,-0.747934,0.077244\C,-0.011
 269,-0.045685,-0.206213\O,-0.039448,1.140472,-0.406554\O,-1.058445,-0.
 859325,-0.218187\C,-2.34107,-0.246266,-0.477117\C,-2.887077,0.417742,0
 .771042\H,-2.966935,-1.075414,-0.801121\H,-2.226535,0.466381,-1.294476
 \H,-3.887405,0.805106,0.568886\H,-2.954238,-0.302669,1.58747\H,-2.2519

 Normal termination of Gaussian 16 at Mon Jun 23 03:11:18 2025.
