 Gaussian 16, Revision A.03,
 Gaussian 16:  ES64L-G16RevA.03 25-Dec-2016

 -------------------
 # freq 6-31+g m062x
 -------------------

 -------------------
 Title Card Required
 -------------------
 Symbolic Z-matrix:
 Charge =  0 Multiplicity = 2

                         Standard orientation:
 ---------------------------------------------------------------------
 Center     Atomic      Atomic             Coordinates (Angstroms)
 Number     Number       Type             X           Y           Z
 ---------------------------------------------------------------------
      1          8           0        3.287920    0.693681    0.107604
      2          1           0        2.567702    1.307200   -0.100133
      3          6           0        2.498350   -0.776358    0.262899
      4          1           0        3.256690   -1.509083    0.495405
      5          6           0        1.225549   -0.767849    0.089378
      6          6           0       -0.006562   -0.047110   -0.205267
      7          8           0       -0.042632    1.137280   -0.420488
      8          8           0       -1.054495   -0.864983   -0.207662
      9          6           0       -2.339373   -0.261437   -0.473438
     10          6           0       -2.888163    0.415283    0.766743
     11          1           0       -2.962177   -1.096937   -0.787233
     12          1           0       -2.228903    0.442009   -1.299415
     13          1           0       -3.890268    0.795964    0.560556
     14          1           0       -2.951810   -0.295500    1.591887
     15          1           0       -2.256390    1.253365    1.061416
 ---------------------------------------------------------------------

 SCF Done:  E(UM062X) =  -419.984902715     A.U. after   19 cycles

 The electronic state is 2-A.
 Alpha  occ. eigenvalues --  -19.71848 -19.67811 -19.67326 -10.74044 -10.65573
 Alpha  occ. eigenvalues --  -10.62512 -10.61517 -10.55397  -1.29296  -1.20019
 Alpha  occ. eigenvalues --   -1.12894  -0.93134  -0.89223  -0.79896  -0.73015
 Alpha  occ. eigenvalues --   -0.66053  -0.62610  -0.59867  -0.58271  -0.55078
 Alpha  occ. eigenvalues --   -0.53713  -0.50768  -0.48850  -0.47869  -0.46210
 Alpha  occ. eigenvalues --   -0.43430  -0.42959  -0.40721  -0.39546  -0.35553
 Alpha  occ. eigenvalues --   -0.31890
 Alpha virt. eigenvalues --   -0.03459   0.01433   0.02680   0.03064   0.03922
 Alpha virt. eigenvalues --    0.04715   0.05576   0.06233   0.07507   0.07780
 Alpha virt. eigenvalues --    0.08184   0.08741   0.09859   0.10567   0.11637

  Beta  occ. eigenvalues --  -19.71821 -19.67665 -19.66873 -10.74093 -10.65728
  Beta  occ. eigenvalues --  -10.62508 -10.60743 -10.55397  -1.29113  -1.19723
  Beta  occ. eigenvalues --   -1.11365  -0.91483  -0.88359  -0.79626  -0.72428
  Beta  occ. eigenvalues --   -0.65897  -0.62052  -0.59485  -0.57826  -0.54813
  Beta  occ. eigenvalues --   -0.52301  -0.50453  -0.47840  -0.46168  -0.44596
  Beta  occ. eigenvalues --   -0.42999  -0.42635  -0.39619  -0.39010  -0.34038
  Beta virt. eigenvalues --   -0.08638  -0.03318   0.01146   0.02464   0.03041
  Beta virt. eigenvalues --    0.03997   0.04712   0.06176   0.06226   0.07403
  Beta virt. eigenvalues --    0.07690   0.08006   0.08905   0.09749   0.10415

 Mulliken charges and spin densities:
               1          2
     1  O   -0.536266   0.232986
     2  H    0.421776  -0.005851
     3  C   -0.257053  -0.204793
     4  H    0.257261   0.034041
     5  C    0.069921   0.923502
     6  C    0.350494  -0.019819
     7  O   -0.420712   0.033095
     8  O   -0.223800   0.007743
     9  C   -0.219051  -0.003695
    10  C   -0.569246   0.002716
    11  H    0.224064   0.000026
    12  H    0.235805   0.000045
    13  H    0.210489   0.000113
    14  H    0.221690  -0.000001
    15  H    0.234626  -0.000110
 Sum of Mulliken charges =  -0.00000   1.00000

 Dipole moment (field-independent basis, Debye):
    X=             -3.2860    Y=             -1.5456    Z=              0.0733  Tot=              3.6321
 Quadrupole moment (field-independent basis, Debye-Ang):
   XX=            -48.5293   YY=            -49.7004   ZZ=            -48.0218
   XY=             -5.7931   XZ=              1.0627   YZ=             -0.0986

  Exact polarizability:  98.443   3.579  64.854   3.505  -2.799  46.827
 Approx polarizability: 100.195   7.203  82.823   5.451  -5.563  49.695

 ******    3 imaginary frequencies (negative Signs) ******

                      1                      2                      3
                      A                      A                      A
 Frequencies --   -334.4828              -267.3905               -42.4133
 Red. masses --     11.3785                 1.0814                 3.6605
 Frc consts  --      0.7500                 0.0456                 0.0039
 IR Inten    --     95.4540               126.4339                 5.0480

                      4                      5                      6
                      A                      A                      A
 Frequencies --     51.7168                75.5515               165.0549
 Red. masses --      3.5608                 5.9573                 6.1507
 Frc consts  --      0.0056                 0.0200                 0.0987
 IR Inten    --      4.0511                 3.6743                 8.5754

                      7                      8                      9
                      A                      A                      A
 Frequencies --    180.0639               274.8309               314.5457
 Red. masses --      1.2563                 3.1812                 3.6650
 Frc consts  --      0.0240                 0.1416                 0.2136
 IR Inten    --      5.3918                10.5223                25.8151

                     10                     11                     12
                      A                      A                      A
 Frequencies --    349.6400               439.6303               587.5085
 Red. masses --      3.5484                 3.6079                 4.2476
 Frc consts  --      0.2556                 0.4109                 0.8638
 IR Inten    --     17.9081                 4.9642                 6.7222

                     13                     14                     15
                      A                      A                      A
 Frequencies --    633.5866               747.4661               815.0511
 Red. masses --      8.5614                11.4766                 1.2844
 Frc consts  --      2.0249                 3.7779                 0.5027
 IR Inten    --     11.6526                29.5996                 5.8385

                     16                     17                     18
                      A                      A                      A
 Frequencies --    854.2170               894.1200               940.8216
 Red. masses --      1.3878                 3.1822                 2.5625
 Frc consts  --      0.5966                 1.4989                 1.3364
 IR Inten    --     38.7279                 9.8464                 2.7624

                     19                     20                     21
                      A                      A                      A
 Frequencies --   1037.4035              1105.6132              1155.5730
 Red. masses --      1.1369                 3.7554                 2.0002
 Frc consts  --      0.7209                 2.7047                 1.5737
 IR Inten    --     62.2975                 8.7504                16.9481

                     22                     23                     24
                      A                      A                      A
 Frequencies --   1207.4030              1230.7358              1333.4715
 Red. masses --      1.2287                 1.6798                 1.6866
 Frc consts  --      1.0554                 1.4991                 1.7669
 IR Inten    --     57.7190                13.2434               259.4848

                     25                     26                     27
                      A                      A                      A
 Frequencies --   1375.2125              1443.7077              1457.4011
 Red. masses --      1.9280                 1.3929                 1.2628
 Frc consts  --      2.1483                 1.7105                 1.5804
 IR Inten    --    369.6274                46.1651                16.7381

                     28                     29                     30
                      A                      A                      A
 Frequencies --   1528.6410              1537.6831              1545.6809
 Red. masses --      1.0421                 1.0698                 1.0740
 Frc consts  --      1.4347                 1.4903                 1.5119
 IR Inten    --     14.0214                 4.7087                22.7838

                     31                     32                     33
                      A                      A                      A
 Frequencies --   1841.6755              1901.4875              3108.3552
 Red. masses --      9.5459                10.1681                 1.0351
 Frc consts  --     19.0763                21.6610                 5.8926
 IR Inten    --    204.8688               209.6301                12.1962

                     34                     35                     36
                      A                      A                      A
 Frequencies --   3138.7334              3188.4649              3191.8823
 Red. masses --      1.0602                 1.1006                 1.1024
 Frc consts  --      6.1540                 6.5921                 6.6173
 IR Inten    --     18.7391                12.3700                 6.0596

                     37                     38                     39
                      A                      A                      A
 Frequencies --   3212.7827              3322.8648              3826.3682
 Red. masses --      1.1053                 1.1084                 1.0676
 Frc consts  --      6.7221                 7.2108                 9.2094
 IR Inten    --     17.1511                 9.5106                29.0307

 - Thermochemistry -
 -------------------
 Temperature   298.150 Kelvin.  Pressure   1.00000 Atm.
 Atom     1 has atomic number  8 and mass  15.99491

 Molecular mass:   115.03952 amu.
 Principal axes and moments of inertia in atomic units:
                           1         2         3
     Eigenvalues --   309.595461894.939952051.55216
           X            0.99994  -0.00972  -0.00584
           Y            0.00982   0.99981   0.01703
           Z            0.00568  -0.01708   0.99984
 This molecule is an asymmetric top.
 Rotational symmetry number  1.
 Rotational temperatures (Kelvin)      0.27976     0.04571     0.04222
 Rotational constants (GHZ):           5.82935     0.95240     0.87970
    3 imaginary frequencies ignored.
 Zero-point vibrational energy     299155.8 (Joules/Mol)
                                   71.49995 (Kcal/Mol)
 Warning -- explicit consideration of   9 degrees of freedom as
           vibrations may cause significant error
 Vibrational temperatures:     74.41   108.70   237.48   259.07   395.42
          (Kelvin)            452.56   503.05   632.53   845.29   911.59
                             1075.44  1172.68  1229.03  1286.44  1353.63
                             1492.59  1590.73  1662.61  1737.18  1770.75
                             1918.57  1978.62  2077.17  2096.88  2199.37
                             2212.38  2223.89  2649.76  2735.82  4472.23
                             4515.94  4587.49  4592.41  4622.48  4780.86
                             5505.29

 Zero-point correction=                           0.113942 (Hartree/Particle)
 Thermal correction to Energy=                    0.121884
 Thermal correction to Enthalpy=                  0.122829
 Thermal correction to Gibbs Free Energy=         0.079742
 Sum of electronic and zero-point Energies=           -419.870960
 Sum of electronic and thermal Energies=              -419.863018
 Sum of electronic and thermal Enthalpies=            -419.862074
 Sum of electronic and thermal Free Energies=         -419.905161

                     E (Thermal)             CV                S
                      KCal/Mol        Cal/Mol-Kelvin    Cal/Mol-Kelvin
 Total                   76.484             26.786             90.684
 Electronic               0.000              0.000              1.377
 Translational            0.889              2.981             40.136
 Rotational               0.889              2.981             28.578
 Vibrational             74.706             20.824             20.593
 Vibration     1          0.596              1.977              4.751
 Vibration     2          0.599              1.965              4.003
 Vibration     3          0.623              1.885              2.491
 Vibration     4          0.629              1.867              2.328
 Vibration     5          0.677              1.720              1.566
 Vibration     6          0.702              1.646              1.338
 Vibration     7          0.727              1.576              1.168
 Vibration     8          0.800              1.384              0.828
 Vibration     9          0.945              1.058              0.472

 Normal termination of Gaussian 16 at Fri Jun 20 13:19:59 2025.
