 Gaussian 16, Revision A.03,
 Gaussian 16:  ES64L-G16RevA.03 25-Dec-2016

 -------------------
 # freq 6-31+g m062x
 -------------------

 -------------------
 Title Card Required
 -------------------
 Symbolic Z-matrix:
 Charge =  0 Multiplicity = 2

                         Standard orientation:
 ---------------------------------------------------------------------
 Center     Atomic      Atomic             Coordinates (Angstroms)
 Number     Number       Type             X           Y           Z
 ---------------------------------------------------------------------
      1          8           0        3.332912    0.768785    0.107423
      2          1           0        2.583117    1.353786   -0.091848
      3          6           0        2.426713   -0.943442    0.270293
      4          1           0        3.313282   -1.502694    0.482052
      5          6           0        1.231126   -0.747934    0.077244
      6          6           0       -0.011269   -0.045685   -0.206213
      7          8           0       -0.039448    1.140472   -0.406554
      8          8           0       -1.058445   -0.859325   -0.218187
      9          6           0       -2.341070   -0.246266   -0.477117
     10          6           0       -2.887077    0.417742    0.771042
     11          1           0       -2.966935   -1.075414   -0.801121
     12          1           0       -2.226535    0.466381   -1.294476
     13          1           0       -3.887405    0.805106    0.568886
     14          1           0       -2.954238   -0.302669    1.587470
     15          1           0       -2.251974    1.249549    1.076086
 ---------------------------------------------------------------------

 SCF Done:  E(UM062X) =  -419.958819774     A.U. after   23 cycles

 The electronic state is 2-A.
 Alpha  occ. eigenvalues --  -19.72115 -19.67955 -19.67125 -10.74463 -10.62660
 Alpha  occ. eigenvalues --  -10.62635 -10.60733 -10.55503  -1.29577  -1.20244
 Alpha  occ. eigenvalues --   -1.11659  -0.93013  -0.89373  -0.79914  -0.72798
 Alpha  occ. eigenvalues --   -0.66068  -0.62707  -0.59987  -0.58370  -0.55151
 Alpha  occ. eigenvalues --   -0.52216  -0.50812  -0.49176  -0.48069  -0.46331
 Alpha  occ. eigenvalues --   -0.43222  -0.41650  -0.40630  -0.39660  -0.37053
 Alpha  occ. eigenvalues --   -0.33043
 Alpha virt. eigenvalues --   -0.03009   0.01498   0.02841   0.03058   0.03432
 Alpha virt. eigenvalues --    0.04411   0.05327   0.06235   0.07031   0.07736
 Alpha virt. eigenvalues --    0.08100   0.08600   0.09145   0.10412   0.11755

  Beta  occ. eigenvalues --  -19.72097 -19.67880 -19.65839 -10.74500 -10.62759
  Beta  occ. eigenvalues --  -10.62657 -10.60350 -10.55503  -1.29481  -1.20084
  Beta  occ. eigenvalues --   -1.06895  -0.92090  -0.88907  -0.79759  -0.72482
  Beta  occ. eigenvalues --   -0.65988  -0.62339  -0.59798  -0.58145  -0.55027
  Beta  occ. eigenvalues --   -0.50644  -0.49844  -0.48001  -0.46373  -0.43134
  Beta  occ. eigenvalues --   -0.41464  -0.40371  -0.39643  -0.38490  -0.34913
  Beta virt. eigenvalues --   -0.09876  -0.03019   0.01441   0.02796   0.03053
  Beta virt. eigenvalues --    0.03905   0.04503   0.06016   0.06302   0.07317
  Beta virt. eigenvalues --    0.07684   0.08162   0.08759   0.09495   0.10481

 Mulliken charges and spin densities:
               1          2
     1  O   -0.507339   0.690058
     2  H    0.410733  -0.024177
     3  C   -0.251464  -0.247619
     4  H    0.290662   0.024385
     5  C   -0.033584   0.541262
     6  C    0.370619  -0.007618
     7  O   -0.406386   0.017570
     8  O   -0.217228   0.005233
     9  C   -0.222687  -0.000729
    10  C   -0.563706   0.001526
    11  H    0.224660   0.000043
    12  H    0.236849  -0.000008
    13  H    0.211335   0.000098
    14  H    0.222357   0.000011
    15  H    0.235180  -0.000036
 Sum of Mulliken charges =  -0.00000   1.00000

 Dipole moment (field-independent basis, Debye):
    X=             -3.3512    Y=             -1.4773    Z=              0.0439  Tot=              3.6627
 Quadrupole moment (field-independent basis, Debye-Ang):
   XX=            -47.2573   YY=            -49.3765   ZZ=            -47.9359
   XY=             -5.7581   XZ=              1.1379   YZ=             -0.1646

  Exact polarizability: 103.954   8.498  69.557   3.407  -2.787  46.576
 Approx polarizability: 105.636   7.073  83.495   6.330  -5.381  49.072

 ******    4 imaginary frequencies (negative Signs) ******

                      1                      2                      3
                      A                      A                      A
 Frequencies --   -752.9157              -377.4797               -83.6715
 Red. masses --     11.1555                 1.0802                 5.8685
 Frc consts  --      3.7259                 0.0907                 0.0242
 IR Inten    --     76.3086               146.5493                 0.7037

                      4                      5                      6
                      A                      A                      A
 Frequencies --    -54.0104                35.4994                83.4002
 Red. masses --      5.8332                 2.9715                 4.1124
 Frc consts  --      0.0100                 0.0022                 0.0169
 IR Inten    --      2.6054                 0.4574                10.7780

                      7                      8                      9
                      A                      A                      A
 Frequencies --    177.0207               227.7592               242.9963
 Red. masses --      1.3306                 3.9971                 3.7298
 Frc consts  --      0.0246                 0.1222                 0.1298
 IR Inten    --      4.4410                 6.6886                 4.1200

                     10                     11                     12
                      A                      A                      A
 Frequencies --    314.6025               420.6602               557.7049
 Red. masses --      3.1152                 3.8973                 4.4939
 Frc consts  --      0.1817                 0.4063                 0.8235
 IR Inten    --     20.0183                 2.8331                11.2932

                     13                     14                     15
                      A                      A                      A
 Frequencies --    620.9074               753.1148               755.7496
 Red. masses --      8.3104                 1.1557                 8.6422
 Frc consts  --      1.8877                 0.3862                 2.9082
 IR Inten    --      8.0518               217.7225                44.3727

                     16                     17                     18
                      A                      A                      A
 Frequencies --    800.6047               816.6031               888.9613
 Red. masses --      1.3521                 1.2553                 1.1117
 Frc consts  --      0.5106                 0.4932                 0.5176
 IR Inten    --     34.6274                12.0889                 5.6305

                     19                     20                     21
                      A                      A                      A
 Frequencies --    897.7293               948.0150              1109.8790
 Red. masses --      2.9915                 2.5816                 4.2267
 Frc consts  --      1.4205                 1.3670                 3.0676
 IR Inten    --     15.4505                 3.5987                 9.9164

                     22                     23                     24
                      A                      A                      A
 Frequencies --   1156.8247              1228.8118              1335.0950
 Red. masses --      2.0537                 1.7512                 1.5822
 Frc consts  --      1.6193                 1.5580                 1.6616
 IR Inten    --     21.5066                 2.3537               280.4230

                     25                     26                     27
                      A                      A                      A
 Frequencies --   1379.2688              1445.6107              1457.9027
 Red. masses --      2.0724                 1.4284                 1.2722
 Frc consts  --      2.3228                 1.7587                 1.5931
 IR Inten    --    459.9229                75.2208                17.1130

                     28                     29                     30
                      A                      A                      A
 Frequencies --   1528.6512              1537.8529              1545.7989
 Red. masses --      1.0421                 1.0704                 1.0754
 Frc consts  --      1.4348                 1.4915                 1.5141
 IR Inten    --     13.8888                 5.8777                25.0532

                     31                     32                     33
                      A                      A                      A
 Frequencies --   1878.8132              2110.0469              3108.6314
 Red. masses --     11.9559                 6.5070                 1.0351
 Frc consts  --     24.8656                17.0694                 5.8937
 IR Inten    --    193.3167               118.4823                11.9372

                     34                     35                     36
                      A                      A                      A
 Frequencies --   3140.1610              3189.1050              3192.6200
 Red. masses --      1.0602                 1.1002                 1.1027
 Frc consts  --      6.1595                 6.5928                 6.6220
 IR Inten    --     18.5240                13.5665                 4.4975

                     37                     38                     39
                      A                      A                      A
 Frequencies --   3213.7379              3464.8385              3796.1057
 Red. masses --      1.1055                 1.1430                 1.0679
 Frc consts  --      6.7274                 8.0844                 9.0669
 IR Inten    --     16.6813                55.7331                20.1866

 - Thermochemistry -
 -------------------
 Temperature   298.150 Kelvin.  Pressure   1.00000 Atm.
 Atom     1 has atomic number  8 and mass  15.99491

 Molecular mass:   115.03952 amu.
 Principal axes and moments of inertia in atomic units:
                           1         2         3
     Eigenvalues --   327.015561899.795722073.41562
           X            0.99993  -0.00989  -0.00585
           Y            0.00998   0.99983   0.01569
           Z            0.00569  -0.01574   0.99986
 This molecule is an asymmetric top.
 Rotational symmetry number  1.
 Rotational temperatures (Kelvin)      0.26486     0.04559     0.04177
 Rotational constants (GHZ):           5.51882     0.94997     0.87042
    4 imaginary frequencies ignored.
 Zero-point vibrational energy     295244.8 (Joules/Mol)
                                   70.56521 (Kcal/Mol)
 Warning -- explicit consideration of   8 degrees of freedom as
           vibrations may cause significant error
 Vibrational temperatures:     51.08   119.99   254.69   327.69   349.62
          (Kelvin)            452.64   605.24   802.41   893.35  1083.56
                             1087.36  1151.89  1174.91  1279.02  1291.63
                             1363.98  1596.87  1664.41  1767.99  1920.90
                             1984.46  2079.91  2097.60  2199.39  2212.63
                             2224.06  2703.19  3035.89  4472.63  4517.99
                             4588.41  4593.47  4623.85  4985.13  5461.75

 Zero-point correction=                           0.112453 (Hartree/Particle)
 Thermal correction to Energy=                    0.120152
 Thermal correction to Enthalpy=                  0.121096
 Thermal correction to Gibbs Free Energy=         0.078229
 Sum of electronic and zero-point Energies=           -419.846367
 Sum of electronic and thermal Energies=              -419.838668
 Sum of electronic and thermal Enthalpies=            -419.837724
 Sum of electronic and thermal Free Energies=         -419.880591

                     E (Thermal)             CV                S
                      KCal/Mol        Cal/Mol-Kelvin    Cal/Mol-Kelvin
 Total                   75.396             26.057             90.221
 Electronic               0.000              0.000              1.377
 Translational            0.889              2.981             40.136
 Rotational               0.889              2.981             28.645
 Vibrational             73.619             20.096             20.063
 Vibration     1          0.594              1.982              5.496
 Vibration     2          0.600              1.961              3.809
 Vibration     3          0.628              1.871              2.360
 Vibration     4          0.651              1.799              1.897
 Vibration     5          0.659              1.774              1.781
 Vibration     6          0.702              1.646              1.338
 Vibration     7          0.783              1.425              0.890
 Vibration     8          0.913              1.123              0.528

 Normal termination of Gaussian 16 at Fri Jun 20 13:14:36 2025.
