 Gaussian 16, Revision A.03,
 Gaussian 16:  ES64L-G16RevA.03 25-Dec-2016

 --------------------------
 # ccsd(t)/6-311++g(d,p) sp
 --------------------------

 -------------------
 Title Card Required
 -------------------
 Symbolic Z-matrix:
 Charge =  0 Multiplicity = 2

                         Standard orientation:
 ---------------------------------------------------------------------
 Center     Atomic      Atomic             Coordinates (Angstroms)
 Number     Number       Type             X           Y           Z
 ---------------------------------------------------------------------
      1          8           0        3.299484    0.713412    0.107372
      2          1           0        2.570168    1.317693   -0.097861
      3          6           0        2.482047   -0.817888    0.265055
      4          1           0        3.271277   -1.514864    0.492905
      5          6           0        1.225843   -0.762088    0.085815
      6          6           0       -0.008371   -0.046481   -0.205634
      7          8           0       -0.041979    1.138065   -0.416746
      8          8           0       -1.055350   -0.863729   -0.210424
      9          6           0       -2.339906   -0.257787   -0.474370
     10          6           0       -2.887892    0.415433    0.767999
     11          1           0       -2.963257   -1.091786   -0.790872
     12          1           0       -2.228331    0.448057   -1.298093
     13          1           0       -3.889592    0.797683    0.562860
     14          1           0       -2.952361   -0.297936    1.590825
     15          1           0       -2.255458    1.252032    1.065440
 ---------------------------------------------------------------------

 SCF Done:  E(UHF) =  -417.992407528     A.U. after   30 cycles
 E2 =    -0.1257993767D+01 EUMP2 =    -0.41925040129451D+03
 CCSD(T)= -0.41937318271D+03

 The electronic state is 2-A.
 Alpha  occ. eigenvalues --  -20.62362 -20.59563 -20.57564 -11.42046 -11.30631
 Alpha  occ. eigenvalues --  -11.30559 -11.28633 -11.23287  -1.49480  -1.39759
 Alpha  occ. eigenvalues --   -1.34702  -1.10664  -1.04915  -0.92957  -0.84984
 Alpha  occ. eigenvalues --   -0.77784  -0.73146  -0.71348  -0.67868  -0.64358
 Alpha  occ. eigenvalues --   -0.63137  -0.61658  -0.59599  -0.56644  -0.54922
 Alpha  occ. eigenvalues --   -0.52720  -0.51837  -0.50551  -0.48463  -0.43680
 Alpha  occ. eigenvalues --   -0.42610
 Alpha virt. eigenvalues --    0.03816   0.04794   0.05519   0.06242   0.07157
 Alpha virt. eigenvalues --    0.08446   0.08857   0.09352   0.10958   0.12148
 Alpha virt. eigenvalues --    0.12646   0.13734   0.14431   0.14930   0.16580

  Beta  occ. eigenvalues --  -20.62344 -20.57248 -20.56865 -11.42492 -11.32945
  Beta  occ. eigenvalues --  -11.30557 -11.25369 -11.23285  -1.49087  -1.38579
  Beta  occ. eigenvalues --   -1.27408  -1.06990  -1.04458  -0.93510  -0.84522
  Beta  occ. eigenvalues --   -0.77498  -0.72770  -0.70270  -0.67170  -0.63791
  Beta  occ. eigenvalues --   -0.61381  -0.58993  -0.55485  -0.54775  -0.52276
  Beta  occ. eigenvalues --   -0.51280  -0.49681  -0.47651  -0.46796  -0.41644
  Beta virt. eigenvalues --    0.03814   0.04736   0.05164   0.05526   0.06666
  Beta virt. eigenvalues --    0.07239   0.08040   0.08888   0.09645   0.11692
  Beta virt. eigenvalues --    0.12705   0.12846   0.13693   0.14275   0.14731

 Mulliken charges and spin densities:
               1          2
     1  O   -0.296966   0.552026
     2  H    0.267365  -0.022375
     3  C   -1.296886  -1.055170
     4  H    0.215924   0.086359
     5  C    1.555296   1.499180
     6  C   -0.334185  -0.191836
     7  O   -0.328144   0.128960
     8  O   -0.065773   0.003839
     9  C   -0.159341  -0.005871
    10  C   -0.364024   0.003936
    11  H    0.169322   0.000550
    12  H    0.183694   0.000300
    13  H    0.133532   0.000250
    14  H    0.147240  -0.000033
    15  H    0.172945  -0.000115
 Sum of Mulliken charges =  -0.00000   1.00000

 Dipole moment (field-independent basis, Debye):
    X=             -2.8753    Y=             -1.7464    Z=              0.1283  Tot=              3.3666
 Quadrupole moment (field-independent basis, Debye-Ang):
   XX=            -46.6856   YY=            -48.8156   ZZ=            -47.5867
   XY=             -5.2591   XZ=              1.2338   YZ=             -0.1149

 =-419.3003482\MP4SDQ=-419.3090475\CCSD=-419.3179463\CCSD(T)=-419.37318
 Normal termination of Gaussian 16 at Sun Aug 24 12:44:14 2025.
