 Gaussian 16, Revision A.03,
 Gaussian 16:  ES64L-G16RevA.03 25-Dec-2016

 --------------------------
 # freq 6-311++g(d,p) m062x
 --------------------------

 -------------------
 Title Card Required
 -------------------
 Symbolic Z-matrix:
 Charge =  0 Multiplicity = 2

                         Standard orientation:
 ---------------------------------------------------------------------
 Center     Atomic      Atomic             Coordinates (Angstroms)
 Number     Number       Type             X           Y           Z
 ---------------------------------------------------------------------
      1          8           0        3.364209    0.816750    0.108394
      2          1           0        2.592488    1.377188   -0.085309
      3          6           0        2.381807   -1.048263    0.273018
      4          1           0        3.325933   -1.500998    0.471083
      5          6           0        1.230547   -0.745849    0.071106
      6          6           0       -0.011390   -0.044104   -0.206554
      7          8           0       -0.036999    1.144080   -0.398117
      8          8           0       -1.061513   -0.854159   -0.224997
      9          6           0       -2.341591   -0.234966   -0.479488
     10          6           0       -2.886049    0.421343    0.773520
     11          1           0       -2.970390   -1.059379   -0.809992
     12          1           0       -2.224712    0.483760   -1.291198
     13          1           0       -3.885019    0.813682    0.574134
     14          1           0       -2.955771   -0.305090    1.584389
     15          1           0       -2.248043    1.248506    1.085042
 ---------------------------------------------------------------------

 SCF Done:  E(UM062X) =  -420.206529855     A.U. after   24 cycles

 The electronic state is 2-A.
 Alpha  occ. eigenvalues --  -19.69455 -19.65638 -19.64375 -10.71764 -10.61447
 Alpha  occ. eigenvalues --  -10.58985 -10.57763 -10.54501  -1.26849  -1.17542
 Alpha  occ. eigenvalues --   -1.11562  -0.91522  -0.88132  -0.78989  -0.71610
 Alpha  occ. eigenvalues --   -0.65567  -0.62119  -0.59641  -0.57569  -0.54439
 Alpha  occ. eigenvalues --   -0.53369  -0.50304  -0.49339  -0.47631  -0.46106
 Alpha  occ. eigenvalues --   -0.42930  -0.41768  -0.40316  -0.39552  -0.37391
 Alpha  occ. eigenvalues --   -0.34337
 Alpha virt. eigenvalues --   -0.02376  -0.00446   0.00852   0.01443   0.01911
 Alpha virt. eigenvalues --    0.02600   0.03967   0.05055   0.05339   0.06075
 Alpha virt. eigenvalues --    0.06611   0.07343   0.08062   0.08865   0.10087

  Beta  occ. eigenvalues --  -19.69445 -19.64344 -19.64149 -10.71780 -10.61445
  Beta  occ. eigenvalues --  -10.59022 -10.57579 -10.54501  -1.26806  -1.17457
  Beta  occ. eigenvalues --   -1.04783  -0.91074  -0.87760  -0.78902  -0.71456
  Beta  occ. eigenvalues --   -0.65509  -0.61785  -0.59533  -0.57471  -0.54363
  Beta  occ. eigenvalues --   -0.50572  -0.50210  -0.47570  -0.46148  -0.42902
  Beta  occ. eigenvalues --   -0.40898  -0.39769  -0.39436  -0.37465  -0.35889
  Beta virt. eigenvalues --   -0.08471  -0.02334  -0.00419   0.01032   0.01440
  Beta virt. eigenvalues --    0.02054   0.02779   0.04237   0.05223   0.05760
  Beta virt. eigenvalues --    0.06579   0.06700   0.07381   0.08282   0.09029

 Mulliken charges and spin densities:
               1          2
     1  O   -0.279827   0.856278
     2  H    0.254768  -0.016973
     3  C   -2.104596  -0.024397
     4  H    0.193753   0.017047
     5  C    2.095755   0.184765
     6  C   -0.191664  -0.028523
     7  O   -0.257531   0.008443
     8  O    0.035134   0.002595
     9  C   -0.262999  -0.000430
    10  C   -0.402727   0.001004
    11  H    0.200751   0.000029
    12  H    0.198975   0.000233
    13  H    0.167865   0.000036
    14  H    0.168114  -0.000031
    15  H    0.184229  -0.000076
 Sum of Mulliken charges =  -0.00000   1.00000

 Dipole moment (field-independent basis, Debye):
    X=             -2.8139    Y=             -1.2540    Z=              0.0705  Tot=              3.0815
 Quadrupole moment (field-independent basis, Debye-Ang):
   XX=            -44.1889   YY=            -48.5098   ZZ=            -47.7331
   XY=             -4.5425   XZ=              1.1928   YZ=             -0.1765

  Exact polarizability: 102.840   2.827  69.037   3.169  -2.149  50.545
 Approx polarizability: 105.785  -0.763  84.446   6.325  -4.600  58.392

 ******    3 imaginary frequencies (negative Signs) ******

                      1                      2                      3
                      A                      A                      A
 Frequencies --   -272.8757               -55.2349               -22.2224
 Red. masses --     12.7046                 6.3528                 6.7659
 Frc consts  --      0.5574                 0.0114                 0.0020
 IR Inten    --     24.2209                 1.2460                 0.6366

                      4                      5                      6
                      A                      A                      A
 Frequencies --     77.7557               117.4315               192.0358
 Red. masses --      3.9034                 3.3083                 2.5543
 Frc consts  --      0.0139                 0.0269                 0.0555
 IR Inten    --      2.9626                 1.4172                 5.5476

                      7                      8                      9
                      A                      A                      A
 Frequencies --    237.2827               266.8096               284.5501
 Red. masses --      1.5729                 4.0523                 1.0571
 Frc consts  --      0.0522                 0.1700                 0.0504
 IR Inten    --      2.8769                 1.9673               112.5157

                     10                     11                     12
                      A                      A                      A
 Frequencies --    340.0683               424.2556               556.1230
 Red. masses --      3.0009                 4.0804                 4.5411
 Frc consts  --      0.2045                 0.4327                 0.8275
 IR Inten    --     14.5315                 1.5781                 5.2477

                     13                     14                     15
                      A                      A                      A
 Frequencies --    626.4751               730.3969               777.2993
 Red. masses --      8.2034                 1.0644                 2.7376
 Frc consts  --      1.8969                 0.3346                 0.9745
 IR Inten    --     10.2012               185.4486                 0.1431

                     16                     17                     18
                      A                      A                      A
 Frequencies --    785.2853               794.9207               801.5626
 Red. masses --      1.9414                 1.0871                 1.2171
 Frc consts  --      0.7054                 0.4047                 0.4607
 IR Inten    --     60.5928                49.3560                 5.3947

                     19                     20                     21
                      A                      A                      A
 Frequencies --    895.8538               932.4565              1075.1857
 Red. masses --      3.0562                 2.9632                 4.1493
 Frc consts  --      1.4451                 1.5180                 2.8261
 IR Inten    --     11.4054                 3.9887                24.7295

                     22                     23                     24
                      A                      A                      A
 Frequencies --   1128.1163              1204.2595              1306.1425
 Red. masses --      2.0755                 1.7690                 2.8245
 Frc consts  --      1.5563                 1.5115                 2.8390
 IR Inten    --     23.3237                 2.9290               602.3991

                     25                     26                     27
                      A                      A                      A
 Frequencies --   1350.8271              1403.5085              1432.4956
 Red. masses --      1.3378                 1.3077                 1.4071
 Frc consts  --      1.4382                 1.5177                 1.7012
 IR Inten    --    191.9215                51.7023                17.4490

                     28                     29                     30
                      A                      A                      A
 Frequencies --   1492.8861              1503.3708              1515.5257
 Red. masses --      1.0413                 1.0624                 1.0875
 Frc consts  --      1.3674                 1.4148                 1.4716
 IR Inten    --      9.8377                 3.4261                21.2163

                     31                     32                     33
                      A                      A                      A
 Frequencies --   1815.1761              2194.2991              3075.9705
 Red. masses --     11.8010                 6.0568                 1.0354
 Frc consts  --     22.9091                17.1824                 5.7721
 IR Inten    --    250.9442                87.8805                 9.3502

                     34                     35                     36
                      A                      A                      A
 Frequencies --   3109.3891              3151.4489              3156.0645
 Red. masses --      1.0608                 1.1013                 1.1049
 Frc consts  --      6.0425                 6.4445                 6.4846
 IR Inten    --     17.2199                14.1594                 1.4134

                     37                     38                     39
                      A                      A                      A
 Frequencies --   3177.0126              3475.1886              3762.7808
 Red. masses --      1.1076                 1.1592                 1.0678
 Frc consts  --      6.5867                 8.2481                 8.9072
 IR Inten    --     14.1659                75.4179                28.3653

 - Thermochemistry -
 -------------------
 Temperature   298.150 Kelvin.  Pressure   1.00000 Atm.
 Atom     1 has atomic number  8 and mass  15.99491

 Molecular mass:   115.03952 amu.
 Principal axes and moments of inertia in atomic units:
                           1         2         3
     Eigenvalues --   340.336351903.229822089.92307
           X            0.99993  -0.01005  -0.00588
           Y            0.01014   0.99984   0.01492
           Z            0.00573  -0.01498   0.99987
 This molecule is an asymmetric top.
 Rotational symmetry number  1.
 Rotational temperatures (Kelvin)      0.25450     0.04551     0.04144
 Rotational constants (GHZ):           5.30282     0.94825     0.86354
    3 imaginary frequencies ignored.
 Zero-point vibrational energy     294103.2 (Joules/Mol)
                                   70.29234 (Kcal/Mol)
 Warning -- explicit consideration of   9 degrees of freedom as
           vibrations may cause significant error
 Vibrational temperatures:    111.87   168.96   276.30   341.40   383.88
          (Kelvin)            409.40   489.28   610.41   800.14   901.36
                             1050.88  1118.36  1129.85  1143.71  1153.27
                             1288.93  1341.60  1546.95  1623.11  1732.66
                             1879.25  1943.54  2019.34  2061.04  2147.93
                             2163.02  2180.50  2611.63  3157.11  4425.64
                             4473.72  4534.23  4540.87  4571.01  5000.02
                             5413.80

 Zero-point correction=                           0.112018 (Hartree/Particle)
 Thermal correction to Energy=                    0.119948
 Thermal correction to Enthalpy=                  0.120892
 Thermal correction to Gibbs Free Energy=         0.078527
 Sum of electronic and zero-point Energies=           -420.094512
 Sum of electronic and thermal Energies=              -420.086582
 Sum of electronic and thermal Enthalpies=            -420.085638
 Sum of electronic and thermal Free Energies=         -420.128003

                     E (Thermal)             CV                S
                      KCal/Mol        Cal/Mol-Kelvin    Cal/Mol-Kelvin
 Total                   75.268             27.935             89.164
 Electronic               0.000              0.000              1.377
 Translational            0.889              2.981             40.136
 Rotational               0.889              2.981             28.694
 Vibrational             73.491             21.974             18.957
 Vibration     1          0.599              1.964              3.947
 Vibration     2          0.608              1.935              3.142
 Vibration     3          0.634              1.851              2.208
 Vibration     4          0.656              1.784              1.823
 Vibration     5          0.672              1.734              1.617
 Vibration     6          0.683              1.702              1.506
 Vibration     7          0.720              1.595              1.212
 Vibration     8          0.786              1.417              0.878
 Vibration     9          0.912              1.126              0.532

 1\1\GINC-AJ\Freq\UM062X\6-311++G(d,p)\C5H7O3(2)\AAYUSH\23-Jun-2025\0\\
 # freq 6-311++g(d,p) m062x\\Title Card Required\\0,2\O,3.364209,0.8167
 5,0.108394\H,2.592488,1.377188,-0.085309\C,2.381807,-1.048263,0.273018
 \H,3.325933,-1.500998,0.471083\C,1.230547,-0.745849,0.071106\C,-0.0113
 9,-0.044104,-0.206554\O,-0.036999,1.14408,-0.398117\O,-1.061513,-0.854
 159,-0.224997\C,-2.341591,-0.234966,-0.479488\C,-2.886049,0.421343,0.7
 7352\H,-2.97039,-1.059379,-0.809992\H,-2.224712,0.48376,-1.291198\H,-3
 .885019,0.813682,0.574134\H,-2.955771,-0.30509,1.584389\H,-2.248043,1.

 Normal termination of Gaussian 16 at Mon Jun 23 02:50:13 2025.
