 Gaussian 16, Revision A.03,
 Gaussian 16:  ES64L-G16RevA.03 25-Dec-2016

 --------------------------
 # freq 6-311++g(d,p) m062x
 --------------------------

 -------------------
 Title Card Required
 -------------------
 Symbolic Z-matrix:
 Charge =  0 Multiplicity = 2

                         Standard orientation:
 ---------------------------------------------------------------------
 Center     Atomic      Atomic             Coordinates (Angstroms)
 Number     Number       Type             X           Y           Z
 ---------------------------------------------------------------------
      1          8           0        3.351098    0.796937    0.107886
      2          1           0        2.589683    1.369509   -0.088207
      3          6           0        2.399220   -1.006578    0.272165
      4          1           0        3.324511   -1.496502    0.475392
      5          6           0        1.231610   -0.745503    0.073553
      6          6           0       -0.011413   -0.044945   -0.206393
      7          8           0       -0.038037    1.142419   -0.401570
      8          8           0       -1.060275   -0.856441   -0.222176
      9          6           0       -2.341409   -0.239723   -0.478513
     10          6           0       -2.886514    0.419818    0.772475
     11          1           0       -2.969011   -1.066113   -0.806286
     12          1           0       -2.225491    0.476454   -1.292596
     13          1           0       -3.886052    0.810081    0.571902
     14          1           0       -2.955173   -0.304092    1.585680
     15          1           0       -2.249714    1.248932    1.081273
 ---------------------------------------------------------------------

 SCF Done:  E(UM062X) =  -420.205427396     A.U. after   24 cycles

 The electronic state is 2-A.
 Alpha  occ. eigenvalues --  -19.69539 -19.65147 -19.64477 -10.71858 -10.61509
 Alpha  occ. eigenvalues --  -10.59644 -10.58159 -10.54548  -1.26945  -1.17650
 Alpha  occ. eigenvalues --   -1.11122  -0.91726  -0.88297  -0.79098  -0.71753
 Alpha  occ. eigenvalues --   -0.65669  -0.62229  -0.59734  -0.57670  -0.54499
 Alpha  occ. eigenvalues --   -0.52903  -0.50391  -0.49275  -0.47707  -0.46151
 Alpha  occ. eigenvalues --   -0.42998  -0.41606  -0.40395  -0.39630  -0.37269
 Alpha  occ. eigenvalues --   -0.33783
 Alpha virt. eigenvalues --   -0.02505  -0.00472   0.00847   0.01415   0.01899
 Alpha virt. eigenvalues --    0.02537   0.03947   0.05025   0.05321   0.06115
 Alpha virt. eigenvalues --    0.06614   0.07310   0.08024   0.08842   0.09998

  Beta  occ. eigenvalues --  -19.69526 -19.64432 -19.63727 -10.71880 -10.61507
  Beta  occ. eigenvalues --  -10.59705 -10.57919 -10.54548  -1.26887  -1.17533
  Beta  occ. eigenvalues --   -1.04990  -0.91128  -0.87847  -0.78992  -0.71555
  Beta  occ. eigenvalues --   -0.65597  -0.61862  -0.59588  -0.57538  -0.54403
  Beta  occ. eigenvalues --   -0.50281  -0.50267  -0.47628  -0.46195  -0.42961
  Beta  occ. eigenvalues --   -0.41058  -0.39894  -0.39541  -0.37676  -0.35495
  Beta virt. eigenvalues --   -0.08993  -0.02460  -0.00452   0.01024   0.01409
  Beta virt. eigenvalues --    0.02035   0.02755   0.04234   0.05215   0.05731
  Beta virt. eigenvalues --    0.06610   0.06816   0.07389   0.08283   0.08991

 Mulliken charges and spin densities:
               1          2
     1  O   -0.285960   0.802243
     2  H    0.253206  -0.016378
     3  C   -1.928614  -0.065918
     4  H    0.198053   0.020727
     5  C    1.968113   0.270358
     6  C   -0.234052  -0.026867
     7  O   -0.256525   0.012340
     8  O    0.033016   0.002927
     9  C   -0.264303  -0.000934
    10  C   -0.403430   0.001235
    11  H    0.200635   0.000050
    12  H    0.199574   0.000279
    13  H    0.167595   0.000068
    14  H    0.168365  -0.000021
    15  H    0.184328  -0.000109
 Sum of Mulliken charges =  -0.00000   1.00000

 Dipole moment (field-independent basis, Debye):
    X=             -2.9498    Y=             -1.3899    Z=              0.0798  Tot=              3.2618
 Quadrupole moment (field-independent basis, Debye-Ang):
   XX=            -44.7565   YY=            -48.4820   ZZ=            -47.7182
   XY=             -4.8967   XZ=              1.2093   YZ=             -0.1953

  Exact polarizability: 105.965   5.698  70.925   3.076  -2.176  50.550
 Approx polarizability: 108.075   2.071  86.050   6.173  -4.553  58.463

 ******    2 imaginary frequencies (negative Signs) ******

                      1                      2                      3
                      A                      A                      A
 Frequencies --   -502.9544               -30.3427                38.4269
 Red. masses --     12.2994                 6.6373                 6.6910
 Frc consts  --      1.8331                 0.0036                 0.0058
 IR Inten    --     69.5464                 0.8491                 0.1525

                      4                      5                      6
                      A                      A                      A
 Frequencies --     81.1587               118.1698               199.2007
 Red. masses --      3.6440                 3.3397                 2.2004
 Frc consts  --      0.0141                 0.0275                 0.0514
 IR Inten    --      3.2616                 1.3583                 5.4999

                      7                      8                      9
                      A                      A                      A
 Frequencies --    240.2350               268.1043               285.8496
 Red. masses --      1.7720                 3.8228                 1.0673
 Frc consts  --      0.0603                 0.1619                 0.0514
 IR Inten    --      3.3156                 0.4111               112.4029

                     10                     11                     12
                      A                      A                      A
 Frequencies --    340.3252               424.9535               555.2036
 Red. masses --      3.0250                 4.0686                 4.5668
 Frc consts  --      0.2064                 0.4329                 0.8294
 IR Inten    --     14.1781                 1.6154                 6.0170

                     13                     14                     15
                      A                      A                      A
 Frequencies --    624.0870               773.3677               781.2733
 Red. masses --      8.5448                 1.9488                 1.1624
 Frc consts  --      1.9608                 0.6867                 0.4180
 IR Inten    --     11.8369                 2.6314               200.3064

                     16                     17                     18
                      A                      A                      A
 Frequencies --    782.9253               801.5136               820.1807
 Red. masses --      2.4812                 1.2080                 1.0551
 Frc consts  --      0.8961                 0.4572                 0.4182
 IR Inten    --     78.3197                12.5687                 2.8633

                     19                     20                     21
                      A                      A                      A
 Frequencies --    895.3015               932.0081              1074.4941
 Red. masses --      3.0508                 2.9477                 4.1354
 Frc consts  --      1.4408                 1.5086                 2.8131
 IR Inten    --     11.3513                 3.6908                24.6449

                     22                     23                     24
                      A                      A                      A
 Frequencies --   1127.9976              1204.1537              1304.7946
 Red. masses --      2.0739                 1.7686                 2.8897
 Frc consts  --      1.5548                 1.5109                 2.8986
 IR Inten    --     23.3142                 2.9116               630.4382

                     25                     26                     27
                      A                      A                      A
 Frequencies --   1350.5772              1403.4392              1432.4086
 Red. masses --      1.3284                 1.3051                 1.4039
 Frc consts  --      1.4276                 1.5146                 1.6972
 IR Inten    --    190.7733                51.2007                17.3949

                     28                     29                     30
                      A                      A                      A
 Frequencies --   1492.9266              1503.3113              1515.4382
 Red. masses --      1.0413                 1.0623                 1.0872
 Frc consts  --      1.3674                 1.4144                 1.4711
 IR Inten    --      9.7185                 3.4924                21.0998

                     31                     32                     33
                      A                      A                      A
 Frequencies --   1814.2014              2149.3139              3076.0949
 Red. masses --     11.7719                 6.2382                 1.0354
 Frc consts  --     22.8281                16.9789                 5.7726
 IR Inten    --    232.3660                96.7231                 9.2903

                     34                     35                     36
                      A                      A                      A
 Frequencies --   3109.5622              3151.6275              3156.1992
 Red. masses --      1.0608                 1.1013                 1.1049
 Frc consts  --      6.0433                 6.4452                 6.4851
 IR Inten    --     17.2190                14.1286                 1.3690

                     37                     38                     39
                      A                      A                      A
 Frequencies --   3177.2062              3461.5800              3769.6435
 Red. masses --      1.1076                 1.1523                 1.0678
 Frc consts  --      6.5876                 8.1353                 8.9404
 IR Inten    --     14.1474                73.9158                31.4211

 - Thermochemistry -
 -------------------
 Temperature   298.150 Kelvin.  Pressure   1.00000 Atm.
 Atom     1 has atomic number  8 and mass  15.99491

 Molecular mass:   115.03952 amu.
 Principal axes and moments of inertia in atomic units:
                           1         2         3
     Eigenvalues --   334.702171901.693302082.85977
           X            0.99993  -0.00994  -0.00586
           Y            0.01003   0.99983   0.01528
           Z            0.00571  -0.01534   0.99987
 This molecule is an asymmetric top.
 Rotational symmetry number  1.
 Rotational temperatures (Kelvin)      0.25878     0.04555     0.04158
 Rotational constants (GHZ):           5.39208     0.94902     0.86647
    2 imaginary frequencies ignored.
 Zero-point vibrational energy     294504.2 (Joules/Mol)
                                   70.38819 (Kcal/Mol)
 Warning -- explicit consideration of  10 degrees of freedom as
           vibrations may cause significant error
 Vibrational temperatures:     55.29   116.77   170.02   286.61   345.64
          (Kelvin)            385.74   411.27   489.65   611.41   798.81
                              897.92  1112.70  1124.08  1126.45  1153.20
                             1180.06  1288.14  1340.95  1545.96  1622.94
                             1732.51  1877.31  1943.18  2019.24  2060.92
                             2147.99  2162.93  2180.38  2610.23  3092.38
                             4425.81  4473.97  4534.49  4541.07  4571.29
                             4980.44  5423.68

 Zero-point correction=                           0.112171 (Hartree/Particle)
 Thermal correction to Energy=                    0.120912
 Thermal correction to Enthalpy=                  0.121856
 Thermal correction to Gibbs Free Energy=         0.077089
 Sum of electronic and zero-point Energies=           -420.093257
 Sum of electronic and thermal Energies=              -420.084516
 Sum of electronic and thermal Enthalpies=            -420.083571
 Sum of electronic and thermal Free Energies=         -420.128338

                     E (Thermal)             CV                S
                      KCal/Mol        Cal/Mol-Kelvin    Cal/Mol-Kelvin
 Total                   75.873             29.784             94.220
 Electronic               0.000              0.000              1.377
 Translational            0.889              2.981             40.136
 Rotational               0.889              2.981             28.674
 Vibrational             74.096             23.822             24.033
 Vibration     1          0.594              1.982              5.339
 Vibration     2          0.600              1.962              3.863
 Vibration     3          0.608              1.934              3.130
 Vibration     4          0.637              1.841              2.140
 Vibration     5          0.657              1.779              1.801
 Vibration     6          0.673              1.732              1.608
 Vibration     7          0.684              1.700              1.498
 Vibration     8          0.720              1.595              1.211
 Vibration     9          0.787              1.416              0.875
 Vibration    10          0.911              1.128              0.533

 1\1\GINC-AJ\Freq\UM062X\6-311++G(d,p)\C5H7O3(2)\AAYUSH\16-Aug-2025\0\\
 # freq 6-311++g(d,p) m062x\\Title Card Required\\0,2\O,3.278447,0.8083
 86,0.119652\H,2.516626,1.380137,-0.077259\C,2.327824,-0.995538,0.28668
 6\H,3.253464,-1.484517,0.490598\C,1.160024,-0.735568,0.087744\C,-0.083
 498,-0.03629,-0.193186\O,-0.110953,1.150761,-0.390142\O,-1.131799,-0.8
 48534,-0.207697\C,-2.413373,-0.233086,-0.46489\C,-2.958868,0.427953,0.
 785136\H,-3.04042,-1.060401,-0.791391\H,-2.297992,0.481949,-1.280053\H
 ,-3.958686,0.817224,0.584031\H,-3.026985,-0.294784,1.599429\H,-2.32262

 Normal termination of Gaussian 16 at Sat Aug 16 17:29:53 2025.
