 Gaussian 16, Revision A.03,
 Gaussian 16:  ES64L-G16RevA.03 25-Dec-2016

 -------------------
 # freq 6-31+g m062x
 -------------------

 -------------------
 Title Card Required
 -------------------
 Symbolic Z-matrix:
 Charge =  0 Multiplicity = 2

                         Standard orientation:
 ---------------------------------------------------------------------
 Center     Atomic      Atomic             Coordinates (Angstroms)
 Number     Number       Type             X           Y           Z
 ---------------------------------------------------------------------
      1          8           0        3.370993    0.827005    0.108697
      2          1           0        2.593641    1.380419   -0.083754
      3          6           0        2.373389   -1.068856    0.273305
      4          1           0        3.324634   -1.506694    0.469133
      5          6           0        1.229681   -0.746658    0.069895
      6          6           0       -0.011385   -0.043579   -0.206653
      7          8           0       -0.036409    1.144992   -0.396339
      8          8           0       -1.062129   -0.852905   -0.226454
      9          6           0       -2.341693   -0.232474   -0.479985
     10          6           0       -2.885793    0.422161    0.774064
     11          1           0       -2.971066   -1.055899   -0.811876
     12          1           0       -2.224327    0.487537   -1.290491
     13          1           0       -3.884474    0.815552    0.575290
     14          1           0       -2.956052   -0.305559    1.583734
     15          1           0       -2.247188    1.248338    1.086973
 ---------------------------------------------------------------------

 SCF Done:  E(UM062X) =  -419.961088996     A.U. after   23 cycles

 The electronic state is 2-A.
 Alpha  occ. eigenvalues --  -19.71850 -19.68540 -19.67596 -10.74142 -10.62463
 Alpha  occ. eigenvalues --  -10.60368 -10.59440 -10.55352  -1.29239  -1.19874
 Alpha  occ. eigenvalues --   -1.12957  -0.92259  -0.88877  -0.79537  -0.72271
 Alpha  occ. eigenvalues --   -0.65746  -0.62342  -0.59676  -0.58023  -0.54948
 Alpha  occ. eigenvalues --   -0.53313  -0.50534  -0.49402  -0.47855  -0.46175
 Alpha  occ. eigenvalues --   -0.42987  -0.41888  -0.40319  -0.39388  -0.37703
 Alpha  occ. eigenvalues --   -0.34937
 Alpha virt. eigenvalues --   -0.02540   0.01614   0.02893   0.03128   0.03654
 Alpha virt. eigenvalues --    0.04428   0.05427   0.06331   0.06970   0.07869
 Alpha virt. eigenvalues --    0.08391   0.08612   0.09077   0.10846   0.11793

  Beta  occ. eigenvalues --  -19.71841 -19.67570 -19.66963 -10.74159 -10.62461
  Beta  occ. eigenvalues --  -10.60403 -10.59268 -10.55352  -1.29201  -1.19811
  Beta  occ. eigenvalues --   -1.06165  -0.91869  -0.88591  -0.79453  -0.72118
  Beta  occ. eigenvalues --   -0.65705  -0.62040  -0.59597  -0.57930  -0.54887
  Beta  occ. eigenvalues --   -0.50456  -0.50313  -0.47819  -0.46218  -0.42948
  Beta  occ. eigenvalues --   -0.40888  -0.39745  -0.39352  -0.37842  -0.36140
  Beta virt. eigenvalues --   -0.08503  -0.02528   0.01624   0.02985   0.03169
  Beta virt. eigenvalues --    0.03867   0.04554   0.05770   0.06435   0.07239
  Beta virt. eigenvalues --    0.07916   0.08478   0.08692   0.09269   0.10810

 Mulliken charges and spin densities:
               1          2
     1  O   -0.464483   0.889894
     2  H    0.415797  -0.031427
     3  C   -0.315238  -0.123901
     4  H    0.333831   0.010462
     5  C   -0.034977   0.259050
     6  C    0.334233  -0.013818
     7  O   -0.400022   0.006247
     8  O   -0.213709   0.003001
     9  C   -0.223109  -0.000114
    10  C   -0.560331   0.000545
    11  H    0.223673   0.000021
    12  H    0.236146  -0.000022
    13  H    0.210765   0.000053
    14  H    0.222200   0.000007
    15  H    0.235224   0.000001
 Sum of Mulliken charges =  -0.00000   1.00000

 Dipole moment (field-independent basis, Debye):
    X=             -2.9159    Y=             -1.0403    Z=              0.0167  Tot=              3.0960
 Quadrupole moment (field-independent basis, Debye-Ang):
   XX=            -45.3269   YY=            -49.3780   ZZ=            -47.9486
   XY=             -4.5445   XZ=              1.0809   YZ=             -0.1078

  Exact polarizability:  97.056   2.043  65.286   3.669  -2.692  46.392
 Approx polarizability:  99.165  -1.526  78.264   6.897  -5.436  48.742

 ******    5 imaginary frequencies (negative Signs) ******

                      1                      2                      3
                      A                      A                      A
 Frequencies --   -391.6261              -145.0279               -94.4355
 Red. masses --      1.0890                 7.0599                 6.6387
 Frc consts  --      0.0984                 0.0875                 0.0349
 IR Inten    --    156.9267                 0.5089                 0.9866

                      4                      5                      6
                      A                      A                      A
 Frequencies --    -84.9207               -29.2231                40.3939
 Red. masses --      7.0738                 3.3173                 3.1772
 Frc consts  --      0.0301                 0.0017                 0.0031
 IR Inten    --      3.7056                 7.3131                 3.5093

                      7                      8                      9
                      A                      A                      A
 Frequencies --    158.8788               194.6020               239.1372
 Red. masses --      2.7609                 1.6184                 4.1033
 Frc consts  --      0.0411                 0.0361                 0.1383
 IR Inten    --      7.2682                 3.5981                 1.6511

                     10                     11                     12
                      A                      A                      A
 Frequencies --    311.1039               419.0894               524.7942
 Red. masses --      2.9590                 3.9704                 1.1081
 Frc consts  --      0.1687                 0.4109                 0.1798
 IR Inten    --     23.5397                 2.7849               203.0949

                     13                     14                     15
                      A                      A                      A
 Frequencies --    564.3289               637.1574               767.5271
 Red. masses --      4.3230                 7.8313                 4.9489
 Frc consts  --      0.8112                 1.8732                 1.7177
 IR Inten    --      0.4510                21.7675                58.1900

                     16                     17                     18
                      A                      A                      A
 Frequencies --    786.8785               816.7052               831.9746
 Red. masses --      1.0976                 1.2527                 1.5370
 Frc consts  --      0.4004                 0.4923                 0.6268
 IR Inten    --     69.0113                 5.9690                21.1881

                     19                     20                     21
                      A                      A                      A
 Frequencies --    899.9352               948.1649              1111.6488
 Red. masses --      3.3467                 2.6535                 4.2189
 Frc consts  --      1.5969                 1.4055                 3.0718
 IR Inten    --     15.5156                 5.4707                 9.4808

                     22                     23                     24
                      A                      A                      A
 Frequencies --   1157.4768              1228.9377              1337.0420
 Red. masses --      2.0670                 1.7568                 1.5079
 Frc consts  --      1.6316                 1.5632                 1.5882
 IR Inten    --     21.3925                 2.5470               235.9227

                     25                     26                     27
                      A                      A                      A
 Frequencies --   1381.2560              1446.4469              1457.5997
 Red. masses --      2.1532                 1.4440                 1.2823
 Frc consts  --      2.4204                 1.7800                 1.6052
 IR Inten    --    455.3704                82.0113                17.2585

                     28                     29                     30
                      A                      A                      A
 Frequencies --   1528.5142              1537.6834              1545.6779
 Red. masses --      1.0423                 1.0729                 1.0744
 Frc consts  --      1.4347                 1.4947                 1.5124
 IR Inten    --     14.0144                 6.4377                25.1035

                     31                     32                     33
                      A                      A                      A
 Frequencies --   1882.7763              2274.8403              3108.3235
 Red. masses --     12.1278                 5.8049                 1.0351
 Frc consts  --     25.3298                17.6990                 5.8925
 IR Inten    --    243.9160                89.1648                12.2087

                     34                     35                     36
                      A                      A                      A
 Frequencies --   3139.7144              3188.5938              3192.1570
 Red. masses --      1.0601                 1.1002                 1.1027
 Frc consts  --      6.1573                 6.5907                 6.6202
 IR Inten    --     18.7444                13.7623                 4.7025

                     37                     38                     39
                      A                      A                      A
 Frequencies --   3213.2692              3522.8360              3775.2512
 Red. masses --      1.1055                 1.1687                 1.0677
 Frc consts  --      6.7252                 8.5455                 8.9659
 IR Inten    --     16.8110                69.9999                10.1344

 - Thermochemistry -
 -------------------
 Temperature   298.150 Kelvin.  Pressure   1.00000 Atm.
 Atom     1 has atomic number  8 and mass  15.99491

 Molecular mass:   115.03952 amu.
 Principal axes and moments of inertia in atomic units:
                           1         2         3
     Eigenvalues --   343.309501904.068782093.67930
           X            0.99993  -0.01013  -0.00588
           Y            0.01022   0.99984   0.01470
           Z            0.00573  -0.01476   0.99987
 This molecule is an asymmetric top.
 Rotational symmetry number  1.
 Rotational temperatures (Kelvin)      0.25229     0.04549     0.04137
 Rotational constants (GHZ):           5.25689     0.94783     0.86200
    5 imaginary frequencies ignored.
 Zero-point vibrational energy     294106.2 (Joules/Mol)
                                   70.29307 (Kcal/Mol)
 Warning -- explicit consideration of   8 degrees of freedom as
           vibrations may cause significant error
 Vibrational temperatures:     58.12   228.59   279.99   344.07   447.61
          (Kelvin)            602.98   755.06   811.94   916.73  1104.30
                             1132.14  1175.06  1197.03  1294.81  1364.20
                             1599.41  1665.35  1768.17  1923.71  1987.32
                             2081.11  2097.16  2199.19  2212.38  2223.89
                             2708.90  3272.99  4472.18  4517.35  4587.68
                             4592.80  4623.18  5068.58  5431.74

 Zero-point correction=                           0.112019 (Hartree/Particle)
 Thermal correction to Energy=                    0.119146
 Thermal correction to Enthalpy=                  0.120091
 Thermal correction to Gibbs Free Energy=         0.078704
 Sum of electronic and zero-point Energies=           -419.849070
 Sum of electronic and thermal Energies=              -419.841943
 Sum of electronic and thermal Enthalpies=            -419.840998
 Sum of electronic and thermal Free Energies=         -419.882385

                     E (Thermal)             CV                S
                      KCal/Mol        Cal/Mol-Kelvin    Cal/Mol-Kelvin
 Total                   74.766             24.674             87.105
 Electronic               0.000              0.000              1.377
 Translational            0.889              2.981             40.136
 Rotational               0.889              2.981             28.705
 Vibrational             72.988             18.712             16.887
 Vibration     1          0.594              1.981              5.240
 Vibration     2          0.621              1.893              2.563
 Vibration     3          0.635              1.847              2.184
 Vibration     4          0.657              1.781              1.809
 Vibration     5          0.700              1.653              1.356
 Vibration     6          0.782              1.429              0.895
 Vibration     7          0.880              1.195              0.599
 Vibration     8          0.920              1.108              0.515

 Normal termination of Gaussian 16 at Fri Jun 20 13:15:23 2025.
