 Gaussian 16, Revision A.03,
 Gaussian 16:  ES64L-G16RevA.03 25-Dec-2016

 -------------------
 # freq 6-31+g m062x
 -------------------

 -------------------
 Title Card Required
 -------------------
 Symbolic Z-matrix:
 Charge =  0 Multiplicity = 2

                         Standard orientation:
 ---------------------------------------------------------------------
 Center     Atomic      Atomic             Coordinates (Angstroms)
 Number     Number       Type             X           Y           Z
 ---------------------------------------------------------------------
      1          8           0        3.412406    0.892494    0.111010
      2          1           0        2.600990    1.398807   -0.074731
      3          6           0        2.324959   -1.186035    0.273028
      4          1           0        3.289900   -1.595199    0.461619
      5          6           0        1.221670   -0.760927    0.063532
      6          6           0       -0.010639   -0.040382   -0.207145
      7          8           0       -0.029724    1.150292   -0.385044
      8          8           0       -1.066223   -0.843654   -0.235697
      9          6           0       -2.342562   -0.215417   -0.483335
     10          6           0       -2.884191    0.428450    0.777312
     11          1           0       -2.975330   -1.032707   -0.823900
     12          1           0       -2.221988    0.512487   -1.286321
     13          1           0       -3.881076    0.828371    0.582604
     14          1           0       -2.957694   -0.307375    1.579333
     15          1           0       -2.241888    1.248419    1.098898
 ---------------------------------------------------------------------

 SCF Done:  E(UM062X) =  -419.965149123     A.U. after   23 cycles

 The electronic state is 2-A.
 Alpha  occ. eigenvalues --  -19.71782 -19.69263 -19.67539 -10.74086 -10.62416
 Alpha  occ. eigenvalues --  -10.59777 -10.59117 -10.55319  -1.29154  -1.19780
 Alpha  occ. eigenvalues --   -1.13415  -0.92046  -0.88657  -0.79446  -0.72104
 Alpha  occ. eigenvalues --   -0.65640  -0.62056  -0.59609  -0.57941  -0.54929
 Alpha  occ. eigenvalues --   -0.53929  -0.50456  -0.49272  -0.47801  -0.46154
 Alpha  occ. eigenvalues --   -0.42929  -0.42036  -0.40297  -0.39337  -0.37926
 Alpha  occ. eigenvalues --   -0.36020
 Alpha virt. eigenvalues --   -0.02479   0.01628   0.02856   0.03134   0.03742
 Alpha virt. eigenvalues --    0.04405   0.05183   0.06346   0.06924   0.07912
 Alpha virt. eigenvalues --    0.08416   0.08655   0.08996   0.11167   0.11809

  Beta  occ. eigenvalues --  -19.71777 -19.67620 -19.67529 -10.74095 -10.62415
  Beta  occ. eigenvalues --  -10.59779 -10.59024 -10.55319  -1.29137  -1.19752
  Beta  occ. eigenvalues --   -1.05963  -0.91837  -0.88473  -0.79396  -0.72021
  Beta  occ. eigenvalues --   -0.65618  -0.61870  -0.59570  -0.57894  -0.54881
  Beta  occ. eigenvalues --   -0.50679  -0.50418  -0.47783  -0.46191  -0.42908
  Beta  occ. eigenvalues --   -0.40692  -0.39481  -0.39196  -0.37687  -0.36817
  Beta virt. eigenvalues --   -0.08196  -0.02458   0.01653   0.02970   0.03157
  Beta virt. eigenvalues --    0.03871   0.04520   0.05382   0.06449   0.07130
  Beta virt. eigenvalues --    0.07967   0.08548   0.08647   0.09089   0.11086

 Mulliken charges and spin densities:
               1          2
     1  O   -0.447909   0.955741
     2  H    0.416928  -0.034358
     3  C   -0.334937  -0.091843
     4  H    0.355745   0.004572
     5  C    0.027634   0.177305
     6  C    0.237487  -0.016266
     7  O   -0.391643   0.002764
     8  O   -0.205949   0.002018
     9  C   -0.225619  -0.000187
    10  C   -0.559085   0.000222
    11  H    0.223419   0.000006
    12  H    0.235507  -0.000017
    13  H    0.210793   0.000030
    14  H    0.222231   0.000004
    15  H    0.235397   0.000007
 Sum of Mulliken charges =  -0.00000   1.00000

 Dipole moment (field-independent basis, Debye):
    X=             -2.8584    Y=             -0.9525    Z=             -0.0009  Tot=              3.0130
 Quadrupole moment (field-independent basis, Debye-Ang):
   XX=            -45.3049   YY=            -49.2199   ZZ=            -47.9708
   XY=             -4.4880   XZ=              1.0194   YZ=             -0.1593

  Exact polarizability:  92.039  -2.868  63.097   3.817  -2.758  46.260
 Approx polarizability:  94.472  -6.777  77.256   7.041  -5.714  48.533

 ******    4 imaginary frequencies (negative Signs) ******

                      1                      2                      3
                      A                      A                      A
 Frequencies --   -408.4996              -126.9959               -80.1840
 Red. masses --      1.0888                 4.5461                 6.8667
 Frc consts  --      0.1071                 0.0432                 0.0260
 IR Inten    --    162.9331                22.3573                 0.7327

                      4                      5                      6
                      A                      A                      A
 Frequencies --    -26.6284                40.6138               130.8313
 Red. masses --      3.2542                 3.1949                 4.0711
 Frc consts  --      0.0014                 0.0031                 0.0411
 IR Inten    --      6.3612                 3.0808                 4.3574

                      7                      8                      9
                      A                      A                      A
 Frequencies --    181.5107               201.5322               246.5311
 Red. masses --      1.7801                 2.5360                 4.0333
 Frc consts  --      0.0346                 0.0607                 0.1444
 IR Inten    --     21.1048                12.9279                 1.2505

                     10                     11                     12
                      A                      A                      A
 Frequencies --    309.8980               369.5283               420.6306
 Red. masses --      2.8262                 1.2222                 3.8883
 Frc consts  --      0.1599                 0.0983                 0.4053
 IR Inten    --     35.5057               161.4678                 2.8571

                     13                     14                     15
                      A                      A                      A
 Frequencies --    568.8317               638.5628               775.9340
 Red. masses --      4.3728                 6.3001                 4.0029
 Frc consts  --      0.8336                 1.5136                 1.4199
 IR Inten    --      3.2582                20.1360                63.5160

                     16                     17                     18
                      A                      A                      A
 Frequencies --    794.7691               817.0261               862.5225
 Red. masses --      1.2534                 1.2593                 1.6580
 Frc consts  --      0.4665                 0.4953                 0.7267
 IR Inten    --     66.2332                 2.2989                18.8547

                     19                     20                     21
                      A                      A                      A
 Frequencies --    900.4848               948.4135              1112.4238
 Red. masses --      3.4061                 2.6327                 4.2105
 Frc consts  --      1.6273                 1.3952                 3.0699
 IR Inten    --     15.3338                 5.3690                 8.8884

                     22                     23                     24
                      A                      A                      A
 Frequencies --   1157.7779              1228.7236              1336.8715
 Red. masses --      2.0743                 1.7575                 1.5174
 Frc consts  --      1.6382                 1.5633                 1.5979
 IR Inten    --     21.1638                 2.9042               226.3575

                     25                     26                     27
                      A                      A                      A
 Frequencies --   1380.9470              1446.2935              1457.4070
 Red. masses --      2.1422                 1.4417                 1.2821
 Frc consts  --      2.4069                 1.7767                 1.6045
 IR Inten    --    428.1836                76.5264                16.7310

                     28                     29                     30
                      A                      A                      A
 Frequencies --   1528.4155              1537.5180              1545.5651
 Red. masses --      1.0423                 1.0740                 1.0736
 Frc consts  --      1.4346                 1.4958                 1.5110
 IR Inten    --     14.2511                 6.4294                24.6597

                     31                     32                     33
                      A                      A                      A
 Frequencies --   1884.5007              2312.8347              3108.0817
 Red. masses --     12.1569                 5.6285                 1.0351
 Frc consts  --     25.4370                17.7390                 5.8916
 IR Inten    --    272.2268                86.8701                12.2276

                     34                     35                     36
                      A                      A                      A
 Frequencies --   3139.3492              3188.3138              3191.8118
 Red. masses --      1.0601                 1.1003                 1.1026
 Frc consts  --      6.1557                 6.5899                 6.6184
 IR Inten    --     18.7528                13.5575                 5.0006

                     37                     38                     39
                      A                      A                      A
 Frequencies --   3212.9136              3533.2265              3764.5392
 Red. masses --      1.1055                 1.1758                 1.0676
 Frc consts  --      6.7236                 8.6484                 8.9143
 IR Inten    --     16.7639                68.9138                 7.2848

 - Thermochemistry -
 -------------------
 Temperature   298.150 Kelvin.  Pressure   1.00000 Atm.
 Atom     1 has atomic number  8 and mass  15.99491

 Molecular mass:   115.03952 amu.
 Principal axes and moments of inertia in atomic units:
                           1         2         3
     Eigenvalues --   362.980011909.176762118.11910
           X            0.99992  -0.01100  -0.00592
           Y            0.01107   0.99986   0.01291
           Z            0.00578  -0.01297   0.99990
 This molecule is an asymmetric top.
 Rotational symmetry number  1.
 Rotational temperatures (Kelvin)      0.23862     0.04537     0.04089
 Rotational constants (GHZ):           4.97201     0.94530     0.85205
    4 imaginary frequencies ignored.
 Zero-point vibrational energy     294730.8 (Joules/Mol)
                                   70.44234 (Kcal/Mol)
 Warning -- explicit consideration of   9 degrees of freedom as
           vibrations may cause significant error
 Vibrational temperatures:     58.43   188.24   261.15   289.96   354.70
          (Kelvin)            445.87   531.67   605.19   818.42   918.75
                             1116.40  1143.50  1175.52  1240.98  1295.60
                             1364.56  1600.53  1665.78  1767.86  1923.46
                             1986.87  2080.89  2096.88  2199.05  2212.15
                             2223.72  2711.38  3327.65  4471.84  4516.82
                             4587.27  4592.31  4622.67  5083.52  5416.33

 Zero-point correction=                           0.112257 (Hartree/Particle)
 Thermal correction to Energy=                    0.120119
 Thermal correction to Enthalpy=                  0.121064
 Thermal correction to Gibbs Free Energy=         0.078223
 Sum of electronic and zero-point Energies=           -419.852892
 Sum of electronic and thermal Energies=              -419.845030
 Sum of electronic and thermal Enthalpies=            -419.844085
 Sum of electronic and thermal Free Energies=         -419.886926

                     E (Thermal)             CV                S
                      KCal/Mol        Cal/Mol-Kelvin    Cal/Mol-Kelvin
 Total                   75.376             26.796             90.166
 Electronic               0.000              0.000              1.377
 Translational            0.889              2.981             40.136
 Rotational               0.889              2.981             28.775
 Vibrational             73.599             20.834             19.878
 Vibration     1          0.594              1.981              5.229
 Vibration     2          0.612              1.922              2.934
 Vibration     3          0.630              1.865              2.313
 Vibration     4          0.638              1.838              2.119
 Vibration     5          0.661              1.769              1.755
 Vibration     6          0.699              1.655              1.363
 Vibration     7          0.742              1.535              1.082
 Vibration     8          0.783              1.425              0.890
 Vibration     9          0.925              1.099              0.506

 Normal termination of Gaussian 16 at Fri Jun 20 13:09:08 2025.
