 Gaussian 16, Revision A.03,
 Gaussian 16:  ES64L-G16RevA.03 25-Dec-2016

 --------------------------
 # ccsd(t)/6-311++g(d,p) sp
 --------------------------

 -------------------
 Title Card Required
 -------------------
 Symbolic Z-matrix:
 Charge =  0 Multiplicity = 2

                         Standard orientation:
 ---------------------------------------------------------------------
 Center     Atomic      Atomic             Coordinates (Angstroms)
 Number     Number       Type             X           Y           Z
 ---------------------------------------------------------------------
      1          8           0        3.316166    0.741579    0.107252
      2          1           0        2.575776    1.335190   -0.094805
      3          6           0        2.455188   -0.880504    0.267914
      4          1           0        3.293824   -1.512949    0.488106
      5          6           0        1.228170   -0.753940    0.081166
      6          6           0       -0.010311   -0.046008   -0.206000
      7          8           0       -0.040789    1.139150   -0.411504
      8          8           0       -1.056785   -0.861686   -0.214355
      9          6           0       -2.340574   -0.252198   -0.475743
     10          6           0       -2.887505    0.416233    0.769623
     11          1           0       -2.964992   -1.083868   -0.796065
     12          1           0       -2.227461    0.457066   -1.296254
     13          1           0       -3.888551    0.800938    0.565976
     14          1           0       -2.953271   -0.300741    1.589187
     15          1           0       -2.253878    1.250524    1.070952
 ---------------------------------------------------------------------

 SCF Done:  E(UHF) =  -417.984366448     A.U. after   31 cycles
 E2 =    -0.1251355250D+01 EUMP2 =    -0.41923572169797D+03
 CCSD(T)= -0.41936181945D+03

 The electronic state is 2-A.
 Alpha  occ. eigenvalues --  -20.62331 -20.60339 -20.57427 -11.42056 -11.30521
 Alpha  occ. eigenvalues --  -11.28807 -11.27849 -11.23252  -1.49444  -1.39680
 Alpha  occ. eigenvalues --   -1.35730  -1.10201  -1.04827  -0.92809  -0.84704
 Alpha  occ. eigenvalues --   -0.77655  -0.73180  -0.71191  -0.67766  -0.64457
 Alpha  occ. eigenvalues --   -0.63653  -0.62714  -0.59572  -0.56541  -0.54905
 Alpha  occ. eigenvalues --   -0.53326  -0.51772  -0.50460  -0.48359  -0.43589
 Alpha  occ. eigenvalues --   -0.42436
 Alpha virt. eigenvalues --    0.03843   0.04796   0.05553   0.06260   0.07157
 Alpha virt. eigenvalues --    0.08457   0.08948   0.09376   0.10991   0.12227
 Alpha virt. eigenvalues --    0.12672   0.13713   0.14478   0.14993   0.16635

  Beta  occ. eigenvalues --  -20.62311 -20.57249 -20.56789 -11.42490 -11.31176
  Beta  occ. eigenvalues --  -11.30518 -11.24921 -11.23251  -1.49092  -1.38600
  Beta  occ. eigenvalues --   -1.25348  -1.07147  -1.04650  -0.93452  -0.84460
  Beta  occ. eigenvalues --   -0.77435  -0.72903  -0.70265  -0.67153  -0.63784
  Beta  occ. eigenvalues --   -0.61535  -0.58975  -0.55427  -0.54751  -0.51518
  Beta  occ. eigenvalues --   -0.51142  -0.48817  -0.46904  -0.46189  -0.42136
  Beta virt. eigenvalues --    0.03846   0.04767   0.05369   0.05564   0.06758
  Beta virt. eigenvalues --    0.07298   0.08275   0.08963   0.09723   0.11786
  Beta virt. eigenvalues --    0.12808   0.12933   0.13698   0.14329   0.14681

 Mulliken charges and spin densities:
               1          2
     1  O   -0.259288   0.737248
     2  H    0.268694  -0.028639
     3  C   -1.562716  -1.076558
     4  H    0.212512   0.087547
     5  C    1.814512   1.360892
     6  C   -0.368089  -0.201538
     7  O   -0.329794   0.117470
     8  O   -0.061662   0.003600
     9  C   -0.159503  -0.004511
    10  C   -0.361775   0.003693
    11  H    0.169984   0.000509
    12  H    0.183298   0.000179
    13  H    0.134081   0.000252
    14  H    0.146966  -0.000069
    15  H    0.172781  -0.000072
 Sum of Mulliken charges =  -0.00000   1.00000

 Dipole moment (field-independent basis, Debye):
    X=             -2.6699    Y=             -1.4947    Z=              0.1060  Tot=              3.0616
 Quadrupole moment (field-independent basis, Debye-Ang):
   XX=            -45.2358   YY=            -48.7826   ZZ=            -47.6210
   XY=             -4.5915   XZ=              1.2525   YZ=             -0.0960

 PMP3-0=-419.2898557\MP4SDQ=-419.2960026\CCSD=-419.306593\CCSD(T)=-419.
 Normal termination of Gaussian 16 at Wed Jul  9 22:33:06 2025.
