 Gaussian 16, Revision A.03,
 Gaussian 16:  ES64L-G16RevA.03 25-Dec-2016

 --------------------------
 # ccsd(t)/6-311++g(d,p) sp
 --------------------------

 -------------------
 Title Card Required
 -------------------
 Symbolic Z-matrix:
 Charge =  0 Multiplicity = 2

                         Standard orientation:
 ---------------------------------------------------------------------
 Center     Atomic      Atomic             Coordinates (Angstroms)
 Number     Number       Type             X           Y           Z
 ---------------------------------------------------------------------
      1          8           0        3.412406    0.892494    0.111010
      2          1           0        2.600990    1.398807   -0.074731
      3          6           0        2.324959   -1.186035    0.273028
      4          1           0        3.289900   -1.595199    0.461619
      5          6           0        1.221670   -0.760927    0.063532
      6          6           0       -0.010639   -0.040382   -0.207145
      7          8           0       -0.029724    1.150292   -0.385044
      8          8           0       -1.066223   -0.843654   -0.235697
      9          6           0       -2.342562   -0.215417   -0.483335
     10          6           0       -2.884191    0.428450    0.777312
     11          1           0       -2.975330   -1.032707   -0.823900
     12          1           0       -2.221988    0.512487   -1.286321
     13          1           0       -3.881076    0.828371    0.582604
     14          1           0       -2.957694   -0.307375    1.579333
     15          1           0       -2.241888    1.248419    1.098898
 ---------------------------------------------------------------------

 SCF Done:  E(UHF) =  -417.996455365     A.U. after   35 cycles
 E2 =    -0.1259323662D+01 EUMP2 =    -0.41925577902680D+03
 CCSD(T)= -0.41935960855D+03

 The electronic state is 2-A.
 Alpha  occ. eigenvalues --  -20.62336 -20.61847 -20.57217 -11.42453 -11.30457
 Alpha  occ. eigenvalues --  -11.26831 -11.26160 -11.23195  -1.49320  -1.39302
 Alpha  occ. eigenvalues --   -1.37269  -1.08804  -1.04636  -0.93002  -0.84519
 Alpha  occ. eigenvalues --   -0.77383  -0.73323  -0.70763  -0.67461  -0.66452
 Alpha  occ. eigenvalues --   -0.64680  -0.63999  -0.59293  -0.56076  -0.54856
 Alpha  occ. eigenvalues --   -0.54509  -0.51412  -0.49675  -0.47854  -0.42968
 Alpha  occ. eigenvalues --   -0.42133
 Alpha virt. eigenvalues --    0.03877   0.04679   0.05621   0.06299   0.07179
 Alpha virt. eigenvalues --    0.08530   0.08594   0.09362   0.11079   0.12203
 Alpha virt. eigenvalues --    0.12680   0.13530   0.14452   0.14932   0.16390

  Beta  occ. eigenvalues --  -20.62325 -20.57758 -20.57001 -11.42620 -11.30454
  Beta  occ. eigenvalues --  -11.27624 -11.25206 -11.23195  -1.49200  -1.38931
  Beta  occ. eigenvalues --   -1.21771  -1.07919  -1.04644  -0.93291  -0.84514
  Beta  occ. eigenvalues --   -0.77341  -0.73289  -0.70493  -0.67265  -0.64006
  Beta  occ. eigenvalues --   -0.62004  -0.59086  -0.55635  -0.54796  -0.51306
  Beta  occ. eigenvalues --   -0.49680  -0.49137  -0.47326  -0.43161  -0.42753
  Beta virt. eigenvalues --    0.03879   0.04666   0.05624   0.06078   0.06967
  Beta virt. eigenvalues --    0.07881   0.08398   0.09091   0.10466   0.12055
  Beta virt. eigenvalues --    0.12408   0.13057   0.13612   0.14523   0.14960

 Mulliken charges and spin densities:
               1          2
     1  O   -0.246197   0.992750
     2  H    0.264617  -0.035790
     3  C   -2.915063  -0.340057
     4  H    0.187634   0.036751
     5  C    3.012944   0.419499
     6  C   -0.239207  -0.115804
     7  O   -0.328087   0.040304
     8  O   -0.035794   0.001328
     9  C   -0.154959  -0.000527
    10  C   -0.355278   0.001361
    11  H    0.172733   0.000119
    12  H    0.180916   0.000016
    13  H    0.137684   0.000092
    14  H    0.145736  -0.000076
    15  H    0.172322   0.000034
 Sum of Mulliken charges =  -0.00000   1.00000

 Dipole moment (field-independent basis, Debye):
    X=             -2.2982    Y=             -1.0137    Z=              0.0513  Tot=              2.5123
 Quadrupole moment (field-independent basis, Debye-Ang):
   XX=            -42.8261   YY=            -48.7808   ZZ=            -47.7657
   XY=             -3.8688   XZ=              1.2927   YZ=             -0.1515

 -0=-419.2872552\MP4SDQ=-419.3072857\CCSD=-419.3073441\CCSD(T)=-419.359
 Normal termination of Gaussian 16 at Fri Jul 18 14:37:09 2025.
