 Gaussian 16, Revision A.03,
 Gaussian 16:  ES64L-G16RevA.03 25-Dec-2016

 --------------------------
 # freq 6-311++g(d,p) m062x
 --------------------------

 -------------------
 Title Card Required
 -------------------
 Symbolic Z-matrix:
 Charge =  0 Multiplicity = 2

                         Standard orientation:
 ---------------------------------------------------------------------
 Center     Atomic      Atomic             Coordinates (Angstroms)
 Number     Number       Type             X           Y           Z
 ---------------------------------------------------------------------
      1          8           0        3.391818    0.859003    0.109792
      2          1           0        2.597153    1.389515   -0.078993
      3          6           0        2.348873   -1.129000    0.273539
      4          1           0        3.312484   -1.539885    0.464398
      5          6           0        1.226226   -0.751769    0.066455
      6          6           0       -0.011255   -0.041801   -0.206960
      7          8           0       -0.034024    1.147862   -0.390798
      8          8           0       -1.064029   -0.848635   -0.231005
      9          6           0       -2.342073   -0.224464   -0.481565
     10          6           0       -2.884980    0.424904    0.775738
     11          1           0       -2.973109   -1.044900   -0.817712
     12          1           0       -2.223215    0.499467   -1.288368
     13          1           0       -3.882775    0.821518    0.578923
     14          1           0       -2.956859   -0.306807    1.581661
     15          1           0       -2.244554    1.248037    1.092928
 ---------------------------------------------------------------------

 SCF Done:  E(UM062X) =  -420.209382216     A.U. after   24 cycles

 The electronic state is 2-A.
 Alpha  occ. eigenvalues --  -19.69378 -19.66275 -19.64303 -10.71694 -10.61392
 Alpha  occ. eigenvalues --  -10.58341 -10.57402 -10.54460  -1.26768  -1.17450
 Alpha  occ. eigenvalues --   -1.12016  -0.91326  -0.87935  -0.78892  -0.71466
 Alpha  occ. eigenvalues --   -0.65457  -0.61925  -0.59565  -0.57480  -0.54406
 Alpha  occ. eigenvalues --   -0.53955  -0.50220  -0.49322  -0.47561  -0.46074
 Alpha  occ. eigenvalues --   -0.42869  -0.41953  -0.40266  -0.39490  -0.37536
 Alpha  occ. eigenvalues --   -0.35169
 Alpha virt. eigenvalues --   -0.02287  -0.00428   0.00851   0.01467   0.01918
 Alpha virt. eigenvalues --    0.02675   0.03980   0.05014   0.05338   0.05929
 Alpha virt. eigenvalues --    0.06627   0.07368   0.08099   0.08894   0.10208

  Beta  occ. eigenvalues --  -19.69371 -19.64721 -19.64287 -10.71705 -10.61390
  Beta  occ. eigenvalues --  -10.58350 -10.57285 -10.54460  -1.26743  -1.17403
  Beta  occ. eigenvalues --   -1.04540  -0.91045  -0.87670  -0.78829  -0.71367
  Beta  occ. eigenvalues --   -0.65420  -0.61673  -0.59500  -0.57421  -0.54346
  Beta  occ. eigenvalues --   -0.50956  -0.50164  -0.47523  -0.46113  -0.42850
  Beta  occ. eigenvalues --   -0.40717  -0.39626  -0.39273  -0.37274  -0.36421
  Beta virt. eigenvalues --   -0.07973  -0.02249  -0.00394   0.01014   0.01468
  Beta virt. eigenvalues --    0.02066   0.02816   0.04240   0.05203   0.05754
  Beta virt. eigenvalues --    0.06166   0.06723   0.07385   0.08263   0.09080

 Mulliken charges and spin densities:
               1          2
     1  O   -0.274566   0.915978
     2  H    0.254291  -0.017872
     3  C   -2.370252   0.011836
     4  H    0.185922   0.011374
     5  C    2.316662   0.099633
     6  C   -0.153517  -0.028014
     7  O   -0.255694   0.003976
     8  O    0.040481   0.002213
     9  C   -0.260722   0.000096
    10  C   -0.402106   0.000689
    11  H    0.201064  -0.000002
    12  H    0.198036   0.000173
    13  H    0.168516  -0.000002
    14  H    0.167763  -0.000037
    15  H    0.184123  -0.000041
 Sum of Mulliken charges =  -0.00000   1.00000

 Dipole moment (field-independent basis, Debye):
    X=             -2.7076    Y=             -1.1321    Z=              0.0565  Tot=              2.9353
 Quadrupole moment (field-independent basis, Debye-Ang):
   XX=            -43.8348   YY=            -48.4801   ZZ=            -47.7583
   XY=             -4.3091   XZ=              1.1588   YZ=             -0.1834

  Exact polarizability:  98.239  -1.539  66.655   3.308  -2.154  50.533
 Approx polarizability: 102.200  -4.953  82.975   6.480  -4.775  58.278

 ******    2 imaginary frequencies (negative Signs) ******

                      1                      2                      3
                      A                      A                      A
 Frequencies --    -54.0462               -42.9838                77.5083
 Red. masses --      6.5316                 6.8287                 3.9451
 Frc consts  --      0.0112                 0.0074                 0.0140
 IR Inten    --      1.0985                 0.7940                 2.8030

                      4                      5                      6
                      A                      A                      A
 Frequencies --    116.7819               177.8469               223.4251
 Red. masses --      3.3866                 3.4756                 2.5158
 Frc consts  --      0.0272                 0.0648                 0.0740
 IR Inten    --      1.6101                 5.8317                 0.5218

                      7                      8                      9
                      A                      A                      A
 Frequencies --    240.5264               267.2765               276.5889
 Red. masses --      2.1555                 3.7746                 1.0817
 Frc consts  --      0.0735                 0.1589                 0.0488
 IR Inten    --      2.2806                10.6777               106.6753

                     10                     11                     12
                      A                      A                      A
 Frequencies --    339.8024               423.8156               558.3908
 Red. masses --      2.9717                 4.0488                 4.4887
 Frc consts  --      0.2022                 0.4285                 0.8246
 IR Inten    --     15.1571                 1.7358                 3.3365

                     13                     14                     15
                      A                      A                      A
 Frequencies --    623.4465               645.2832               771.8783
 Red. masses --      3.9703                 1.2038                 1.1527
 Frc consts  --      0.9092                 0.2953                 0.4046
 IR Inten    --     10.0746               185.5120                51.8070

                     16                     17                     18
                      A                      A                      A
 Frequencies --    779.9622               787.4381               801.6595
 Red. masses --      3.0963                 1.7599                 1.2242
 Frc consts  --      1.1098                 0.6429                 0.4635
 IR Inten    --      1.2089                59.0038                 5.1194

                     19                     20                     21
                      A                      A                      A
 Frequencies --    896.3967               932.8547              1076.0429
 Red. masses --      3.0733                 2.9536                 4.1630
 Frc consts  --      1.4550                 1.5144                 2.8400
 IR Inten    --     11.6208                 4.2930                24.8620

                     22                     23                     24
                      A                      A                      A
 Frequencies --   1128.2839              1204.3393              1306.9802
 Red. masses --      2.0773                 1.7691                 2.7900
 Frc consts  --      1.5580                 1.5118                 2.8080
 IR Inten    --     23.2509                 3.0907               565.9289

                     25                     26                     27
                      A                      A                      A
 Frequencies --   1351.0106              1403.5459              1432.5164
 Red. masses --      1.3431                 1.3091                 1.4089
 Frc consts  --      1.4444                 1.5194                 1.7035
 IR Inten    --    186.3992                50.4076                16.6686

                     28                     29                     30
                      A                      A                      A
 Frequencies --   1492.8419              1503.4853              1515.6675
 Red. masses --      1.0413                 1.0626                 1.0877
 Frc consts  --      1.3673                 1.4152                 1.4721
 IR Inten    --     10.0639                 3.2350                21.1320

                     31                     32                     33
                      A                      A                      A
 Frequencies --   1816.5317              2235.8978              3075.7716
 Red. masses --     11.8296                 5.8854                 1.0354
 Frc consts  --     22.9989                17.3353                 5.7714
 IR Inten    --    277.7747                84.3126                 9.3822

                     34                     35                     36
                      A                      A                      A
 Frequencies --   3109.1299              3151.2145              3155.8450
 Red. masses --      1.0607                 1.1013                 1.1049
 Frc consts  --      6.0414                 6.4436                 6.4836
 IR Inten    --     17.1584                14.1469                 1.4738

                     37                     38                     39
                      A                      A                      A
 Frequencies --   3176.7392              3490.0664              3755.4874
 Red. masses --      1.1076                 1.1657                 1.0677
 Frc consts  --      6.5854                 8.3657                 8.8719
 IR Inten    --     14.1288                74.8381                26.5655

 - Thermochemistry -
 -------------------
 Temperature   298.150 Kelvin.  Pressure   1.00000 Atm.
 Atom     1 has atomic number  8 and mass  15.99491

 Molecular mass:   115.03952 amu.
 Principal axes and moments of inertia in atomic units:
                           1         2         3
     Eigenvalues --   352.802711906.707372105.63875
           X            0.99993  -0.01048  -0.00590
           Y            0.01056   0.99985   0.01390
           Z            0.00576  -0.01396   0.99989
 This molecule is an asymmetric top.
 Rotational symmetry number  1.
 Rotational temperatures (Kelvin)      0.24550     0.04543     0.04113
 Rotational constants (GHZ):           5.11544     0.94652     0.85710
    2 imaginary frequencies ignored.
 Zero-point vibrational energy     295012.7 (Joules/Mol)
                                   70.50974 (Kcal/Mol)
 Warning -- explicit consideration of  10 degrees of freedom as
           vibrations may cause significant error
 Vibrational temperatures:    111.52   168.02   255.88   321.46   346.06
          (Kelvin)            384.55   397.95   488.90   609.78   803.40
                              897.00   928.42  1110.56  1122.19  1132.95
                             1153.41  1289.71  1342.17  1548.19  1623.35
                             1732.78  1880.45  1943.80  2019.39  2061.07
                             2147.87  2163.18  2180.71  2613.58  3216.96
                             4425.35  4473.34  4533.89  4540.56  4570.62
                             5021.43  5403.31

 Zero-point correction=                           0.112364 (Hartree/Particle)
 Thermal correction to Energy=                    0.120891
 Thermal correction to Enthalpy=                  0.121835
 Thermal correction to Gibbs Free Energy=         0.078386
 Sum of electronic and zero-point Energies=           -420.097018
 Sum of electronic and thermal Energies=              -420.088492
 Sum of electronic and thermal Enthalpies=            -420.087548
 Sum of electronic and thermal Free Energies=         -420.130996

                     E (Thermal)             CV                S
                      KCal/Mol        Cal/Mol-Kelvin    Cal/Mol-Kelvin
 Total                   75.860             29.964             91.445
 Electronic               0.000              0.000              1.377
 Translational            0.889              2.981             40.136
 Rotational               0.889              2.981             28.739
 Vibrational             74.082             24.002             21.192
 Vibration     1          0.599              1.964              3.953
 Vibration     2          0.608              1.935              3.153
 Vibration     3          0.628              1.870              2.351
 Vibration     4          0.649              1.805              1.931
 Vibration     5          0.658              1.778              1.799
 Vibration     6          0.672              1.733              1.614
 Vibration     7          0.678              1.717              1.555
 Vibration     8          0.720              1.596              1.213
 Vibration     9          0.786              1.418              0.879
 Vibration    10          0.914              1.121              0.527

 1\1\GINC-AJ\Freq\UM062X\6-311++G(d,p)\C5H7O3(2)\AAYUSH\23-Jun-2025\0\\
 # freq 6-311++g(d,p) m062x\\Title Card Required\\0,2\O,3.391818,0.8590
 03,0.109792\H,2.597153,1.389515,-0.078993\C,2.348873,-1.129,0.273539\H
 ,3.312484,-1.539885,0.464398\C,1.226226,-0.751769,0.066455\C,-0.011255
 ,-0.041801,-0.20696\O,-0.034024,1.147862,-0.390798\O,-1.064029,-0.8486
 35,-0.231005\C,-2.342073,-0.224464,-0.481565\C,-2.88498,0.424904,0.775
 738\H,-2.973109,-1.0449,-0.817712\H,-2.223215,0.499467,-1.288368\H,-3.
 882775,0.821518,0.578923\H,-2.956859,-0.306807,1.581661\H,-2.244554,1.

 Normal termination of Gaussian 16 at Mon Jun 23 02:57:17 2025.
