 Gaussian 16, Revision A.03,
 Gaussian 16:  ES64L-G16RevA.03 25-Dec-2016

 --------------------------
 # freq 6-311++g(d,p) m062x
 --------------------------

 -------------------
 Title Card Required
 -------------------
 Symbolic Z-matrix:
 Charge =  0 Multiplicity = 2

                         Standard orientation:
 ---------------------------------------------------------------------
 Center     Atomic      Atomic             Coordinates (Angstroms)
 Number     Number       Type             X           Y           Z
 ---------------------------------------------------------------------
      1          8           0        3.357537    0.806682    0.108121
      2          1           0        2.591288    1.373709   -0.086810
      3          6           0        2.390348   -1.027496    0.272641
      4          1           0        3.326167   -1.497345    0.473142
      5          6           0        1.231255   -0.745431    0.072342
      6          6           0       -0.011406   -0.044580   -0.206464
      7          8           0       -0.037529    1.143198   -0.399873
      8          8           0       -1.060902   -0.855346   -0.223561
      9          6           0       -2.341501   -0.237381   -0.478999
     10          6           0       -2.886293    0.420570    0.772984
     11          1           0       -2.969716   -1.062772   -0.808142
     12          1           0       -2.225096    0.480077   -1.291893
     13          1           0       -3.885547    0.811875    0.573010
     14          1           0       -2.955486   -0.304600    1.585028
     15          1           0       -2.248880    1.248701    1.083151
 ---------------------------------------------------------------------

 SCF Done:  E(UM062X) =  -420.205893646     A.U. after   24 cycles

 The electronic state is 2-A.
 Alpha  occ. eigenvalues --  -19.69492 -19.65410 -19.64418 -10.71805 -10.61474
 Alpha  occ. eigenvalues --  -10.59273 -10.57935 -10.54522  -1.26891  -1.17589
 Alpha  occ. eigenvalues --   -1.11366  -0.91612  -0.88208  -0.79036  -0.71672
 Alpha  occ. eigenvalues --   -0.65613  -0.62171  -0.59681  -0.57613  -0.54464
 Alpha  occ. eigenvalues --   -0.53151  -0.50342  -0.49315  -0.47664  -0.46125
 Alpha  occ. eigenvalues --   -0.42960  -0.41692  -0.40349  -0.39586  -0.37339
 Alpha  occ. eigenvalues --   -0.34074
 Alpha virt. eigenvalues --   -0.02428  -0.00457   0.00851   0.01431   0.01906
 Alpha virt. eigenvalues --    0.02571   0.03959   0.05045   0.05331   0.06101
 Alpha virt. eigenvalues --    0.06611   0.07329   0.08045   0.08854   0.10046

  Beta  occ. eigenvalues --  -19.69481 -19.64381 -19.63951 -10.71824 -10.61472
  Beta  occ. eigenvalues --  -10.59322 -10.57726 -10.54522  -1.26841  -1.17489
  Beta  occ. eigenvalues --   -1.04876  -0.91097  -0.87800  -0.78940  -0.71498
  Beta  occ. eigenvalues --   -0.65548  -0.61819  -0.59556  -0.57500  -0.54379
  Beta  occ. eigenvalues --   -0.50434  -0.50235  -0.47595  -0.46168  -0.42928
  Beta  occ. eigenvalues --   -0.40970  -0.39826  -0.39484  -0.37557  -0.35706
  Beta virt. eigenvalues --   -0.08709  -0.02385  -0.00433   0.01031   0.01426
  Beta virt. eigenvalues --    0.02046   0.02768   0.04235   0.05220   0.05749
  Beta virt. eigenvalues --    0.06622   0.06741   0.07383   0.08284   0.09011

 Mulliken charges and spin densities:
               1          2
     1  O   -0.282394   0.832287
     2  H    0.254202  -0.016702
     3  C   -2.020419  -0.043224
     4  H    0.196004   0.018825
     5  C    2.034398   0.222965
     6  C   -0.212039  -0.027770
     7  O   -0.257251   0.010195
     8  O    0.034003   0.002742
     9  C   -0.263643  -0.000656
    10  C   -0.403033   0.001112
    11  H    0.200687   0.000039
    12  H    0.199260   0.000254
    13  H    0.167720   0.000051
    14  H    0.168231  -0.000027
    15  H    0.184273  -0.000091
 Sum of Mulliken charges =  -0.00000   1.00000

 Dipole moment (field-independent basis, Debye):
    X=             -2.8726    Y=             -1.3136    Z=              0.0749  Tot=              3.1596
 Quadrupole moment (field-independent basis, Debye-Ang):
   XX=            -44.4268   YY=            -48.4990   ZZ=            -47.7256
   XY=             -4.6934   XZ=              1.2012   YZ=             -0.1835

  Exact polarizability: 104.394   4.263  69.966   3.123  -2.160  50.546
 Approx polarizability: 106.896   0.597  85.160   6.256  -4.570  58.425

 ******    2 imaginary frequencies (negative Signs) ******

                      1                      2                      3
                      A                      A                      A
 Frequencies --   -388.8434               -47.4005                17.0677
 Red. masses --     12.7201                 6.4398                 6.7328
 Frc consts  --      1.1332                 0.0085                 0.0012
 IR Inten    --     43.8474                 1.1305                 0.3408

                      4                      5                      6
                      A                      A                      A
 Frequencies --     78.8027               117.6782               195.3664
 Red. masses --      3.8091                 3.3105                 2.3998
 Frc consts  --      0.0139                 0.0270                 0.0540
 IR Inten    --      3.0728                 1.3588                 5.6577

                      7                      8                      9
                      A                      A                      A
 Frequencies --    238.4477               267.1042               285.2698
 Red. masses --      1.6507                 3.9817                 1.0597
 Frc consts  --      0.0553                 0.1674                 0.0508
 IR Inten    --      3.0335                 1.0916               112.5390

                     10                     11                     12
                      A                      A                      A
 Frequencies --    340.1575               424.5030               555.5569
 Red. masses --      3.0108                 4.0788                 4.5523
 Frc consts  --      0.2053                 0.4331                 0.8278
 IR Inten    --     14.3197                 1.5754                 5.6765

                     13                     14                     15
                      A                      A                      A
 Frequencies --    625.5441               756.6070               776.0733
 Red. masses --      8.4244                 1.0757                 2.4626
 Frc consts  --      1.9423                 0.3628                 0.8739
 IR Inten    --     11.1299               200.3782                 0.2969

                     16                     17                     18
                      A                      A                      A
 Frequencies --    784.4183               801.5089               805.3759
 Red. masses --      2.1329                 1.2123                 1.0734
 Frc consts  --      0.7732                 0.4589                 0.4102
 IR Inten    --     60.4646                 8.4991                29.7950

                     19                     20                     21
                      A                      A                      A
 Frequencies --    895.6101               932.2074              1074.8510
 Red. masses --      3.0531                 2.9592                 4.1427
 Frc consts  --      1.4429                 1.5151                 2.8199
 IR Inten    --     11.3934                 3.8647                24.6452

                     22                     23                     24
                      A                      A                      A
 Frequencies --   1128.0601              1204.2101              1305.5311
 Red. masses --      2.0748                 1.7688                 2.8532
 Frc consts  --      1.5555                 1.5113                 2.8652
 IR Inten    --     23.3097                 2.9144               616.3985

                     25                     26                     27
                      A                      A                      A
 Frequencies --   1350.7116              1403.4776              1432.4587
 Red. masses --      1.3336                 1.3066                 1.4057
 Frc consts  --      1.4335                 1.5163                 1.6994
 IR Inten    --    191.8325                51.5963                17.4842

                     28                     29                     30
                      A                      A                      A
 Frequencies --   1492.9049              1503.3414              1515.4839
 Red. masses --      1.0413                 1.0624                 1.0874
 Frc consts  --      1.3674                 1.4146                 1.4714
 IR Inten    --      9.7767                 3.4669                21.1768

                     31                     32                     33
                      A                      A                      A
 Frequencies --   1814.7356              2174.9171              3076.0282
 Red. masses --     11.7887                 6.1325                 1.0354
 Frc consts  --     22.8740                17.0911                 5.7723
 IR Inten    --    241.9414                91.3291                 9.3251

                     34                     35                     36
                      A                      A                      A
 Frequencies --   3109.4680              3151.5296              3156.1277
 Red. masses --      1.0608                 1.1013                 1.1049
 Frc consts  --      6.0429                 6.4448                 6.4848
 IR Inten    --     17.2260                14.1382                 1.4036

                     37                     38                     39
                      A                      A                      A
 Frequencies --   3177.1017              3467.6519              3765.8196
 Red. masses --      1.1076                 1.1563                 1.0678
 Frc consts  --      6.5871                 8.1920                 8.9219
 IR Inten    --     14.1641                75.0997                29.6419

 - Thermochemistry -
 -------------------
 Temperature   298.150 Kelvin.  Pressure   1.00000 Atm.
 Atom     1 has atomic number  8 and mass  15.99491

 Molecular mass:   115.03952 amu.
 Principal axes and moments of inertia in atomic units:
                           1         2         3
     Eigenvalues --   337.457191902.427142086.29570
           X            0.99993  -0.00998  -0.00587
           Y            0.01007   0.99984   0.01512
           Z            0.00572  -0.01517   0.99987
 This molecule is an asymmetric top.
 Rotational symmetry number  1.
 Rotational temperatures (Kelvin)      0.25667     0.04553     0.04152
 Rotational constants (GHZ):           5.34806     0.94865     0.86505
    2 imaginary frequencies ignored.
 Zero-point vibrational energy     294291.6 (Joules/Mol)
                                   70.33737 (Kcal/Mol)
 Warning -- explicit consideration of  10 degrees of freedom as
           vibrations may cause significant error
 Vibrational temperatures:     24.56   113.38   169.31   281.09   343.07
          (Kelvin)            384.30   410.44   489.41   610.77   799.32
                              900.02  1088.59  1116.60  1128.60  1153.19
                             1158.76  1288.58  1341.24  1546.47  1623.03
                             1732.59  1878.37  1943.37  2019.29  2060.99
                             2147.96  2162.97  2180.44  2611.00  3129.22
                             4425.72  4473.83  4534.35  4540.96  4571.14
                             4989.18  5418.17

 Zero-point correction=                           0.112090 (Hartree/Particle)
 Thermal correction to Energy=                    0.120904
 Thermal correction to Enthalpy=                  0.121848
 Thermal correction to Gibbs Free Energy=         0.076238
 Sum of electronic and zero-point Energies=           -420.093804
 Sum of electronic and thermal Energies=              -420.084990
 Sum of electronic and thermal Enthalpies=            -420.084046
 Sum of electronic and thermal Free Energies=         -420.129656

                     E (Thermal)             CV                S
                      KCal/Mol        Cal/Mol-Kelvin    Cal/Mol-Kelvin
 Total                   75.868             29.856             95.994
 Electronic               0.000              0.000              1.377
 Translational            0.889              2.981             40.136
 Rotational               0.889              2.981             28.684
 Vibrational             74.091             23.894             25.797
 Vibration     1          0.593              1.986              6.949
 Vibration     2          0.600              1.963              3.920
 Vibration     3          0.608              1.935              3.138
 Vibration     4          0.636              1.846              2.176
 Vibration     5          0.656              1.782              1.814
 Vibration     6          0.672              1.734              1.615
 Vibration     7          0.683              1.701              1.502
 Vibration     8          0.720              1.595              1.211
 Vibration     9          0.786              1.417              0.877
 Vibration    10          0.911              1.128              0.533

 1\1\GINC-AJ\Freq\UM062X\6-311++G(d,p)\C5H7O3(2)\AAYUSH\16-Aug-2025\0\\
 # freq 6-311++g(d,p) m062x\\Title Card Required\\0,2\O,3.284343,0.8207
 33,0.118429\H,2.517282,1.386095,-0.078141\C,2.319733,-1.014284,0.28863
 4\H,3.256228,-1.482214,0.490461\C,1.160226,-0.734448,0.087605\C,-0.083
 442,-0.036183,-0.193195\O,-0.111243,1.150963,-0.390213\O,-1.131806,-0.
 848462,-0.20771\C,-2.413294,-0.233065,-0.464886\C,-2.958872,0.427931,0
 .78515\H,-3.040391,-1.060329,-0.791448\H,-2.297977,0.482079,-1.279971\
 H,-3.958692,0.81723,0.584096\H,-3.026966,-0.294861,1.599403\H,-2.32258

 Normal termination of Gaussian 16 at Sat Aug 16 17:32:08 2025.
