 Gaussian 16, Revision A.03,
 Gaussian 16:  ES64L-G16RevA.03 25-Dec-2016

 --------------------------
 # freq 6-311++g(d,p) m062x
 --------------------------

 -------------------
 Title Card Required
 -------------------
 Symbolic Z-matrix:
 Charge =  0 Multiplicity = 2

                         Standard orientation:
 ---------------------------------------------------------------------
 Center     Atomic      Atomic             Coordinates (Angstroms)
 Number     Number       Type             X           Y           Z
 ---------------------------------------------------------------------
      1          8           0        3.327241    0.759727    0.107333
      2          1           0        2.580545    1.347611   -0.092860
      3          6           0        2.436220   -0.922407    0.269547
      4          1           0        3.307454   -1.506498    0.484210
      5          6           0        1.230286   -0.749598    0.078499
      6          6           0       -0.011069   -0.045814   -0.206153
      7          8           0       -0.039904    1.139979   -0.408188
      8          8           0       -1.057865   -0.860157   -0.216906
      9          6           0       -2.340924   -0.248299   -0.476657
     10          6           0       -2.887230    0.417163    0.770580
     11          1           0       -2.966260   -1.078320   -0.799432
     12          1           0       -2.226855    0.463204   -1.295076
     13          1           0       -3.887805    0.803612    0.567916
     14          1           0       -2.953914   -0.302104    1.588054
     15          1           0       -2.252652    1.249825    1.074389
 ---------------------------------------------------------------------

 SCF Done:  E(UM062X) =  -420.207706533     A.U. after   20 cycles

 The electronic state is 2-A.
 Alpha  occ. eigenvalues --  -19.69730 -19.64745 -19.64051 -10.72064 -10.61776
 Alpha  occ. eigenvalues --  -10.61648 -10.59254 -10.54660  -1.27171  -1.17919
 Alpha  occ. eigenvalues --   -1.10016  -0.92310  -0.88661  -0.79391  -0.72141
 Alpha  occ. eigenvalues --   -0.65908  -0.62382  -0.59975  -0.57928  -0.54645
 Alpha  occ. eigenvalues --   -0.52012  -0.50609  -0.49018  -0.47888  -0.46259
 Alpha  occ. eigenvalues --   -0.43162  -0.41494  -0.40628  -0.39834  -0.36679
 Alpha  occ. eigenvalues --   -0.32460
 Alpha virt. eigenvalues --   -0.02951  -0.00548   0.00802   0.01342   0.01861
 Alpha virt. eigenvalues --    0.02404   0.03859   0.05027   0.05363   0.06122
 Alpha virt. eigenvalues --    0.06662   0.07237   0.07938   0.08794   0.09871

  Beta  occ. eigenvalues --  -19.69710 -19.64658 -19.62940 -10.72099 -10.61905
  Beta  occ. eigenvalues --  -10.61645 -10.58840 -10.54660  -1.27067  -1.17700
  Beta  occ. eigenvalues --   -1.05792  -0.91208  -0.88008  -0.79242  -0.71809
  Beta  occ. eigenvalues --   -0.65791  -0.61947  -0.59709  -0.57691  -0.54495
  Beta  occ. eigenvalues --   -0.50403  -0.49902  -0.47765  -0.46301  -0.43096
  Beta  occ. eigenvalues --   -0.41590  -0.40374  -0.39807  -0.38424  -0.34640
  Beta virt. eigenvalues --   -0.09777  -0.02878  -0.00550   0.00942   0.01327
  Beta virt. eigenvalues --    0.01989   0.02700   0.04257   0.05181   0.05617
  Beta virt. eigenvalues --    0.06466   0.06952   0.07550   0.08275   0.08901

 Mulliken charges and spin densities:
               1          2
     1  O   -0.309600   0.607615
     2  H    0.248061  -0.013338
     3  C   -1.538447  -0.159951
     4  H    0.205247   0.028182
     5  C    1.658398   0.533888
     6  C   -0.290813  -0.024513
     7  O   -0.251936   0.024252
     8  O    0.029787   0.004032
     9  C   -0.266775  -0.002444
    10  C   -0.405608   0.001797
    11  H    0.200359   0.000095
    12  H    0.200700   0.000397
    13  H    0.167183   0.000170
    14  H    0.168912   0.000015
    15  H    0.184534  -0.000197
 Sum of Mulliken charges =  -0.00000   1.00000

 Dipole moment (field-independent basis, Debye):
    X=             -3.3158    Y=             -1.7558    Z=              0.1030  Tot=              3.7534
 Quadrupole moment (field-independent basis, Debye-Ang):
   XX=            -46.5858   YY=            -48.4108   ZZ=            -47.7011
   XY=             -5.9047   XZ=              1.2226   YZ=             -0.2567

  Exact polarizability: 107.662   7.521  71.902   2.956  -2.249  50.564
 Approx polarizability: 110.500   7.073  89.835   5.634  -4.646  58.667

 ******    1 imaginary frequencies (negative Signs) ******

                      1                      2                      3
                      A                      A                      A
 Frequencies --   -814.7873                59.5349                91.4383
 Red. masses --     10.5567                 6.2534                 6.0719
 Frc consts  --      4.1292                 0.0131                 0.0299
 IR Inten    --     51.6293                 0.3448                 0.1907

                      4                      5                      6
                      A                      A                      A
 Frequencies --    111.0067               136.1837               212.9748
 Red. masses --      2.7279                 5.0868                 1.4986
 Frc consts  --      0.0198                 0.0556                 0.0400
 IR Inten    --      0.6390                 3.3522                 2.8242

                      7                      8                      9
                      A                      A                      A
 Frequencies --    256.2524               277.7463               307.3896
 Red. masses --      2.8419                 3.0143                 1.1431
 Frc consts  --      0.1100                 0.1370                 0.0636
 IR Inten    --      4.9108                 1.3996               109.5466

                     10                     11                     12
                      A                      A                      A
 Frequencies --    341.8062               429.7273               555.3397
 Red. masses --      3.0845                 3.9386                 4.8085
 Frc consts  --      0.2123                 0.4285                 0.8737
 IR Inten    --     15.2692                 2.7525                 5.3386

                     13                     14                     15
                      A                      A                      A
 Frequencies --    612.8710               769.0587               785.9583
 Red. masses --      8.1045                 2.8405                 1.9931
 Frc consts  --      1.7935                 0.9898                 0.7254
 IR Inten    --     12.0863                 0.2378                58.7278

                     16                     17                     18
                      A                      A                      A
 Frequencies --    800.5010               857.6687               893.3484
 Red. masses --      1.2241                 1.1326                 2.9680
 Frc consts  --      0.4621                 0.4909                 1.3956
 IR Inten    --      3.3184               150.7382                12.5497

                     19                     20                     21
                      A                      A                      A
 Frequencies --    926.1109               980.3345              1073.5634
 Red. masses --      2.5419                 1.1270                 4.0635
 Frc consts  --      1.2845                 0.6381                 2.7593
 IR Inten    --      4.2135                42.6642                27.7229

                     22                     23                     24
                      A                      A                      A
 Frequencies --   1127.7539              1203.8639              1301.7596
 Red. masses --      2.0712                 1.7668                 3.0440
 Frc consts  --      1.5521                 1.5087                 3.0392
 IR Inten    --     23.5970                 2.9265               640.5340

                     25                     26                     27
                      A                      A                      A
 Frequencies --   1350.0112              1403.2333              1432.1031
 Red. masses --      1.3081                 1.2989                 1.3956
 Frc consts  --      1.4046                 1.5069                 1.6864
 IR Inten    --    176.5471                46.1203                15.2911

                     28                     29                     30
                      A                      A                      A
 Frequencies --   1493.0284              1503.2014              1515.2643
 Red. masses --      1.0413                 1.0618                 1.0866
 Frc consts  --      1.3676                 1.4136                 1.4699
 IR Inten    --      9.6901                 3.2605                20.1966

                     31                     32                     33
                      A                      A                      A
 Frequencies --   1810.1681              2006.2122              3076.3029
 Red. masses --     11.5973                 6.7798                 1.0354
 Frc consts  --     22.3895                16.0777                 5.7733
 IR Inten    --    201.7534               126.2726                 9.0966

                     34                     35                     36
                      A                      A                      A
 Frequencies --   3109.7899              3151.9519              3156.4060
 Red. masses --      1.0608                 1.1013                 1.1049
 Frc consts  --      6.0446                 6.4466                 6.4859
 IR Inten    --     16.9781                13.9040                 1.3517

                     37                     38                     39
                      A                      A                      A
 Frequencies --   3177.5174              3402.9891              3787.0754
 Red. masses --      1.1076                 1.1339                 1.0681
 Frc consts  --      6.5889                 7.7369                 9.0258
 IR Inten    --     13.9940                50.3015                43.4650

 - Thermochemistry -
 -------------------
 Temperature   298.150 Kelvin.  Pressure   1.00000 Atm.
 Atom     1 has atomic number  8 and mass  15.99491

 Molecular mass:   115.03952 amu.
 Principal axes and moments of inertia in atomic units:
                           1         2         3
     Eigenvalues --   324.654021899.263702070.56704
           X            0.99993  -0.00989  -0.00584
           Y            0.00998   0.99983   0.01581
           Z            0.00569  -0.01586   0.99986
 This molecule is an asymmetric top.
 Rotational symmetry number  1.
 Rotational temperatures (Kelvin)      0.26679     0.04560     0.04183
 Rotational constants (GHZ):           5.55897     0.95023     0.87162
    1 imaginary frequencies ignored.
 Zero-point vibrational energy     296000.7 (Joules/Mol)
                                   70.74586 (Kcal/Mol)
 Warning -- explicit consideration of  12 degrees of freedom as
           vibrations may cause significant error
 Vibrational temperatures:     85.66   131.56   159.71   195.94   306.42
          (Kelvin)            368.69   399.61   442.27   491.78   618.28
                              799.01   881.78  1106.50  1130.82  1151.74
                             1233.99  1285.33  1332.47  1410.48  1544.62
                             1622.59  1732.09  1872.94  1942.37  2018.94
                             2060.48  2148.13  2162.77  2180.13  2604.43
                             2886.49  4426.11  4474.29  4534.96  4541.36
                             4571.74  4896.14  5448.76

 Zero-point correction=                           0.112741 (Hartree/Particle)
 Thermal correction to Energy=                    0.121963
 Thermal correction to Enthalpy=                  0.122907
 Thermal correction to Gibbs Free Energy=         0.077534
 Sum of electronic and zero-point Energies=           -420.094966
 Sum of electronic and thermal Energies=              -420.085743
 Sum of electronic and thermal Enthalpies=            -420.084799
 Sum of electronic and thermal Free Energies=         -420.130172

                     E (Thermal)             CV                S
                      KCal/Mol        Cal/Mol-Kelvin    Cal/Mol-Kelvin
 Total                   76.533             31.280             95.496
 Electronic               0.000              0.000              1.377
 Translational            0.889              2.981             40.136
 Rotational               0.889              2.981             28.636
 Vibrational             74.756             25.319             25.346
 Vibration     1          0.597              1.974              4.473
 Vibration     2          0.602              1.955              3.629
 Vibration     3          0.607              1.940              3.251
 Vibration     4          0.614              1.917              2.857
 Vibration     5          0.644              1.821              2.018
 Vibration     6          0.666              1.752              1.687
 Vibration     7          0.679              1.715              1.548
 Vibration     8          0.697              1.660              1.376
 Vibration     9          0.721              1.592              1.204
 Vibration    10          0.791              1.406              0.860
 Vibration    11          0.911              1.128              0.533
 Vibration    12          0.972              1.005              0.428

 1\1\GINC-AJ\Freq\UM062X\6-311++G(d,p)\C5H7O3(2)\AAYUSH\16-Aug-2025\0\\
 # freq 6-311++g(d,p) m062x\\Title Card Required\\0,2\O,3.256382,0.7612
 56,0.124394\H,2.510874,1.351493,-0.073289\C,2.36203,-0.919829,0.278974
 \H,3.23208,-1.506583,0.491162\C,1.156468,-0.7438,0.088517\C,-0.083455,
 -0.036314,-0.193182\O,-0.109927,1.150422,-0.389933\O,-1.131848,-0.8485
 41,-0.207722\C,-2.413661,-0.23301,-0.464936\C,-2.958856,0.427959,0.785
 173\H,-3.040576,-1.060353,-0.791501\H,-2.298063,0.481908,-1.280158\H,-
 3.958637,0.817274,0.584083\H,-3.027084,-0.294812,1.599423\H,-2.322691,

 Normal termination of Gaussian 16 at Sat Aug 16 17:20:53 2025.
