 Gaussian 16, Revision A.03,
 Gaussian 16:  ES64L-G16RevA.03 25-Dec-2016

 --------------------------
 # freq 6-311++g(d,p) m062x
 --------------------------

 -------------------
 Title Card Required
 -------------------
 Symbolic Z-matrix:
 Charge =  0 Multiplicity = 2

                         Standard orientation:
 ---------------------------------------------------------------------
 Center     Atomic      Atomic             Coordinates (Angstroms)
 Number     Number       Type             X           Y           Z
 ---------------------------------------------------------------------
      1          8           0        3.316166    0.741579    0.107252
      2          1           0        2.575776    1.335190   -0.094805
      3          6           0        2.455188   -0.880504    0.267914
      4          1           0        3.293824   -1.512949    0.488106
      5          6           0        1.228170   -0.753940    0.081166
      6          6           0       -0.010311   -0.046008   -0.206000
      7          8           0       -0.040789    1.139150   -0.411504
      8          8           0       -1.056785   -0.861686   -0.214355
      9          6           0       -2.340574   -0.252198   -0.475743
     10          6           0       -2.887505    0.416233    0.769623
     11          1           0       -2.964992   -1.083868   -0.796065
     12          1           0       -2.227461    0.457066   -1.296254
     13          1           0       -3.888551    0.800938    0.565976
     14          1           0       -2.953271   -0.300741    1.589187
     15          1           0       -2.253878    1.250524    1.070952
 ---------------------------------------------------------------------

 SCF Done:  E(UM062X) =  -420.212766094     A.U. after   20 cycles

 The electronic state is 2-A.
 Alpha  occ. eigenvalues --  -19.69721 -19.64772 -19.63813 -10.72030 -10.62843
 Alpha  occ. eigenvalues --  -10.61649 -10.59636 -10.54664  -1.27170  -1.17942
 Alpha  occ. eigenvalues --   -1.09818  -0.92474  -0.88712  -0.79450  -0.72251
 Alpha  occ. eigenvalues --   -0.65943  -0.62317  -0.60006  -0.57962  -0.54640
 Alpha  occ. eigenvalues --   -0.51997  -0.50646  -0.48909  -0.47895  -0.46258
 Alpha  occ. eigenvalues --   -0.43183  -0.41711  -0.40681  -0.39858  -0.36268
 Alpha  occ. eigenvalues --   -0.31975
 Alpha virt. eigenvalues --   -0.03151  -0.00563   0.00777   0.01330   0.01839
 Alpha virt. eigenvalues --    0.02403   0.03825   0.05074   0.05498   0.06181
 Alpha virt. eigenvalues --    0.06735   0.07273   0.07937   0.08794   0.09912

  Beta  occ. eigenvalues --  -19.69698 -19.64663 -19.62922 -10.72071 -10.62994
  Beta  occ. eigenvalues --  -10.61645 -10.59120 -10.54664  -1.27042  -1.17673
  Beta  occ. eigenvalues --   -1.06543  -0.91112  -0.87945  -0.79284  -0.71844
  Beta  occ. eigenvalues --   -0.65800  -0.61850  -0.59674  -0.57669  -0.54464
  Beta  occ. eigenvalues --   -0.50398  -0.50165  -0.47761  -0.46289  -0.43110
  Beta  occ. eigenvalues --   -0.42111  -0.40770  -0.39858  -0.38778  -0.34409
  Beta virt. eigenvalues --   -0.09543  -0.03036  -0.00579   0.00884   0.01310
  Beta virt. eigenvalues --    0.01986   0.02683   0.04262   0.05178   0.05596
  Beta virt. eigenvalues --    0.06411   0.06944   0.07706   0.08296   0.08868

 Mulliken charges and spin densities:
               1          2
     1  O   -0.319055   0.482982
     2  H    0.247817  -0.010608
     3  C   -1.336337  -0.183896
     4  H    0.208157   0.030084
     5  C    1.467542   0.670655
     6  C   -0.290938  -0.022919
     7  O   -0.251532   0.030108
     8  O    0.027742   0.004311
     9  C   -0.267753  -0.003341
    10  C   -0.406798   0.002022
    11  H    0.199950   0.000092
    12  H    0.200860   0.000479
    13  H    0.166757   0.000218
    14  H    0.169083   0.000042
    15  H    0.184506  -0.000229
 Sum of Mulliken charges =  -0.00000   1.00000

 Dipole moment (field-independent basis, Debye):
    X=             -3.3870    Y=             -1.8570    Z=              0.1145  Tot=              3.8644
 Quadrupole moment (field-independent basis, Debye-Ang):
   XX=            -47.2485   YY=            -48.4144   ZZ=            -47.7102
   XY=             -6.1526   XZ=              1.2104   YZ=             -0.2678

  Exact polarizability: 105.703   5.980  70.461   2.965  -2.250  50.589
 Approx polarizability: 109.234   7.618  90.300   5.339  -4.719  58.806

 ******    1 imaginary frequencies (negative Signs) ******

                      1                      2                      3
                      A                      A                      A
 Frequencies --   -784.6172                63.5046               103.5586
 Red. masses --     11.0362                 5.9154                 4.7790
 Frc consts  --      4.0030                 0.0141                 0.0302
 IR Inten    --      1.6403                 0.6101                 0.2731

                      4                      5                      6
                      A                      A                      A
 Frequencies --    116.7917               156.4145               215.8836
 Red. masses --      3.1247                 5.3825                 1.3774
 Frc consts  --      0.0251                 0.0776                 0.0378
 IR Inten    --      0.1199                 2.6784                 2.2998

                      7                      8                      9
                      A                      A                      A
 Frequencies --    268.6950               290.9625               325.9222
 Red. masses --      3.2024                 2.4992                 1.2666
 Frc consts  --      0.1362                 0.1247                 0.0793
 IR Inten    --      5.1202                 3.6299               104.7133

                     10                     11                     12
                      A                      A                      A
 Frequencies --    345.1202               434.6719               558.6932
 Red. masses --      2.9696                 3.8261                 5.0092
 Frc consts  --      0.2084                 0.4259                 0.9212
 IR Inten    --     19.6530                 3.8173                 4.6524

                     13                     14                     15
                      A                      A                      A
 Frequencies --    609.6659               767.0751               792.9545
 Red. masses --      7.5876                 3.7824                 1.6763
 Frc consts  --      1.6617                 1.3113                 0.6210
 IR Inten    --     11.9815                 2.1457                53.3115

                     16                     17                     18
                      A                      A                      A
 Frequencies --    800.3856               891.2363               907.4717
 Red. masses --      1.2537                 2.9735                 1.1507
 Frc consts  --      0.4732                 1.3916                 0.5583
 IR Inten    --      6.6079                11.1638               106.4181

                     19                     20                     21
                      A                      A                      A
 Frequencies --    927.0723              1055.7395              1079.2888
 Red. masses --      2.6283                 1.3625                 2.3818
 Frc consts  --      1.3309                 0.8947                 1.6347
 IR Inten    --      2.7491                32.0983                51.1238

                     22                     23                     24
                      A                      A                      A
 Frequencies --   1127.6868              1203.7444              1300.5025
 Red. masses --      2.0717                 1.7660                 3.1149
 Frc consts  --      1.5522                 1.5076                 3.1040
 IR Inten    --     24.7160                 2.9340               616.2686

                     25                     26                     27
                      A                      A                      A
 Frequencies --   1349.6229              1403.0232              1431.8684
 Red. masses --      1.2974                 1.2956                 1.3917
 Frc consts  --      1.3923                 1.5027                 1.6811
 IR Inten    --    164.2826                42.1474                13.6724

                     28                     29                     30
                      A                      A                      A
 Frequencies --   1493.0494              1503.1148              1515.1372
 Red. masses --      1.0413                 1.0619                 1.0860
 Frc consts  --      1.3677                 1.4135                 1.4689
 IR Inten    --      9.7538                 3.0377                19.4668

                     31                     32                     33
                      A                      A                      A
 Frequencies --   1806.7304              1940.8638              3076.3189
 Red. masses --     11.3850                 7.2283                 1.0354
 Frc consts  --     21.8963                16.0427                 5.7733
 IR Inten    --    198.5685               148.0997                 9.0875

                     34                     35                     36
                      A                      A                      A
 Frequencies --   3109.6306              3151.9672              3156.3473
 Red. masses --      1.0609                 1.1014                 1.1049
 Frc consts  --      6.0441                 6.4468                 6.4856
 IR Inten    --     16.8934                13.8547                 1.3825

                     37                     38                     39
                      A                      A                      A
 Frequencies --   3177.4339              3364.9540              3797.8597
 Red. masses --      1.1076                 1.1251                 1.0682
 Frc consts  --      6.5884                 7.5058                 9.0779
 IR Inten    --     14.0129                33.3717                45.7831

 - Thermochemistry -
 -------------------
 Temperature   298.150 Kelvin.  Pressure   1.00000 Atm.
 Atom     1 has atomic number  8 and mass  15.99491

 Molecular mass:   115.03952 amu.
 Principal axes and moments of inertia in atomic units:
                           1         2         3
     Eigenvalues --   320.150591898.226142065.11828
           X            0.99993  -0.00988  -0.00584
           Y            0.00997   0.99982   0.01607
           Z            0.00568  -0.01612   0.99985
 This molecule is an asymmetric top.
 Rotational symmetry number  1.
 Rotational temperatures (Kelvin)      0.27054     0.04563     0.04194
 Rotational constants (GHZ):           5.63716     0.95075     0.87392
    1 imaginary frequencies ignored.
 Zero-point vibrational energy     296799.3 (Joules/Mol)
                                   70.93673 (Kcal/Mol)
 Warning -- explicit consideration of  12 degrees of freedom as
           vibrations may cause significant error
 Vibrational temperatures:     91.37   149.00   168.04   225.05   310.61
          (Kelvin)            386.59   418.63   468.93   496.55   625.40
                              803.83   877.17  1103.65  1140.88  1151.58
                             1282.29  1305.65  1333.85  1518.97  1552.86
                             1622.49  1731.92  1871.13  1941.81  2018.64
                             2060.14  2148.17  2162.65  2179.94  2599.48
                             2792.47  4426.14  4474.06  4534.98  4541.28
                             4571.62  4841.42  5464.27

 Zero-point correction=                           0.113045 (Hartree/Particle)
 Thermal correction to Energy=                    0.122098
 Thermal correction to Enthalpy=                  0.123042
 Thermal correction to Gibbs Free Energy=         0.078204
 Sum of electronic and zero-point Energies=           -420.099721
 Sum of electronic and thermal Energies=              -420.090668
 Sum of electronic and thermal Enthalpies=            -420.089724
 Sum of electronic and thermal Free Energies=         -420.134562

                     E (Thermal)             CV                S
                      KCal/Mol        Cal/Mol-Kelvin    Cal/Mol-Kelvin
 Total                   76.618             30.982             94.370
 Electronic               0.000              0.000              1.377
 Translational            0.889              2.981             40.136
 Rotational               0.889              2.981             28.619
 Vibrational             74.840             25.021             24.238
 Vibration     1          0.597              1.972              4.345
 Vibration     2          0.605              1.946              3.386
 Vibration     3          0.608              1.935              3.153
 Vibration     4          0.620              1.895              2.593
 Vibration     5          0.645              1.817              1.993
 Vibration     6          0.673              1.731              1.605
 Vibration     7          0.687              1.691              1.468
 Vibration     8          0.710              1.624              1.280
 Vibration     9          0.723              1.585              1.188
 Vibration    10          0.795              1.395              0.844
 Vibration    11          0.914              1.121              0.526
 Vibration    12          0.969              1.011              0.433

 1\1\GINC-AJ\Freq\UM062X\6-311++G(d,p)\C5H7O3(2)\AAYUSH\16-Aug-2025\0\\
 # freq 6-311++g(d,p) m062x\\Title Card Required\\0,2\O,3.245967,0.7386
 67,0.126687\H,2.507499,1.336077,-0.071163\C,2.379851,-0.88184,0.275184
 \H,3.216438,-1.518526,0.490905\C,1.153286,-0.750043,0.089086\C,-0.0828
 89,-0.03612,-0.193145\O,-0.109587,1.15061,-0.389914\O,-1.13192,-0.8484
 18,-0.207759\C,-2.413719,-0.232984,-0.464949\C,-2.958867,0.427967,0.78
 5182\H,-3.040666,-1.060302,-0.79154\H,-2.298164,0.481949,-1.280182\H,-
 3.958646,0.81731,0.584141\H,-3.027099,-0.294818,1.599423\H,-2.322698,1

 Normal termination of Gaussian 16 at Sat Aug 16 17:16:33 2025.
