 Gaussian 16, Revision A.03,
 Gaussian 16:  ES64L-G16RevA.03 25-Dec-2016

 -------------------
 # freq 6-31+g m062x
 -------------------

 -------------------
 Title Card Required
 -------------------
 Symbolic Z-matrix:
 Charge =  0 Multiplicity = 2

                         Standard orientation:
 ---------------------------------------------------------------------
 Center     Atomic      Atomic             Coordinates (Angstroms)
 Number     Number       Type             X           Y           Z
 ---------------------------------------------------------------------
      1          8           0        3.310654    0.732357    0.107261
      2          1           0        2.573682    1.329159   -0.095788
      3          6           0        2.464414   -0.859601    0.267013
      4          1           0        3.286424   -1.514859    0.489845
      5          6           0        1.227199   -0.756507    0.082623
      6          6           0       -0.009769   -0.046120   -0.205899
      7          8           0       -0.041208    1.138782   -0.413207
      8          8           0       -1.056283   -0.862395   -0.213066
      9          6           0       -2.340371   -0.254085   -0.475288
     10          6           0       -2.887634    0.415887    0.769111
     11          1           0       -2.964393   -1.086547   -0.794362
     12          1           0       -2.227753    0.454055   -1.296852
     13          1           0       -3.888905    0.799756    0.564974
     14          1           0       -2.952958   -0.299915    1.589740
     15          1           0       -2.254435    1.250963    1.069175
 ---------------------------------------------------------------------

 SCF Done:  E(UM062X) =  -419.967434308     A.U. after   20 cycles

 The electronic state is 2-A.
 Alpha  occ. eigenvalues --  -19.72148 -19.68067 -19.66684 -10.74459 -10.64693
 Alpha  occ. eigenvalues --  -10.62698 -10.61552 -10.55536  -1.29636  -1.20334
 Alpha  occ. eigenvalues --   -1.11360  -0.93438  -0.89516  -0.80097  -0.73100
 Alpha  occ. eigenvalues --   -0.66186  -0.62732  -0.60089  -0.58499  -0.55191
 Alpha  occ. eigenvalues --   -0.52525  -0.50911  -0.48812  -0.48055  -0.46363
 Alpha  occ. eigenvalues --   -0.43307  -0.42121  -0.40792  -0.39749  -0.36226
 Alpha  occ. eigenvalues --   -0.31990
 Alpha virt. eigenvalues --   -0.03431   0.01420   0.02730   0.03009   0.03619
 Alpha virt. eigenvalues --    0.04513   0.05322   0.06185   0.07230   0.07703
 Alpha virt. eigenvalues --    0.08037   0.08614   0.09369   0.10285   0.11727

  Beta  occ. eigenvalues --  -19.72122 -19.67947 -19.65853 -10.74510 -10.64868
  Beta  occ. eigenvalues --  -10.62694 -10.60947 -10.55536  -1.29485  -1.20086
  Beta  occ. eigenvalues --   -1.08510  -0.91965  -0.88872  -0.79881  -0.72626
  Beta  occ. eigenvalues --   -0.66064  -0.62290  -0.59789  -0.58139  -0.55012
  Beta  occ. eigenvalues --   -0.50668  -0.50638  -0.48029  -0.46378  -0.43185
  Beta  occ. eigenvalues --   -0.42422  -0.41243  -0.39779  -0.39064  -0.34435
  Beta virt. eigenvalues --   -0.09692  -0.03393   0.01250   0.02561   0.02985
  Beta virt. eigenvalues --    0.03935   0.04518   0.06145   0.06208   0.07394
  Beta virt. eigenvalues --    0.07452   0.08013   0.08799   0.09594   0.10362

 Mulliken charges and spin densities:
               1          2
     1  O   -0.536234   0.438393
     2  H    0.412656  -0.013765
     3  C   -0.234734  -0.281536
     4  H    0.269887   0.032903
     5  C    0.012498   0.798798
     6  C    0.364099  -0.009287
     7  O   -0.410608   0.027206
     8  O   -0.219557   0.007077
     9  C   -0.221696  -0.002339
    10  C   -0.566488   0.002442
    11  H    0.224830   0.000041
    12  H    0.236708   0.000018
    13  H    0.211371   0.000121
    14  H    0.222201   0.000008
    15  H    0.235066  -0.000081
 Sum of Mulliken charges =  -0.00000   1.00000

 Dipole moment (field-independent basis, Debye):
    X=             -3.5433    Y=             -1.7007    Z=              0.0638  Tot=              3.9308
 Quadrupole moment (field-independent basis, Debye-Ang):
   XX=            -48.7263   YY=            -49.4737   ZZ=            -47.9660
   XY=             -6.3660   XZ=              1.1219   YZ=             -0.1791

  Exact polarizability: 101.282   6.458  67.740   3.382  -2.844  46.684
 Approx polarizability: 103.954   9.069  85.353   5.699  -5.584  49.368

 ******    4 imaginary frequencies (negative Signs) ******

                      1                      2                      3
                      A                      A                      A
 Frequencies --   -734.5567              -343.4492               -48.8872
 Red. masses --     11.6589                 1.0744                 4.0605
 Frc consts  --      3.7065                 0.0747                 0.0057
 IR Inten    --      1.9762               139.4811                 3.7740

                      4                      5                      6
                      A                      A                      A
 Frequencies --    -28.1984                42.9370               148.0317
 Red. masses --      5.8165                 3.5520                 5.3822
 Frc consts  --      0.0027                 0.0039                 0.0695
 IR Inten    --      0.8468                 1.5933                 8.1762

                      7                      8                      9
                      A                      A                      A
 Frequencies --    179.3801               261.4016               274.0096
 Red. masses --      1.2550                 3.7548                 3.4589
 Frc consts  --      0.0238                 0.1512                 0.1530
 IR Inten    --      3.4977                 7.3747                12.4426

                     10                     11                     12
                      A                      A                      A
 Frequencies --    324.7410               428.8534               563.8813
 Red. masses --      3.4887                 3.7315                 4.7917
 Frc consts  --      0.2168                 0.4043                 0.8977
 IR Inten    --     20.4150                 4.3130                 7.0803

                     13                     14                     15
                      A                      A                      A
 Frequencies --    614.3480               748.5329               814.2810
 Red. masses --      7.6534                11.4399                 1.3045
 Frc consts  --      1.7019                 3.7765                 0.5096
 IR Inten    --      9.7508                27.4403                17.2466

                     16                     17                     18
                      A                      A                      A
 Frequencies --    815.4318               889.8390               901.9254
 Red. masses --      1.3340                 1.9548                 1.5093
 Frc consts  --      0.5226                 0.9119                 0.7234
 IR Inten    --     28.9614                64.1841                86.7982

                     19                     20                     21
                      A                      A                      A
 Frequencies --    944.2656              1061.9785              1111.8080
 Red. masses --      2.3054                 1.1570                 3.6925
 Frc consts  --      1.2111                 0.7688                 2.6893
 IR Inten    --      4.3428                11.3466                11.1114

                     22                     23                     24
                      A                      A                      A
 Frequencies --   1156.6402              1228.5989              1333.5898
 Red. masses --      2.0525                 1.7488                 1.6598
 Frc consts  --      1.6179                 1.5553                 1.7392
 IR Inten    --     23.3539                 2.4801               285.0536

                     25                     26                     27
                      A                      A                      A
 Frequencies --   1377.2017              1444.6593              1457.8334
 Red. masses --      1.9946                 1.4107                 1.2656
 Frc consts  --      2.2290                 1.7346                 1.5847
 IR Inten    --    414.9374                59.5528                16.7922

                     28                     29                     30
                      A                      A                      A
 Frequencies --   1528.6941              1537.8368              1545.7879
 Red. masses --      1.0421                 1.0694                 1.0753
 Frc consts  --      1.4348                 1.4901                 1.5138
 IR Inten    --     14.0013                 5.1343                24.0486

                     31                     32                     33
                      A                      A                      A
 Frequencies --   1869.3590              1974.1599              3108.6418
 Red. masses --     11.2574                 7.5570                 1.0351
 Frc consts  --     23.1779                17.3527                 5.8937
 IR Inten    --    175.9880               158.6677                11.8492

                     34                     35                     36
                      A                      A                      A
 Frequencies --   3139.8531              3189.0891              3192.5363
 Red. masses --      1.0602                 1.1003                 1.1026
 Frc consts  --      6.1585                 6.5933                 6.6211
 IR Inten    --     18.3433                13.0633                 4.8863

                     37                     38                     39
                      A                      A                      A
 Frequencies --   3213.5814              3389.8032              3816.6547
 Red. masses --      1.1055                 1.1232                 1.0680
 Frc consts  --      6.7265                 7.6043                 9.1657
 IR Inten    --     16.6388                26.0469                28.8098

 - Thermochemistry -
 -------------------
 Temperature   298.150 Kelvin.  Pressure   1.00000 Atm.
 Atom     1 has atomic number  8 and mass  15.99491

 Molecular mass:   115.03952 amu.
 Principal axes and moments of inertia in atomic units:
                           1         2         3
     Eigenvalues --   317.978661897.675072062.44447
           X            0.99993  -0.00987  -0.00584
           Y            0.00996   0.99982   0.01621
           Z            0.00568  -0.01627   0.99985
 This molecule is an asymmetric top.
 Rotational symmetry number  1.
 Rotational temperatures (Kelvin)      0.27239     0.04564     0.04200
 Rotational constants (GHZ):           5.67567     0.95103     0.87505
    4 imaginary frequencies ignored.
 Zero-point vibrational energy     296854.3 (Joules/Mol)
                                   70.94988 (Kcal/Mol)
 Warning -- explicit consideration of   9 degrees of freedom as
           vibrations may cause significant error
 Vibrational temperatures:     61.78   212.98   258.09   376.10   394.24
          (Kelvin)            467.23   617.02   811.30   883.91  1076.97
                             1171.57  1173.22  1280.28  1297.67  1358.59
                             1527.95  1599.64  1664.15  1767.68  1918.74
                             1981.49  2078.54  2097.50  2199.45  2212.60
                             2224.04  2689.59  2840.38  4472.64  4517.55
                             4588.39  4593.35  4623.63  4877.17  5491.31

 Zero-point correction=                           0.113066 (Hartree/Particle)
 Thermal correction to Energy=                    0.120449
 Thermal correction to Enthalpy=                  0.121393
 Thermal correction to Gibbs Free Energy=         0.079601
 Sum of electronic and zero-point Energies=           -419.854368
 Sum of electronic and thermal Energies=              -419.846985
 Sum of electronic and thermal Enthalpies=            -419.846041
 Sum of electronic and thermal Free Energies=         -419.887833

                     E (Thermal)             CV                S
                      KCal/Mol        Cal/Mol-Kelvin    Cal/Mol-Kelvin
 Total                   75.583             25.430             87.959
 Electronic               0.000              0.000              1.377
 Translational            0.889              2.981             40.136
 Rotational               0.889              2.981             28.611
 Vibrational             73.805             19.468             17.835
 Vibration     1          0.595              1.980              5.119
 Vibration     2          0.617              1.905              2.697
 Vibration     3          0.629              1.868              2.335
 Vibration     4          0.669              1.743              1.652
 Vibration     5          0.676              1.721              1.571
 Vibration     6          0.709              1.626              1.286
 Vibration     7          0.790              1.407              0.862
 Vibration     8          0.920              1.109              0.516
 Vibration     9          0.974              1.002              0.426

 Normal termination of Gaussian 16 at Fri Jun 20 13:10:40 2025.
