 Gaussian 16, Revision A.03,
 Gaussian 16:  ES64L-G16RevA.03 25-Dec-2016

 --------------------------
 # freq 6-311++g(d,p) m062x
 --------------------------

 -------------------
 Title Card Required
 -------------------
 Symbolic Z-matrix:
 Charge =  0 Multiplicity = 2

                         Standard orientation:
 ---------------------------------------------------------------------
 Center     Atomic      Atomic             Coordinates (Angstroms)
 Number     Number       Type             X           Y           Z
 ---------------------------------------------------------------------
      1          8           0        3.384835    0.848148    0.109402
      2          1           0        2.595943    1.386525   -0.080566
      3          6           0        2.356957   -1.109271    0.273563
      4          1           0        3.317838   -1.526131    0.465766
      5          6           0        1.227506   -0.749611    0.067557
      6          6           0       -0.011335   -0.042399   -0.206863
      7          8           0       -0.034962    1.146910   -0.392674
      8          8           0       -1.063378   -0.850143   -0.229464
      9          6           0       -2.341933   -0.227233   -0.481022
     10          6           0       -2.885254    0.423925    0.775181
     11          1           0       -2.972419   -1.048670   -0.815737
     12          1           0       -2.223579    0.495385   -1.289070
     13          1           0       -3.883348    0.819453    0.577692
     14          1           0       -2.956592   -0.306437    1.582374
     15          1           0       -2.245441    1.248087    1.090928
 ---------------------------------------------------------------------

 SCF Done:  E(UM062X) =  -420.208707092     A.U. after   24 cycles

 The electronic state is 2-A.
 Alpha  occ. eigenvalues --  -19.69390 -19.66149 -19.64310 -10.71701 -10.61399
 Alpha  occ. eigenvalues --  -10.58447 -10.57456 -10.54466  -1.26779  -1.17463
 Alpha  occ. eigenvalues --   -1.11939  -0.91357  -0.87972  -0.78906  -0.71491
 Alpha  occ. eigenvalues --   -0.65476  -0.61972  -0.59575  -0.57493  -0.54405
 Alpha  occ. eigenvalues --   -0.53847  -0.50233  -0.49337  -0.47571  -0.46077
 Alpha  occ. eigenvalues --   -0.42878  -0.41923  -0.40269  -0.39498  -0.37505
 Alpha  occ. eigenvalues --   -0.34990
 Alpha virt. eigenvalues --   -0.02297  -0.00430   0.00851   0.01464   0.01918
 Alpha virt. eigenvalues --    0.02661   0.03979   0.05038   0.05343   0.05963
 Alpha virt. eigenvalues --    0.06622   0.07365   0.08094   0.08888   0.10185

  Beta  occ. eigenvalues --  -19.69382 -19.64606 -19.64291 -10.71713 -10.61398
  Beta  occ. eigenvalues --  -10.58461 -10.57326 -10.54466  -1.26751  -1.17408
  Beta  occ. eigenvalues --   -1.04587  -0.91045  -0.87685  -0.78838  -0.71381
  Beta  occ. eigenvalues --   -0.65435  -0.61698  -0.59502  -0.57427  -0.54346
  Beta  occ. eigenvalues --   -0.50883  -0.50169  -0.47529  -0.46117  -0.42857
  Beta  occ. eigenvalues --   -0.40750  -0.39651  -0.39313  -0.37303  -0.36311
  Beta virt. eigenvalues --   -0.08041  -0.02258  -0.00397   0.01021   0.01464
  Beta virt. eigenvalues --    0.02065   0.02809   0.04242   0.05212   0.05763
  Beta virt. eigenvalues --    0.06267   0.06716   0.07384   0.08269   0.09070

 Mulliken charges and spin densities:
               1          2
     1  O   -0.275562   0.904817
     2  H    0.254702  -0.017669
     3  C   -2.317835   0.007820
     4  H    0.187593   0.012529
     5  C    2.267048   0.113345
     6  C   -0.154849  -0.028808
     7  O   -0.256422   0.004805
     8  O    0.039156   0.002290
     9  C   -0.261217   0.000007
    10  C   -0.402190   0.000753
    11  H    0.200987   0.000005
    12  H    0.198246   0.000184
    13  H    0.168361   0.000005
    14  H    0.167835  -0.000037
    15  H    0.184146  -0.000047
 Sum of Mulliken charges =  -0.00000   1.00000

 Dipole moment (field-independent basis, Debye):
    X=             -2.7197    Y=             -1.1485    Z=              0.0596  Tot=              2.9529
 Quadrupole moment (field-independent basis, Debye-Ang):
   XX=            -43.8552   YY=            -48.4999   ZZ=            -47.7529
   XY=             -4.3224   XZ=              1.1672   YZ=             -0.1767

  Exact polarizability:  99.139  -0.664  67.056   3.284  -2.144  50.537
 Approx polarizability: 102.964  -4.079  83.182   6.455  -4.729  58.306

 ******    2 imaginary frequencies (negative Signs) ******

                      1                      2                      3
                      A                      A                      A
 Frequencies --    -56.7474               -43.8319                77.3032
 Red. masses --      6.4485                 6.8496                 3.9618
 Frc consts  --      0.0122                 0.0078                 0.0139
 IR Inten    --      1.1466                 0.5853                 2.8117

                      4                      5                      6
                      A                      A                      A
 Frequencies --    116.8673               178.2239               200.0383
 Red. masses --      3.3618                 4.4206                 3.9133
 Frc consts  --      0.0271                 0.0827                 0.0923
 IR Inten    --      1.4654                 7.3219                 0.1485

                      7                      8                      9
                      A                      A                      A
 Frequencies --    236.5912               267.1136               279.3671
 Red. masses --      1.5250                 3.9922                 1.0649
 Frc consts  --      0.0503                 0.1678                 0.0490
 IR Inten    --      2.8810                 6.3623               110.4198

                     10                     11                     12
                      A                      A                      A
 Frequencies --    339.9091               423.9220               557.9067
 Red. masses --      2.9792                 4.0599                 4.5058
 Frc consts  --      0.2028                 0.4299                 0.8263
 IR Inten    --     15.0998                 1.6870                 3.8643

                     13                     14                     15
                      A                      A                      A
 Frequencies --    625.6089               662.1720               776.2619
 Red. masses --      6.1173                 1.0918                 1.1382
 Frc consts  --      1.4106                 0.2820                 0.4041
 IR Inten    --      5.0737               187.2825                53.5006

                     16                     17                     18
                      A                      A                      A
 Frequencies --    779.6073               787.3523               801.6530
 Red. masses --      3.2228                 1.7192                 1.2222
 Frc consts  --      1.1541                 0.6279                 0.4628
 IR Inten    --      2.4727                58.5491                 5.0894

                     19                     20                     21
                      A                      A                      A
 Frequencies --    896.3127               932.8454              1075.8849
 Red. masses --      3.0682                 2.9584                 4.1611
 Frc consts  --      1.4523                 1.5168                 2.8379
 IR Inten    --     11.5402                 4.2259                24.9021

                     22                     23                     24
                      A                      A                      A
 Frequencies --   1128.2486              1204.3340              1306.9913
 Red. masses --      2.0770                 1.7691                 2.7868
 Frc consts  --      1.5577                 1.5118                 2.8048
 IR Inten    --     23.2953                 3.0429               571.7431

                     25                     26                     27
                      A                      A                      A
 Frequencies --   1351.0113              1403.5498              1432.5273
 Red. masses --      1.3436                 1.3092                 1.4090
 Frc consts  --      1.4449                 1.5195                 1.7036
 IR Inten    --    188.5098                50.9216                16.9239

                     28                     29                     30
                      A                      A                      A
 Frequencies --   1492.8495              1503.4586              1515.6366
 Red. masses --      1.0413                 1.0626                 1.0877
 Frc consts  --      1.3673                 1.4151                 1.4721
 IR Inten    --     10.0125                 3.2833                21.1801

                     31                     32                     33
                      A                      A                      A
 Frequencies --   1816.2577              2229.4023              3075.8168
 Red. masses --     11.8246                 5.9125                 1.0354
 Frc consts  --     22.9823                17.3139                 5.7715
 IR Inten    --    272.3874                84.5618                 9.3811

                     34                     35                     36
                      A                      A                      A
 Frequencies --   3109.1960              3151.2636              3155.9004
 Red. masses --      1.0607                 1.1013                 1.1049
 Frc consts  --      6.0417                 6.4438                 6.4839
 IR Inten    --     17.1699                14.1689                 1.4484

                     37                     38                     39
                      A                      A                      A
 Frequencies --   3176.8087              3488.0008              3756.7785
 Red. masses --      1.1076                 1.1647                 1.0677
 Frc consts  --      6.5857                 8.3484                 8.8781
 IR Inten    --     14.1421                75.0317                26.6940

 - Thermochemistry -
 -------------------
 Temperature   298.150 Kelvin.  Pressure   1.00000 Atm.
 Atom     1 has atomic number  8 and mass  15.99491

 Molecular mass:   115.03952 amu.
 Principal axes and moments of inertia in atomic units:
                           1         2         3
     Eigenvalues --   349.550671905.823012101.55979
           X            0.99993  -0.01035  -0.00590
           Y            0.01043   0.99984   0.01419
           Z            0.00575  -0.01425   0.99988
 This molecule is an asymmetric top.
 Rotational symmetry number  1.
 Rotational temperatures (Kelvin)      0.24779     0.04545     0.04121
 Rotational constants (GHZ):           5.16303     0.94696     0.85876
    2 imaginary frequencies ignored.
 Zero-point vibrational energy     294957.1 (Joules/Mol)
                                   70.49643 (Kcal/Mol)
 Warning -- explicit consideration of  10 degrees of freedom as
           vibrations may cause significant error
 Vibrational temperatures:    111.22   168.15   256.42   287.81   340.40
          (Kelvin)            384.32   401.95   489.05   609.93   802.70
                              900.11   952.72  1116.87  1121.68  1132.82
                             1153.40  1289.59  1342.16  1547.96  1623.30
                             1732.77  1880.47  1943.80  2019.40  2061.09
                             2147.88  2163.14  2180.66  2613.19  3207.61
                             4425.41  4473.44  4533.97  4540.64  4570.72
                             5018.46  5405.17

 Zero-point correction=                           0.112343 (Hartree/Particle)
 Thermal correction to Energy=                    0.120897
 Thermal correction to Enthalpy=                  0.121841
 Thermal correction to Gibbs Free Energy=         0.078311
 Sum of electronic and zero-point Energies=           -420.096364
 Sum of electronic and thermal Energies=              -420.087810
 Sum of electronic and thermal Enthalpies=            -420.086866
 Sum of electronic and thermal Free Energies=         -420.130397

                     E (Thermal)             CV                S
                      KCal/Mol        Cal/Mol-Kelvin    Cal/Mol-Kelvin
 Total                   75.864             29.955             91.618
 Electronic               0.000              0.000              1.377
 Translational            0.889              2.981             40.136
 Rotational               0.889              2.981             28.728
 Vibrational             74.086             23.993             21.377
 Vibration     1          0.599              1.964              3.958
 Vibration     2          0.608              1.935              3.152
 Vibration     3          0.629              1.869              2.347
 Vibration     4          0.638              1.840              2.133
 Vibration     5          0.655              1.785              1.828
 Vibration     6          0.672              1.733              1.615
 Vibration     7          0.680              1.712              1.538
 Vibration     8          0.720              1.596              1.213
 Vibration     9          0.786              1.418              0.879
 Vibration    10          0.913              1.122              0.528

 1\1\GINC-AJ\Freq\UM062X\6-311++G(d,p)\C5H7O3(2)\AAYUSH\23-Jun-2025\0\\
 # freq 6-311++g(d,p) m062x\\Title Card Required\\0,2\O,3.384835,0.8481
 48,0.109402\H,2.595943,1.386525,-0.080566\C,2.356957,-1.109271,0.27356
 3\H,3.317838,-1.526131,0.465766\C,1.227506,-0.749611,0.067557\C,-0.011
 335,-0.042399,-0.206863\O,-0.034962,1.14691,-0.392674\O,-1.063378,-0.8
 50143,-0.229464\C,-2.341933,-0.227233,-0.481022\C,-2.885254,0.423925,0
 .775181\H,-2.972419,-1.04867,-0.815737\H,-2.223579,0.495385,-1.28907\H
 ,-3.883348,0.819453,0.577692\H,-2.956592,-0.306437,1.582374\H,-2.24544

 Normal termination of Gaussian 16 at Mon Jun 23 03:16:07 2025.
