 Gaussian 16, Revision A.03,
 Gaussian 16:  ES64L-G16RevA.03 25-Dec-2016

 --------------------------
 # ccsd(t)/6-311++g(d,p) sp
 --------------------------

 -------------------
 Title Card Required
 -------------------
 Symbolic Z-matrix:
 Charge =  0 Multiplicity = 2

                         Standard orientation:
 ---------------------------------------------------------------------
 Center     Atomic      Atomic             Coordinates (Angstroms)
 Number     Number       Type             X           Y           Z
 ---------------------------------------------------------------------
      1          8           0        3.293764    0.703652    0.107473
      2          1           0        2.568789    1.312313   -0.098970
      3          6           0        2.490384   -0.797096    0.264002
      4          1           0        3.263850   -1.512726    0.494224
      5          6           0        1.225545   -0.764977    0.087549
      6          6           0       -0.007519   -0.046755   -0.205465
      7          8           0       -0.042323    1.137688   -0.418590
      8          8           0       -1.054915   -0.864364   -0.209060
      9          6           0       -2.339648   -0.259617   -0.473906
     10          6           0       -2.888025    0.415321    0.767391
     11          1           0       -2.962711   -1.094369   -0.789073
     12          1           0       -2.228617    0.445045   -1.298743
     13          1           0       -3.889930    0.796782    0.561735
     14          1           0       -2.952079   -0.296776    1.591359
     15          1           0       -2.255933    1.252665    1.063467
 ---------------------------------------------------------------------

 SCF Done:  E(UHF) =  -417.996780891     A.U. after   30 cycles
 E2 =    -0.1260837370D+01 EUMP2 =    -0.41925761826132D+03
 CCSD(T)= -0.41937792165D+03

 The electronic state is 2-A.
 Alpha  occ. eigenvalues --  -20.62350 -20.59332 -20.57581 -11.42024 -11.31255
 Alpha  occ. eigenvalues --  -11.30554 -11.28829 -11.23285  -1.49461  -1.39749
 Alpha  occ. eigenvalues --   -1.34429  -1.10760  -1.04925  -0.92997  -0.85071
 Alpha  occ. eigenvalues --   -0.77815  -0.73166  -0.71372  -0.67873  -0.64354
 Alpha  occ. eigenvalues --   -0.63042  -0.61376  -0.59566  -0.56650  -0.54910
 Alpha  occ. eigenvalues --   -0.52604  -0.51817  -0.50539  -0.48467  -0.43620
 Alpha  occ. eigenvalues --   -0.42597
 Alpha virt. eigenvalues --    0.03813   0.04792   0.05514   0.06240   0.07158
 Alpha virt. eigenvalues --    0.08439   0.08832   0.09346   0.10955   0.12125
 Alpha virt. eigenvalues --    0.12645   0.13746   0.14416   0.14908   0.16563

  Beta  occ. eigenvalues --  -20.62332 -20.57347 -20.56869 -11.42467 -11.33472
  Beta  occ. eigenvalues --  -11.30553 -11.25479 -11.23283  -1.49059  -1.38548
  Beta  occ. eigenvalues --   -1.28318  -1.06922  -1.04343  -0.93495  -0.84518
  Beta  occ. eigenvalues --   -0.77503  -0.72739  -0.70251  -0.67153  -0.63787
  Beta  occ. eigenvalues --   -0.61386  -0.58981  -0.55506  -0.54770  -0.52646
  Beta  occ. eigenvalues --   -0.51302  -0.50440  -0.47863  -0.46792  -0.41420
  Beta virt. eigenvalues --    0.03808   0.04699   0.05160   0.05521   0.06653
  Beta virt. eigenvalues --    0.07229   0.07990   0.08870   0.09625   0.11668
  Beta virt. eigenvalues --    0.12670   0.12840   0.13691   0.14263   0.14758

 Mulliken charges and spin densities:
               1          2
     1  O   -0.310188   0.474396
     2  H    0.267424  -0.019668
     3  C   -1.215583  -1.014492
     4  H    0.216870   0.085274
     5  C    1.476141   1.527723
     6  C   -0.321720  -0.186932
     7  O   -0.328479   0.131122
     8  O   -0.066936   0.003928
     9  C   -0.159190  -0.006330
    10  C   -0.364712   0.003986
    11  H    0.169053   0.000558
    12  H    0.183749   0.000340
    13  H    0.133303   0.000247
    14  H    0.147299  -0.000021
    15  H    0.172970  -0.000131
 Sum of Mulliken charges =  -0.00000   1.00000

 Dipole moment (field-independent basis, Debye):
    X=             -2.9083    Y=             -1.8034    Z=              0.1358  Tot=              3.4248
 Quadrupole moment (field-independent basis, Debye-Ang):
   XX=            -47.0375   YY=            -48.8432   ZZ=            -47.5793
   XY=             -5.4040   XZ=              1.2281   YZ=             -0.1145

 -0=-419.3045607\MP4SDQ=-419.3151355\CCSD=-419.3228085\CCSD(T)=-419.377
 Normal termination of Gaussian 16 at Sun Aug 24 11:57:05 2025.
