 Gaussian 16, Revision A.03,
 Gaussian 16:  ES64L-G16RevA.03 25-Dec-2016

 --------------------------
 # freq 6-311++g(d,p) m062x
 --------------------------

 -------------------
 Title Card Required
 -------------------
 Symbolic Z-matrix:
 Charge =  0 Multiplicity = 2

                         Standard orientation:
 ---------------------------------------------------------------------
 Center     Atomic      Atomic             Coordinates (Angstroms)
 Number     Number       Type             X           Y           Z
 ---------------------------------------------------------------------
      1          8           0        3.384835    0.848148    0.109402
      2          1           0        2.595943    1.386525   -0.080566
      3          6           0        2.356957   -1.109271    0.273563
      4          1           0        3.317838   -1.526131    0.465766
      5          6           0        1.227506   -0.749611    0.067557
      6          6           0       -0.011335   -0.042399   -0.206863
      7          8           0       -0.034962    1.146910   -0.392674
      8          8           0       -1.063378   -0.850143   -0.229464
      9          6           0       -2.341933   -0.227233   -0.481022
     10          6           0       -2.885254    0.423925    0.775181
     11          1           0       -2.972419   -1.048670   -0.815737
     12          1           0       -2.223579    0.495385   -1.289070
     13          1           0       -3.883348    0.819453    0.577692
     14          1           0       -2.956592   -0.306437    1.582374
     15          1           0       -2.245441    1.248087    1.090928
 ---------------------------------------------------------------------

 SCF Done:  E(UM062X) =  -420.208707094     A.U. after   24 cycles

 The electronic state is 2-A.
 Alpha  occ. eigenvalues --  -19.69390 -19.66149 -19.64310 -10.71701 -10.61399
 Alpha  occ. eigenvalues --  -10.58447 -10.57456 -10.54466  -1.26779  -1.17463
 Alpha  occ. eigenvalues --   -1.11939  -0.91357  -0.87972  -0.78906  -0.71491
 Alpha  occ. eigenvalues --   -0.65476  -0.61972  -0.59575  -0.57493  -0.54405
 Alpha  occ. eigenvalues --   -0.53847  -0.50233  -0.49337  -0.47571  -0.46077
 Alpha  occ. eigenvalues --   -0.42878  -0.41923  -0.40269  -0.39498  -0.37505
 Alpha  occ. eigenvalues --   -0.34990
 Alpha virt. eigenvalues --   -0.02297  -0.00430   0.00851   0.01464   0.01918
 Alpha virt. eigenvalues --    0.02661   0.03979   0.05038   0.05343   0.05963
 Alpha virt. eigenvalues --    0.06622   0.07365   0.08094   0.08888   0.10185

  Beta  occ. eigenvalues --  -19.69382 -19.64606 -19.64291 -10.71713 -10.61398
  Beta  occ. eigenvalues --  -10.58461 -10.57326 -10.54466  -1.26751  -1.17408
  Beta  occ. eigenvalues --   -1.04587  -0.91045  -0.87685  -0.78838  -0.71381
  Beta  occ. eigenvalues --   -0.65435  -0.61698  -0.59502  -0.57427  -0.54346
  Beta  occ. eigenvalues --   -0.50883  -0.50169  -0.47529  -0.46117  -0.42857
  Beta  occ. eigenvalues --   -0.40750  -0.39651  -0.39313  -0.37303  -0.36311
  Beta virt. eigenvalues --   -0.08041  -0.02258  -0.00397   0.01021   0.01464
  Beta virt. eigenvalues --    0.02065   0.02809   0.04242   0.05212   0.05763
  Beta virt. eigenvalues --    0.06267   0.06716   0.07384   0.08269   0.09070

 Mulliken charges and spin densities:
               1          2
     1  O   -0.275562   0.904817
     2  H    0.254702  -0.017669
     3  C   -2.317837   0.007821
     4  H    0.187593   0.012529
     5  C    2.267051   0.113344
     6  C   -0.154849  -0.028808
     7  O   -0.256421   0.004805
     8  O    0.039156   0.002290
     9  C   -0.261217   0.000007
    10  C   -0.402189   0.000753
    11  H    0.200987   0.000005
    12  H    0.198246   0.000184
    13  H    0.168360   0.000005
    14  H    0.167835  -0.000037
    15  H    0.184146  -0.000047
 Sum of Mulliken charges =  -0.00000   1.00000

 Dipole moment (field-independent basis, Debye):
    X=             -2.7197    Y=             -1.1485    Z=              0.0596  Tot=              2.9529
 Quadrupole moment (field-independent basis, Debye-Ang):
   XX=            -43.8552   YY=            -48.4999   ZZ=            -47.7529
   XY=             -4.3224   XZ=              1.1672   YZ=             -0.1767

  Exact polarizability:  99.139  -0.664  67.056   3.284  -2.144  50.537
 Approx polarizability: 102.964  -4.079  83.182   6.455  -4.729  58.306

 ******    2 imaginary frequencies (negative Signs) ******

                      1                      2                      3
                      A                      A                      A
 Frequencies --    -56.7471               -43.8315                77.3028
 Red. masses --      6.4486                 6.8496                 3.9618
 Frc consts  --      0.0122                 0.0078                 0.0139
 IR Inten    --      1.1468                 0.5854                 2.8115

                      4                      5                      6
                      A                      A                      A
 Frequencies --    116.8684               178.2241               200.0381
 Red. masses --      3.3618                 4.4205                 3.9133
 Frc consts  --      0.0271                 0.0827                 0.0923
 IR Inten    --      1.4656                 7.3218                 0.1485

                      7                      8                      9
                      A                      A                      A
 Frequencies --    236.5909               267.1131               279.3555
 Red. masses --      1.5250                 3.9920                 1.0649
 Frc consts  --      0.0503                 0.1678                 0.0490
 IR Inten    --      2.8810                 6.3674               110.4145

                     10                     11                     12
                      A                      A                      A
 Frequencies --    339.9097               423.9219               557.9067
 Red. masses --      2.9792                 4.0599                 4.5058
 Frc consts  --      0.2028                 0.4299                 0.8263
 IR Inten    --     15.0998                 1.6871                 3.8643

                     13                     14                     15
                      A                      A                      A
 Frequencies --    625.6087               662.1675               776.2634
 Red. masses --      6.1170                 1.0918                 1.1382
 Frc consts  --      1.4106                 0.2820                 0.4041
 IR Inten    --      5.0735               187.2826                53.5003

                     16                     17                     18
                      A                      A                      A
 Frequencies --    779.6080               787.3535               801.6542
 Red. masses --      3.2232                 1.7190                 1.2222
 Frc consts  --      1.1542                 0.6279                 0.4628
 IR Inten    --      2.4740                58.5483                 5.0895

                     19                     20                     21
                      A                      A                      A
 Frequencies --    896.3125               932.8453              1075.8855
 Red. masses --      3.0682                 2.9583                 4.1611
 Frc consts  --      1.4523                 1.5168                 2.8379
 IR Inten    --     11.5400                 4.2257                24.9020

                     22                     23                     24
                      A                      A                      A
 Frequencies --   1128.2487              1204.3344              1306.9909
 Red. masses --      2.0770                 1.7691                 2.7870
 Frc consts  --      1.5577                 1.5118                 2.8050
 IR Inten    --     23.2955                 3.0428               571.7681

                     25                     26                     27
                      A                      A                      A
 Frequencies --   1351.0109              1403.5497              1432.5277
 Red. masses --      1.3435                 1.3092                 1.4090
 Frc consts  --      1.4448                 1.5195                 1.7036
 IR Inten    --    188.4893                50.9181                16.9231

                     28                     29                     30
                      A                      A                      A
 Frequencies --   1492.8493              1503.4589              1515.6370
 Red. masses --      1.0413                 1.0626                 1.0877
 Frc consts  --      1.3673                 1.4151                 1.4721
 IR Inten    --     10.0125                 3.2828                21.1802

                     31                     32                     33
                      A                      A                      A
 Frequencies --   1816.2557              2229.4034              3075.8174
 Red. masses --     11.8246                 5.9124                 1.0354
 Frc consts  --     22.9822                17.3139                 5.7715
 IR Inten    --    272.3866                84.5621                 9.3809

                     34                     35                     36
                      A                      A                      A
 Frequencies --   3109.1935              3151.2645              3155.8974
 Red. masses --      1.0607                 1.1013                 1.1049
 Frc consts  --      6.0417                 6.4438                 6.4838
 IR Inten    --     17.1715                14.1652                 1.4514

                     37                     38                     39
                      A                      A                      A
 Frequencies --   3176.8038              3487.9987              3756.7842
 Red. masses --      1.1076                 1.1647                 1.0677
 Frc consts  --      6.5857                 8.3484                 8.8781
 IR Inten    --     14.1414                75.0317                26.6940

 - Thermochemistry -
 -------------------
 Temperature   298.150 Kelvin.  Pressure   1.00000 Atm.
 Atom     1 has atomic number  8 and mass  15.99491

 Molecular mass:   115.03952 amu.
 Principal axes and moments of inertia in atomic units:
                           1         2         3
     Eigenvalues --   349.550781905.822802101.55968
           X            0.99993  -0.01035  -0.00590
           Y            0.01043   0.99984   0.01419
           Z            0.00575  -0.01425   0.99988
 This molecule is an asymmetric top.
 Rotational symmetry number  1.
 Rotational temperatures (Kelvin)      0.24779     0.04545     0.04121
 Rotational constants (GHZ):           5.16303     0.94696     0.85876
    2 imaginary frequencies ignored.
 Zero-point vibrational energy     294957.0 (Joules/Mol)
                                   70.49641 (Kcal/Mol)
 Warning -- explicit consideration of  10 degrees of freedom as
           vibrations may cause significant error
 Vibrational temperatures:    111.22   168.15   256.42   287.81   340.40
          (Kelvin)            384.32   401.93   489.05   609.93   802.70
                              900.11   952.71  1116.87  1121.68  1132.83
                             1153.40  1289.59  1342.16  1547.96  1623.30
                             1732.77  1880.47  1943.80  2019.39  2061.09
                             2147.88  2163.14  2180.66  2613.19  3207.61
                             4425.42  4473.44  4533.97  4540.63  4570.71
                             5018.45  5405.17

 Zero-point correction=                           0.112343 (Hartree/Particle)
 Thermal correction to Energy=                    0.120897
 Thermal correction to Enthalpy=                  0.121841
 Thermal correction to Gibbs Free Energy=         0.078310
 Sum of electronic and zero-point Energies=           -420.096364
 Sum of electronic and thermal Energies=              -420.087810
 Sum of electronic and thermal Enthalpies=            -420.086866
 Sum of electronic and thermal Free Energies=         -420.130397

                     E (Thermal)             CV                S
                      KCal/Mol        Cal/Mol-Kelvin    Cal/Mol-Kelvin
 Total                   75.864             29.955             91.618
 Electronic               0.000              0.000              1.377
 Translational            0.889              2.981             40.136
 Rotational               0.889              2.981             28.728
 Vibrational             74.086             23.993             21.377
 Vibration     1          0.599              1.964              3.958
 Vibration     2          0.608              1.935              3.152
 Vibration     3          0.629              1.869              2.347
 Vibration     4          0.638              1.840              2.133
 Vibration     5          0.655              1.785              1.828
 Vibration     6          0.672              1.733              1.615
 Vibration     7          0.680              1.712              1.538
 Vibration     8          0.720              1.596              1.213
 Vibration     9          0.786              1.418              0.879
 Vibration    10          0.913              1.122              0.528

 1\1\GINC-AJ\Freq\UM062X\6-311++G(d,p)\C5H7O3(2)\AAYUSH\16-Aug-2025\0\\
 # freq 6-311++g(d,p) m062x\\Title Card Required\\0,2\O,3.309055,0.8728
 91,0.113249\H,2.51778,1.406001,-0.081597\C,2.289723,-1.087302,0.29649\
 H,3.25246,-1.498135,0.492349\C,1.158662,-0.734528,0.087434\C,-0.083315
 ,-0.03535,-0.193323\O,-0.112154,1.152012,-0.390504\O,-1.131853,-0.8478
 25,-0.207833\C,-2.413171,-0.232897,-0.464909\C,-2.958937,0.427898,0.78
 5187\H,-3.04019,-1.060226,-0.791531\H,-2.298193,0.482457,-1.279878\H,-
 3.958795,0.817189,0.584259\H,-3.026867,-0.295004,1.599359\H,-2.322609,

 Normal termination of Gaussian 16 at Sat Aug 16 17:41:05 2025.
