 Gaussian 16, Revision A.03,
 Gaussian 16:  ES64L-G16RevA.03 25-Dec-2016

 -------------------
 # freq 6-31+g m062x
 -------------------

 -------------------
 Title Card Required
 -------------------
 Symbolic Z-matrix:
 Charge =  0 Multiplicity = 2

                         Standard orientation:
 ---------------------------------------------------------------------
 Center     Atomic      Atomic             Coordinates (Angstroms)
 Number     Number       Type             X           Y           Z
 ---------------------------------------------------------------------
      1          8           0        3.384835    0.848148    0.109402
      2          1           0        2.595943    1.386525   -0.080566
      3          6           0        2.356957   -1.109271    0.273563
      4          1           0        3.317838   -1.526131    0.465766
      5          6           0        1.227506   -0.749611    0.067557
      6          6           0       -0.011335   -0.042399   -0.206863
      7          8           0       -0.034962    1.146910   -0.392674
      8          8           0       -1.063378   -0.850143   -0.229464
      9          6           0       -2.341933   -0.227233   -0.481022
     10          6           0       -2.885254    0.423925    0.775181
     11          1           0       -2.972419   -1.048670   -0.815737
     12          1           0       -2.223579    0.495385   -1.289070
     13          1           0       -3.883348    0.819453    0.577692
     14          1           0       -2.956592   -0.306437    1.582374
     15          1           0       -2.245441    1.248087    1.090928
 ---------------------------------------------------------------------

 SCF Done:  E(UM062X) =  -419.962688159     A.U. after   23 cycles

 The electronic state is 2-A.
 Alpha  occ. eigenvalues --  -19.71815 -19.68846 -19.67556 -10.74103 -10.62436
 Alpha  occ. eigenvalues --  -10.60072 -10.59270 -10.55332  -1.29194  -1.19823
 Alpha  occ. eigenvalues --   -1.13173  -0.92153  -0.88780  -0.79488  -0.72193
 Alpha  occ. eigenvalues --   -0.65695  -0.62236  -0.59638  -0.57978  -0.54928
 Alpha  occ. eigenvalues --   -0.53587  -0.50493  -0.49370  -0.47825  -0.46159
 Alpha  occ. eigenvalues --   -0.42956  -0.41962  -0.40294  -0.39357  -0.37794
 Alpha  occ. eigenvalues --   -0.35375
 Alpha virt. eigenvalues --   -0.02499   0.01625   0.02885   0.03134   0.03699
 Alpha virt. eigenvalues --    0.04427   0.05365   0.06341   0.06954   0.07891
 Alpha virt. eigenvalues --    0.08433   0.08615   0.09045   0.10971   0.11798

  Beta  occ. eigenvalues --  -19.71807 -19.67537 -19.67236 -10.74116 -10.62434
  Beta  occ. eigenvalues --  -10.60091 -10.59132 -10.55332  -1.29165  -1.19776
  Beta  occ. eigenvalues --   -1.06078  -0.91843  -0.88535  -0.79418  -0.72070
  Beta  occ. eigenvalues --   -0.65662  -0.61970  -0.59577  -0.57905  -0.54875
  Beta  occ. eigenvalues --   -0.50474  -0.50431  -0.47797  -0.46200  -0.42925
  Beta  occ. eigenvalues --   -0.40797  -0.39630  -0.39300  -0.37763  -0.36415
  Beta virt. eigenvalues --   -0.08304  -0.02483   0.01643   0.02995   0.03171
  Beta virt. eigenvalues --    0.03864   0.04548   0.05648   0.06447   0.07199
  Beta virt. eigenvalues --    0.07944   0.08550   0.08647   0.09192   0.10913

 Mulliken charges and spin densities:
               1          2
     1  O   -0.457516   0.919015
     2  H    0.416493  -0.032593
     3  C   -0.331729  -0.106189
     4  H    0.344684   0.007909
     5  C   -0.013984   0.219211
     6  C    0.305302  -0.014891
     7  O   -0.396543   0.004607
     8  O   -0.210993   0.002604
     9  C   -0.223662  -0.000119
    10  C   -0.559712   0.000399
    11  H    0.223520   0.000015
    12  H    0.235911  -0.000021
    13  H    0.210737   0.000043
    14  H    0.222195   0.000006
    15  H    0.235298   0.000004
 Sum of Mulliken charges =  -0.00000   1.00000

 Dipole moment (field-independent basis, Debye):
    X=             -2.8695    Y=             -0.9826    Z=              0.0101  Tot=              3.0331
 Quadrupole moment (field-independent basis, Debye-Ang):
   XX=            -45.1886   YY=            -49.3542   ZZ=            -47.9574
   XY=             -4.4281   XZ=              1.0592   YZ=             -0.1131

  Exact polarizability:  94.937   0.005  64.192   3.744  -2.698  46.343
 Approx polarizability:  97.296  -3.671  77.619   6.975  -5.533  48.669

 ******    4 imaginary frequencies (negative Signs) ******

                      1                      2                      3
                      A                      A                      A
 Frequencies --   -396.3847              -122.0998               -89.2580
 Red. masses --      1.0895                 5.3050                 6.4465
 Frc consts  --      0.1009                 0.0466                 0.0303
 IR Inten    --    159.2696                 8.5618                 0.3174

                      4                      5                      6
                      A                      A                      A
 Frequencies --    -30.0076                40.4195               142.4864
 Red. masses --      3.3631                 3.2007                 3.1040
 Frc consts  --      0.0018                 0.0031                 0.0371
 IR Inten    --      7.0074                 3.2686                 7.0574

                      7                      8                      9
                      A                      A                      A
 Frequencies --    175.4956               191.8343               242.0558
 Red. masses --     11.8386                 1.4078                 4.0843
 Frc consts  --      0.2148                 0.0305                 0.1410
 IR Inten    --      0.9024                 3.4415                 1.4734

                     10                     11                     12
                      A                      A                      A
 Frequencies --    310.9711               419.6293               465.0670
 Red. masses --      2.9423                 3.9499                 1.1105
 Frc consts  --      0.1676                 0.4098                 0.1415
 IR Inten    --     25.6236                 3.3483               196.3978

                     13                     14                     15
                      A                      A                      A
 Frequencies --    565.8463               639.0064               770.9577
 Red. masses --      4.4886                 7.3486                 4.4601
 Frc consts  --      0.8468                 1.7679                 1.5619
 IR Inten    --      1.6817                20.4960                60.8197

                     16                     17                     18
                      A                      A                      A
 Frequencies --    785.0326               816.7810               844.9690
 Red. masses --      1.1446                 1.2540                 1.5901
 Frc consts  --      0.4156                 0.4929                 0.6689
 IR Inten    --     69.4244                 4.8126                19.8530

                     19                     20                     21
                      A                      A                      A
 Frequencies --    900.2500               948.3707              1112.0068
 Red. masses --      3.3707                 2.6478                 4.2156
 Frc consts  --      1.6095                 1.4031                 3.0713
 IR Inten    --     15.4791                 5.3888                 9.3056

                     22                     23                     24
                      A                      A                      A
 Frequencies --   1157.6115              1228.8863              1337.1674
 Red. masses --      2.0702                 1.7574                 1.5042
 Frc consts  --      1.6345                 1.5637                 1.5846
 IR Inten    --     21.4204                 2.6736               228.5921

                     25                     26                     27
                      A                      A                      A
 Frequencies --   1381.3729              1446.4730              1457.5235
 Red. masses --      2.1572                 1.4448                 1.2832
 Frc consts  --      2.4252                 1.7810                 1.6061
 IR Inten    --    445.8294                80.7395                17.1023

                     28                     29                     30
                      A                      A                      A
 Frequencies --   1528.4792              1537.6201              1545.6337
 Red. masses --      1.0423                 1.0735                 1.0741
 Frc consts  --      1.4347                 1.4953                 1.5118
 IR Inten    --     14.0960                 6.4846                24.9589

                     31                     32                     33
                      A                      A                      A
 Frequencies --   1883.4242              2294.0697              3108.2433
 Red. masses --     12.1410                 5.7181                 1.0351
 Frc consts  --     25.3746                17.7302                 5.8922
 IR Inten    --    255.7455                87.8196                12.2312

                     34                     35                     36
                      A                      A                      A
 Frequencies --   3139.6005              3188.4895              3192.0412
 Red. masses --      1.0601                 1.1002                 1.1027
 Frc consts  --      6.1567                 6.5904                 6.6196
 IR Inten    --     18.7473                13.7429                 4.7734

                     37                     38                     39
                      A                      A                      A
 Frequencies --   3213.1536              3530.1941              3771.1284
 Red. masses --      1.1055                 1.1722                 1.0677
 Frc consts  --      6.7246                 8.6067                 8.9460
 IR Inten    --     16.7960                70.1411                 8.7768

 - Thermochemistry -
 -------------------
 Temperature   298.150 Kelvin.  Pressure   1.00000 Atm.
 Atom     1 has atomic number  8 and mass  15.99491

 Molecular mass:   115.03952 amu.
 Principal axes and moments of inertia in atomic units:
                           1         2         3
     Eigenvalues --   349.550781905.822802101.55968
           X            0.99993  -0.01035  -0.00590
           Y            0.01043   0.99984   0.01419
           Z            0.00575  -0.01425   0.99988
 This molecule is an asymmetric top.
 Rotational symmetry number  1.
 Rotational temperatures (Kelvin)      0.24779     0.04545     0.04121
 Rotational constants (GHZ):           5.16303     0.94696     0.85876
    4 imaginary frequencies ignored.
 Zero-point vibrational energy     294953.0 (Joules/Mol)
                                   70.49546 (Kcal/Mol)
 Warning -- explicit consideration of   9 degrees of freedom as
           vibrations may cause significant error
 Vibrational temperatures:     58.15   205.01   252.50   276.01   348.26
          (Kelvin)            447.42   603.75   669.13   814.13   919.39
                             1109.24  1129.49  1175.17  1215.72  1295.26
                             1364.49  1599.93  1665.54  1768.09  1923.89
                             1987.49  2081.15  2097.05  2199.14  2212.29
                             2223.82  2709.83  3300.65  4472.07  4517.18
                             4587.53  4592.64  4623.01  5079.16  5425.81

 Zero-point correction=                           0.112342 (Hartree/Particle)
 Thermal correction to Energy=                    0.120136
 Thermal correction to Enthalpy=                  0.121081
 Thermal correction to Gibbs Free Energy=         0.078391
 Sum of electronic and zero-point Energies=           -419.850346
 Sum of electronic and thermal Energies=              -419.842552
 Sum of electronic and thermal Enthalpies=            -419.841608
 Sum of electronic and thermal Free Energies=         -419.884298

                     E (Thermal)             CV                S
                      KCal/Mol        Cal/Mol-Kelvin    Cal/Mol-Kelvin
 Total                   75.387             26.663             89.849
 Electronic               0.000              0.000              1.377
 Translational            0.889              2.981             40.136
 Rotational               0.889              2.981             28.728
 Vibrational             73.609             20.702             19.608
 Vibration     1          0.594              1.981              5.238
 Vibration     2          0.616              1.911              2.770
 Vibration     3          0.627              1.873              2.376
 Vibration     4          0.634              1.851              2.210
 Vibration     5          0.658              1.776              1.788
 Vibration     6          0.700              1.653              1.357
 Vibration     7          0.782              1.428              0.893
 Vibration     8          0.823              1.328              0.751
 Vibration     9          0.922              1.105              0.512

 Normal termination of Gaussian 16 at Fri Jun 20 13:16:10 2025.
