 Gaussian 16, Revision A.03,
 Gaussian 16:  ES64L-G16RevA.03 25-Dec-2016

 --------------------------
 # ccsd(t)/6-311++g(d,p) sp
 --------------------------

 -------------------
 Title Card Required
 -------------------
 Symbolic Z-matrix:
 Charge =  0 Multiplicity = 2

                         Standard orientation:
 ---------------------------------------------------------------------
 Center     Atomic      Atomic             Coordinates (Angstroms)
 Number     Number       Type             X           Y           Z
 ---------------------------------------------------------------------
      1          8           0        3.351098    0.796937    0.107886
      2          1           0        2.589683    1.369509   -0.088207
      3          6           0        2.399220   -1.006578    0.272165
      4          1           0        3.324511   -1.496502    0.475392
      5          6           0        1.231610   -0.745503    0.073553
      6          6           0       -0.011413   -0.044945   -0.206393
      7          8           0       -0.038037    1.142419   -0.401570
      8          8           0       -1.060275   -0.856441   -0.222176
      9          6           0       -2.341409   -0.239723   -0.478513
     10          6           0       -2.886514    0.419818    0.772475
     11          1           0       -2.969011   -1.066113   -0.806286
     12          1           0       -2.225491    0.476454   -1.292596
     13          1           0       -3.886052    0.810081    0.571902
     14          1           0       -2.955173   -0.304092    1.585680
     15          1           0       -2.249714    1.248932    1.081273
 ---------------------------------------------------------------------

 SCF Done:  E(UHF) =  -417.985212326     A.U. after   34 cycles
 E2 =    -0.1253160145D+01 EUMP2 =    -0.41923837247169D+03
 CCSD(T)= -0.41935486178D+03

 The electronic state is 2-A.
 Alpha  occ. eigenvalues --  -20.62257 -20.61388 -20.57186 -11.42137 -11.30428
 Alpha  occ. eigenvalues --  -11.26962 -11.26491 -11.23174  -1.49291  -1.39409
 Alpha  occ. eigenvalues --   -1.37054  -1.09327  -1.04669  -0.92740  -0.84434
 Alpha  occ. eigenvalues --   -0.77449  -0.73464  -0.70863  -0.67515  -0.65579
 Alpha  occ. eigenvalues --   -0.64372  -0.63787  -0.59369  -0.56258  -0.54829
 Alpha  occ. eigenvalues --   -0.54297  -0.51495  -0.50016  -0.48051  -0.43143
 Alpha  occ. eigenvalues --   -0.41900
 Alpha virt. eigenvalues --    0.03888   0.04738   0.05619   0.06297   0.07164
 Alpha virt. eigenvalues --    0.08501   0.08933   0.09377   0.11050   0.12293
 Alpha virt. eigenvalues --    0.12728   0.13679   0.14514   0.15013   0.16672

  Beta  occ. eigenvalues --  -20.62240 -20.57551 -20.56738 -11.42468 -11.30424
  Beta  occ. eigenvalues --  -11.28667 -11.24499 -11.23173  -1.49049  -1.38645
  Beta  occ. eigenvalues --   -1.23123  -1.07459  -1.04697  -0.93282  -0.84380
  Beta  occ. eigenvalues --   -0.77326  -0.73247  -0.70270  -0.67107  -0.63810
  Beta  occ. eigenvalues --   -0.61895  -0.58945  -0.55415  -0.54710  -0.51246
  Beta  occ. eigenvalues --   -0.50392  -0.48774  -0.46996  -0.44034  -0.42549
  Beta virt. eigenvalues --    0.03888   0.04685   0.05620   0.05853   0.06922
  Beta virt. eigenvalues --    0.07556   0.08568   0.09090   0.10029   0.11956
  Beta virt. eigenvalues --    0.12830   0.13122   0.13688   0.14455   0.14693

 Mulliken charges and spin densities:
               1          2
     1  O   -0.236332   0.916241
     2  H    0.271633  -0.033898
     3  C   -2.206695  -0.776336
     4  H    0.202237   0.072182
     5  C    2.384326   0.919655
     6  C   -0.321042  -0.183894
     7  O   -0.334710   0.082409
     8  O   -0.051471   0.002655
     9  C   -0.157763  -0.002221
    10  C   -0.357764   0.002746
    11  H    0.171225   0.000340
    12  H    0.182242   0.000031
    13  H    0.135400   0.000203
    14  H    0.146310  -0.000105
    15  H    0.172403  -0.000008
 Sum of Mulliken charges =  -0.00000   1.00000

 Dipole moment (field-independent basis, Debye):
    X=             -2.2918    Y=             -1.0812    Z=              0.0771  Tot=              2.5352
 Quadrupole moment (field-independent basis, Debye-Ang):
   XX=            -42.9002   YY=            -48.8638   ZZ=            -47.6917
   XY=             -3.6148   XZ=              1.3016   YZ=             -0.0630

 028\PMP3-0=-419.2816966\MP4SDQ=-419.2951715\CCSD=-419.3011373\CCSD(T)=
 Normal termination of Gaussian 16 at Sun Aug 24 19:52:55 2025.
