 Gaussian 16, Revision A.03,
 Gaussian 16:  ES64L-G16RevA.03 25-Dec-2016

 -------------------
 # freq 6-31+g m062x
 -------------------

 -------------------
 Title Card Required
 -------------------
 Symbolic Z-matrix:
 Charge =  0 Multiplicity = 2

                         Standard orientation:
 ---------------------------------------------------------------------
 Center     Atomic      Atomic             Coordinates (Angstroms)
 Number     Number       Type             X           Y           Z
 ---------------------------------------------------------------------
      1          8           0        3.316166    0.741579    0.107252
      2          1           0        2.575776    1.335190   -0.094805
      3          6           0        2.455188   -0.880504    0.267914
      4          1           0        3.293824   -1.512949    0.488106
      5          6           0        1.228170   -0.753940    0.081166
      6          6           0       -0.010311   -0.046008   -0.206000
      7          8           0       -0.040789    1.139150   -0.411504
      8          8           0       -1.056785   -0.861686   -0.214355
      9          6           0       -2.340574   -0.252198   -0.475743
     10          6           0       -2.887505    0.416233    0.769623
     11          1           0       -2.964992   -1.083868   -0.796065
     12          1           0       -2.227461    0.457066   -1.296254
     13          1           0       -3.888551    0.800938    0.565976
     14          1           0       -2.953271   -0.300741    1.589187
     15          1           0       -2.253878    1.250524    1.070952
 ---------------------------------------------------------------------

 SCF Done:  E(UM062X) =  -419.964207848     A.U. after   20 cycles

 The electronic state is 2-A.
 Alpha  occ. eigenvalues --  -19.72175 -19.68080 -19.66685 -10.74507 -10.64274
 Alpha  occ. eigenvalues --  -10.62712 -10.61433 -10.55546  -1.29663  -1.20354
 Alpha  occ. eigenvalues --   -1.11274  -0.93401  -0.89526  -0.80090  -0.73067
 Alpha  occ. eigenvalues --   -0.66186  -0.62764  -0.60098  -0.58504  -0.55207
 Alpha  occ. eigenvalues --   -0.52323  -0.50912  -0.48873  -0.48089  -0.46374
 Alpha  occ. eigenvalues --   -0.43309  -0.41942  -0.40780  -0.39758  -0.36421
 Alpha  occ. eigenvalues --   -0.32153
 Alpha virt. eigenvalues --   -0.03355   0.01430   0.02753   0.03012   0.03539
 Alpha virt. eigenvalues --    0.04473   0.05291   0.06187   0.07164   0.07698
 Alpha virt. eigenvalues --    0.08030   0.08599   0.09276   0.10287   0.11754

  Beta  occ. eigenvalues --  -19.72151 -19.67969 -19.65736 -10.74556 -10.64444
  Beta  occ. eigenvalues --  -10.62708 -10.60881 -10.55546  -1.29525  -1.20125
  Beta  occ. eigenvalues --   -1.07986  -0.92042  -0.88931  -0.79888  -0.72629
  Beta  occ. eigenvalues --   -0.66074  -0.62348  -0.59824  -0.58174  -0.55042
  Beta  occ. eigenvalues --   -0.50687  -0.50312  -0.48046  -0.46399  -0.43185
  Beta  occ. eigenvalues --   -0.42085  -0.40984  -0.39768  -0.38972  -0.34506
  Beta virt. eigenvalues --   -0.09886  -0.03340   0.01294   0.02613   0.02989
  Beta virt. eigenvalues --    0.03922   0.04496   0.06120   0.06220   0.07359
  Beta virt. eigenvalues --    0.07495   0.08035   0.08782   0.09565   0.10374

 Mulliken charges and spin densities:
               1          2
     1  O   -0.531710   0.501344
     2  H    0.411306  -0.016342
     3  C   -0.236677  -0.286859
     4  H    0.274046   0.031707
     5  C    0.000919   0.745338
     6  C    0.367084  -0.007665
     7  O   -0.408926   0.025252
     8  O   -0.218742   0.006747
     9  C   -0.222099  -0.001902
    10  C   -0.565785   0.002267
    11  H    0.224890   0.000044
    12  H    0.236828   0.000012
    13  H    0.211458   0.000118
    14  H    0.222282   0.000010
    15  H    0.235126  -0.000070
 Sum of Mulliken charges =  -0.00000   1.00000

 Dipole moment (field-independent basis, Debye):
    X=             -3.5399    Y=             -1.6820    Z=              0.0596  Tot=              3.9196
 Quadrupole moment (field-independent basis, Debye-Ang):
   XX=            -48.5076   YY=            -49.4354   ZZ=            -47.9550
   XY=             -6.3310   XZ=              1.1314   YZ=             -0.1849

  Exact polarizability: 102.282   7.306  68.506   3.369  -2.843  46.657
 Approx polarizability: 104.913   9.147  85.433   5.833  -5.546  49.291

 ******    4 imaginary frequencies (negative Signs) ******

                      1                      2                      3
                      A                      A                      A
 Frequencies --   -797.8251              -355.2668               -49.7953
 Red. masses --     11.2554                 1.0754                 3.9138
 Frc consts  --      4.2211                 0.0800                 0.0057
 IR Inten    --      3.7581               141.2336                 3.0822

                      4                      5                      6
                      A                      A                      A
 Frequencies --    -45.7469                40.5627               139.0353
 Red. masses --      6.9208                 3.3627                 5.1028
 Frc consts  --      0.0085                 0.0033                 0.0581
 IR Inten    --      1.2007                 1.5165                 8.7189

                      7                      8                      9
                      A                      A                      A
 Frequencies --    179.1944               254.1836               263.9324
 Red. masses --      1.2607                 4.0330                 3.4595
 Frc consts  --      0.0239                 0.1535                 0.1420
 IR Inten    --      3.4663                 7.9665                 8.4949

                     10                     11                     12
                      A                      A                      A
 Frequencies --    321.0219               426.2393               560.3664
 Red. masses --      3.3699                 3.7760                 4.7863
 Frc consts  --      0.2046                 0.4042                 0.8855
 IR Inten    --     20.9170                 3.8767                 7.7154

                     13                     14                     15
                      A                      A                      A
 Frequencies --    614.1118               749.9793               808.9515
 Red. masses --      7.7142                11.4945                 1.3422
 Frc consts  --      1.7141                 3.8093                 0.5175
 IR Inten    --      9.3644                28.9500                42.1627

                     16                     17                     18
                      A                      A                      A
 Frequencies --    814.4523               862.2235               896.3439
 Red. masses --      1.2904                 1.1727                 2.9320
 Frc consts  --      0.5043                 0.5137                 1.3879
 IR Inten    --      3.0560               165.4732                16.7997

                     19                     20                     21
                      A                      A                      A
 Frequencies --    942.8750              1021.5853              1110.1594
 Red. masses --      2.3405                 1.1338                 4.1132
 Frc consts  --      1.2259                 0.6972                 2.9868
 IR Inten    --      2.8362                 6.0211                10.3019

                     22                     23                     24
                      A                      A                      A
 Frequencies --   1156.6068              1228.6362              1333.9156
 Red. masses --      2.0515                 1.7490                 1.6404
 Frc consts  --      1.6170                 1.5556                 1.7198
 IR Inten    --     22.5132                 2.3985               286.0859

                     25                     26                     27
                      A                      A                      A
 Frequencies --   1377.7479              1444.9046              1457.8899
 Red. masses --      2.0143                 1.4153                 1.2668
 Frc consts  --      2.2528                 1.7409                 1.5864
 IR Inten    --    427.6671                63.5548                16.8412

                     28                     29                     30
                      A                      A                      A
 Frequencies --   1528.6933              1537.8563              1545.8009
 Red. masses --      1.0421                 1.0695                 1.0754
 Frc consts  --      1.4348                 1.4903                 1.5141
 IR Inten    --     13.9778                 5.2959                24.3523

                     31                     32                     33
                      A                      A                      A
 Frequencies --   1872.3223              2000.2387              3108.6735
 Red. masses --     11.4987                 7.2009                 1.0351
 Frc consts  --     23.7497                16.9746                 5.8938
 IR Inten    --    175.3058               146.6250                11.8306

                     34                     35                     36
                      A                      A                      A
 Frequencies --   3140.0170              3189.1585              3192.6200
 Red. masses --      1.0602                 1.1003                 1.1026
 Frc consts  --      6.1591                 6.5934                 6.6216
 IR Inten    --     18.3456                13.2063                 4.7162

                     37                     38                     39
                      A                      A                      A
 Frequencies --   3213.6931              3408.0435              3812.1367
 Red. masses --      1.1055                 1.1276                 1.0680
 Frc consts  --      6.7271                 7.7167                 9.1443
 IR Inten    --     16.5960                32.7931                28.0543

 - Thermochemistry -
 -------------------
 Temperature   298.150 Kelvin.  Pressure   1.00000 Atm.
 Atom     1 has atomic number  8 and mass  15.99491

 Molecular mass:   115.03952 amu.
 Principal axes and moments of inertia in atomic units:
                           1         2         3
     Eigenvalues --   320.150591898.226142065.11828
           X            0.99993  -0.00988  -0.00584
           Y            0.00997   0.99982   0.01607
           Z            0.00568  -0.01612   0.99985
 This molecule is an asymmetric top.
 Rotational symmetry number  1.
 Rotational temperatures (Kelvin)      0.27054     0.04563     0.04194
 Rotational constants (GHZ):           5.63716     0.95075     0.87392
    4 imaginary frequencies ignored.
 Zero-point vibrational energy     296399.8 (Joules/Mol)
                                   70.84125 (Kcal/Mol)
 Warning -- explicit consideration of   9 degrees of freedom as
           vibrations may cause significant error
 Vibrational temperatures:     58.36   200.04   257.82   365.71   379.74
          (Kelvin)            461.88   613.26   806.24   883.57  1079.05
                             1163.90  1171.82  1240.55  1289.64  1356.59
                             1469.83  1597.27  1664.10  1767.73  1919.21
                             1982.27  2078.90  2097.58  2199.45  2212.63
                             2224.06  2693.85  2877.90  4472.69  4517.78
                             4588.49  4593.47  4623.79  4903.41  5484.81

 Zero-point correction=                           0.112893 (Hartree/Particle)
 Thermal correction to Energy=                    0.120343
 Thermal correction to Enthalpy=                  0.121287
 Thermal correction to Gibbs Free Energy=         0.079292
 Sum of electronic and zero-point Energies=           -419.851315
 Sum of electronic and thermal Energies=              -419.843865
 Sum of electronic and thermal Enthalpies=            -419.842920
 Sum of electronic and thermal Free Energies=         -419.884916

                     E (Thermal)             CV                S
                      KCal/Mol        Cal/Mol-Kelvin    Cal/Mol-Kelvin
 Total                   75.517             25.588             88.387
 Electronic               0.000              0.000              1.377
 Translational            0.889              2.981             40.136
 Rotational               0.889              2.981             28.619
 Vibrational             73.739             19.626             18.255
 Vibration     1          0.594              1.981              5.231
 Vibration     2          0.615              1.914              2.817
 Vibration     3          0.629              1.868              2.337
 Vibration     4          0.665              1.756              1.701
 Vibration     5          0.670              1.739              1.636
 Vibration     6          0.706              1.633              1.305
 Vibration     7          0.788              1.413              0.871
 Vibration     8          0.916              1.117              0.523
 Vibration     9          0.974              1.002              0.426

 Normal termination of Gaussian 16 at Fri Jun 20 13:06:00 2025.
