 Gaussian 16, Revision A.03,
 Gaussian 16:  ES64L-G16RevA.03 25-Dec-2016

 --------------------------
 # freq 6-311++g(d,p) m062x
 --------------------------

 -------------------
 Title Card Required
 -------------------
 Symbolic Z-matrix:
 Charge =  0 Multiplicity = 2

                         Standard orientation:
 ---------------------------------------------------------------------
 Center     Atomic      Atomic             Coordinates (Angstroms)
 Number     Number       Type             X           Y           Z
 ---------------------------------------------------------------------
      1          8           0        3.338796    0.778016    0.107551
      2          1           0        2.585520    1.359427   -0.090815
      3          6           0        2.417424   -0.964514    0.270984
      4          1           0        3.317872   -1.499549    0.479872
      5          6           0        1.231541   -0.746758    0.075995
      6          6           0       -0.011351   -0.045491   -0.206268
      7          8           0       -0.038989    1.141062   -0.404897
      8          8           0       -1.059042   -0.858425   -0.219499
      9          6           0       -2.341192   -0.244156   -0.477576
     10          6           0       -2.886904    0.418390    0.771510
     11          1           0       -2.967614   -1.072422   -0.802796
     12          1           0       -2.226206    0.469627   -1.293880
     13          1           0       -3.886978    0.806687    0.569852
     14          1           0       -2.954552   -0.303155    1.586893
     15          1           0       -2.251261    1.249336    1.077764
 ---------------------------------------------------------------------

 SCF Done:  E(UM062X) =  -420.205474463     A.U. after   24 cycles

 The electronic state is 2-A.
 Alpha  occ. eigenvalues --  -19.69648 -19.64622 -19.64564 -10.71982 -10.61588
 Alpha  occ. eigenvalues --  -10.60616 -10.58704 -10.54611  -1.27072  -1.17796
 Alpha  occ. eigenvalues --   -1.10542  -0.92016  -0.88496  -0.79250  -0.71951
 Alpha  occ. eigenvalues --   -0.65799  -0.62338  -0.59862  -0.57808  -0.54582
 Alpha  occ. eigenvalues --   -0.52380  -0.50507  -0.49161  -0.47808  -0.46213
 Alpha  occ. eigenvalues --   -0.43087  -0.41470  -0.40515  -0.39739  -0.37044
 Alpha  occ. eigenvalues --   -0.33123
 Alpha virt. eigenvalues --   -0.02712  -0.00511   0.00830   0.01377   0.01882
 Alpha virt. eigenvalues --    0.02461   0.03909   0.05001   0.05315   0.06117
 Alpha virt. eigenvalues --    0.06628   0.07265   0.07975   0.08814   0.09911

  Beta  occ. eigenvalues --  -19.69632 -19.64558 -19.63267 -10.72010 -10.61585
  Beta  occ. eigenvalues --  -10.60711 -10.58387 -10.54611  -1.26993  -1.17632
  Beta  occ. eigenvalues --   -1.05307  -0.91196  -0.87951  -0.79122  -0.71692
  Beta  occ. eigenvalues --   -0.65707  -0.61937  -0.59663  -0.57629  -0.54460
  Beta  occ. eigenvalues --   -0.50345  -0.49993  -0.47706  -0.46257  -0.43037
  Beta  occ. eigenvalues --   -0.41282  -0.40085  -0.39680  -0.38009  -0.35033
  Beta virt. eigenvalues --   -0.09551  -0.02659  -0.00501   0.00994   0.01366
  Beta virt. eigenvalues --    0.02010   0.02729   0.04241   0.05197   0.05675
  Beta virt. eigenvalues --    0.06545   0.06926   0.07434   0.08277   0.08946

 Mulliken charges and spin densities:
               1          2
     1  O   -0.296479   0.719623
     2  H    0.250419  -0.015341
     3  C   -1.739282  -0.115515
     4  H    0.201758   0.024744
     5  C    1.826867   0.390455
     6  C   -0.271761  -0.025495
     7  O   -0.254138   0.017853
     8  O    0.031388   0.003430
     9  C   -0.265612  -0.001635
    10  C   -0.404422   0.001515
    11  H    0.200544   0.000075
    12  H    0.200212   0.000335
    13  H    0.167405   0.000114
    14  H    0.168652  -0.000005
    15  H    0.184449  -0.000152
 Sum of Mulliken charges =  -0.00000   1.00000

 Dipole moment (field-independent basis, Debye):
    X=             -3.1400    Y=             -1.5755    Z=              0.0907  Tot=              3.5143
 Quadrupole moment (field-independent basis, Debye-Ang):
   XX=            -45.6326   YY=            -48.4415   ZZ=            -47.7052
   XY=             -5.4091   XZ=              1.2209   YZ=             -0.2271

  Exact polarizability: 108.066   7.661  72.194   2.997  -2.216  50.554
 Approx polarizability: 110.047   5.010  88.125   5.942  -4.569  58.554

 ******    1 imaginary frequencies (negative Signs) ******

                      1                      2                      3
                      A                      A                      A
 Frequencies --   -710.8711                47.5904                69.2590
 Red. masses --     11.0030                 7.0567                 6.4380
 Frc consts  --      3.2760                 0.0094                 0.0182
 IR Inten    --    101.0065                 0.0225                 0.0641

                      4                      5                      6
                      A                      A                      A
 Frequencies --     94.4694               121.1313               207.0623
 Red. masses --      3.1498                 3.7047                 1.7830
 Frc consts  --      0.0166                 0.0320                 0.0450
 IR Inten    --      3.2218                 1.8018                 4.2829

                      7                      8                      9
                      A                      A                      A
 Frequencies --    246.1820               270.7854               293.2253
 Red. masses --      2.2109                 3.4018                 1.0964
 Frc consts  --      0.0789                 0.1470                 0.0555
 IR Inten    --      4.1728                 0.4984               110.9124

                     10                     11                     12
                      A                      A                      A
 Frequencies --    340.8238               426.6373               555.0022
 Red. masses --      3.0556                 4.0211                 4.6339
 Frc consts  --      0.2091                 0.4312                 0.8410
 IR Inten    --     14.3425                 1.9478                 6.0875

                     13                     14                     15
                      A                      A                      A
 Frequencies --    619.2527               769.2715               781.7742
 Red. masses --      8.5290                 1.8672                 3.0958
 Frc consts  --      1.9270                 0.6510                 1.1148
 IR Inten    --     12.5664                 3.8572                56.0217

                     16                     17                     18
                      A                      A                      A
 Frequencies --    800.7008               816.1659               885.1337
 Red. masses --      1.2211                 1.1154                 1.0878
 Frc consts  --      0.4612                 0.4378                 0.5022
 IR Inten    --      1.9030               189.2520                32.0059

                     19                     20                     21
                      A                      A                      A
 Frequencies --    894.5740               933.0229              1073.8038
 Red. masses --      2.9807                 2.7362                 4.1184
 Frc consts  --      1.4054                 1.4034                 2.7978
 IR Inten    --     11.3857                 4.6300                25.2644

                     22                     23                     24
                      A                      A                      A
 Frequencies --   1127.8701              1204.0185              1303.2259
 Red. masses --      2.0723                 1.7677                 2.9684
 Frc consts  --      1.5532                 1.5099                 2.9704
 IR Inten    --     23.3912                 2.9277               647.5157

                     25                     26                     27
                      A                      A                      A
 Frequencies --   1350.2995              1403.3541              1432.2781
 Red. masses --      1.3179                 1.3020                 1.3998
 Frc consts  --      1.4157                 1.5108                 1.6919
 IR Inten    --    185.7916                49.3728                16.6828

                     28                     29                     30
                      A                      A                      A
 Frequencies --   1492.9801              1503.2591              1515.3553
 Red. masses --      1.0413                 1.0620                 1.0870
 Frc consts  --      1.3675                 1.4140                 1.4706
 IR Inten    --      9.6596                 3.4460                20.7789

                     31                     32                     33
                      A                      A                      A
 Frequencies --   1812.6183              2083.1721              3076.2181
 Red. masses --     11.7165                 6.4815                 1.0354
 Frc consts  --     22.6810                16.5720                 5.7730
 IR Inten    --    214.7309               110.8004                 9.1914

                     34                     35                     36
                      A                      A                      A
 Frequencies --   3109.7243              3151.8167              3156.3323
 Red. masses --      1.0608                 1.1013                 1.1049
 Frc consts  --      6.0441                 6.4460                 6.4856
 IR Inten    --     17.1326                14.0314                 1.3424

                     37                     38                     39
                      A                      A                      A
 Frequencies --   3177.4023              3440.0910              3777.4597
 Red. masses --      1.1076                 1.1433                 1.0680
 Frc consts  --      6.5884                 7.9719                 8.9786
 IR Inten    --     14.0804                66.0279                37.0083

 - Thermochemistry -
 -------------------
 Temperature   298.150 Kelvin.  Pressure   1.00000 Atm.
 Atom     1 has atomic number  8 and mass  15.99491

 Molecular mass:   115.03952 amu.
 Principal axes and moments of inertia in atomic units:
                           1         2         3
     Eigenvalues --   329.483781900.378502076.42192
           X            0.99993  -0.00990  -0.00585
           Y            0.00999   0.99983   0.01556
           Z            0.00570  -0.01562   0.99986
 This molecule is an asymmetric top.
 Rotational symmetry number  1.
 Rotational temperatures (Kelvin)      0.26288     0.04558     0.04171
 Rotational constants (GHZ):           5.47748     0.94967     0.86916
    1 imaginary frequencies ignored.
 Zero-point vibrational energy     295258.4 (Joules/Mol)
                                   70.56844 (Kcal/Mol)
 Warning -- explicit consideration of  12 degrees of freedom as
           vibrations may cause significant error
 Vibrational temperatures:     68.47    99.65   135.92   174.28   297.92
          (Kelvin)            354.20   389.60   421.89   490.37   613.84
                              798.52   890.97  1106.81  1124.80  1152.03
                             1174.28  1273.51  1287.09  1342.41  1544.96
                             1622.75  1732.31  1875.05  1942.78  2019.11
                             2060.73  2148.07  2162.85  2180.26  2607.95
                             2997.22  4425.99  4474.20  4534.76  4541.26
                             4571.57  4949.52  5434.92

 Zero-point correction=                           0.112458 (Hartree/Particle)
 Thermal correction to Energy=                    0.121886
 Thermal correction to Enthalpy=                  0.122831
 Thermal correction to Gibbs Free Energy=         0.076569
 Sum of electronic and zero-point Energies=           -420.093016
 Sum of electronic and thermal Energies=              -420.083588
 Sum of electronic and thermal Enthalpies=            -420.082644
 Sum of electronic and thermal Free Energies=         -420.128905

                     E (Thermal)             CV                S
                      KCal/Mol        Cal/Mol-Kelvin    Cal/Mol-Kelvin
 Total                   76.485             31.563             97.366
 Electronic               0.000              0.000              1.377
 Translational            0.889              2.981             40.136
 Rotational               0.889              2.981             28.654
 Vibrational             74.707             25.602             27.198
 Vibration     1          0.595              1.978              4.915
 Vibration     2          0.598              1.969              4.174
 Vibration     3          0.603              1.953              3.565
 Vibration     4          0.609              1.932              3.082
 Vibration     5          0.641              1.830              2.069
 Vibration     6          0.661              1.769              1.758
 Vibration     7          0.674              1.727              1.591
 Vibration     8          0.688              1.686              1.455
 Vibration     9          0.720              1.594              1.208
 Vibration    10          0.788              1.412              0.870
 Vibration    11          0.910              1.129              0.534
 Vibration    12          0.979              0.991              0.418

 1\1\GINC-AJ\Freq\UM062X\6-311++G(d,p)\C5H7O3(2)\AAYUSH\23-Jun-2025\0\\
 # freq 6-311++g(d,p) m062x\\Title Card Required\\0,2\O,3.338796,0.7780
 16,0.107551\H,2.58552,1.359427,-0.090815\C,2.417424,-0.964514,0.270984
 \H,3.317872,-1.499549,0.479872\C,1.231541,-0.746758,0.075995\C,-0.0113
 51,-0.045491,-0.206268\O,-0.038989,1.141062,-0.404897\O,-1.059042,-0.8
 58425,-0.219499\C,-2.341192,-0.244156,-0.477576\C,-2.886904,0.41839,0.
 77151\H,-2.967614,-1.072422,-0.802796\H,-2.226206,0.469627,-1.29388\H,
 -3.886978,0.806687,0.569852\H,-2.954552,-0.303155,1.586893\H,-2.251261

 Normal termination of Gaussian 16 at Mon Jun 23 03:01:57 2025.
