 Gaussian 16, Revision A.03,
 Gaussian 16:  ES64L-G16RevA.03 25-Dec-2016

 --------------------------
 # ccsd(t)/6-311++g(d,p) sp
 --------------------------

 -------------------
 Title Card Required
 -------------------
 Symbolic Z-matrix:
 Charge =  0 Multiplicity = 2

                         Standard orientation:
 ---------------------------------------------------------------------
 Center     Atomic      Atomic             Coordinates (Angstroms)
 Number     Number       Type             X           Y           Z
 ---------------------------------------------------------------------
      1          8           0        3.357537    0.806682    0.108121
      2          1           0        2.591288    1.373709   -0.086810
      3          6           0        2.390348   -1.027496    0.272641
      4          1           0        3.326167   -1.497345    0.473142
      5          6           0        1.231255   -0.745431    0.072342
      6          6           0       -0.011406   -0.044580   -0.206464
      7          8           0       -0.037529    1.143198   -0.399873
      8          8           0       -1.060902   -0.855346   -0.223561
      9          6           0       -2.341501   -0.237381   -0.478999
     10          6           0       -2.886293    0.420570    0.772984
     11          1           0       -2.969716   -1.062772   -0.808142
     12          1           0       -2.225096    0.480077   -1.291893
     13          1           0       -3.885547    0.811875    0.573010
     14          1           0       -2.955486   -0.304600    1.585028
     15          1           0       -2.248880    1.248701    1.083151
 ---------------------------------------------------------------------

 SCF Done:  E(UHF) =  -417.986480714     A.U. after   34 cycles
 E2 =    -0.1254217711D+01 EUMP2 =    -0.41924069842528D+03
 CCSD(T)= -0.41935510293D+03

 The electronic state is 2-A.
 Alpha  occ. eigenvalues --  -20.62257 -20.61487 -20.57171 -11.42166 -11.30422
 Alpha  occ. eigenvalues --  -11.26860 -11.26372 -11.23169  -1.49280  -1.39378
 Alpha  occ. eigenvalues --   -1.37151  -1.09226  -1.04655  -0.92759  -0.84430
 Alpha  occ. eigenvalues --   -0.77429  -0.73482  -0.70831  -0.67491  -0.65763
 Alpha  occ. eigenvalues --   -0.64447  -0.63831  -0.59346  -0.56222  -0.54824
 Alpha  occ. eigenvalues --   -0.54377  -0.51468  -0.49951  -0.48011  -0.43094
 Alpha  occ. eigenvalues --   -0.41872
 Alpha virt. eigenvalues --    0.03890   0.04727   0.05624   0.06301   0.07166
 Alpha virt. eigenvalues --    0.08511   0.08900   0.09374   0.11055   0.12291
 Alpha virt. eigenvalues --    0.12730   0.13668   0.14511   0.15005   0.16655

  Beta  occ. eigenvalues --  -20.62240 -20.57590 -20.56755 -11.42475 -11.30418
  Beta  occ. eigenvalues --  -11.28434 -11.24530 -11.23168  -1.49054  -1.38668
  Beta  occ. eigenvalues --   -1.22894  -1.07513  -1.04687  -0.93271  -0.84388
  Beta  occ. eigenvalues --   -0.77319  -0.73276  -0.70286  -0.67115  -0.63827
  Beta  occ. eigenvalues --   -0.61929  -0.58952  -0.55431  -0.54713  -0.51241
  Beta  occ. eigenvalues --   -0.50288  -0.48811  -0.47030  -0.43833  -0.42578
  Beta virt. eigenvalues --    0.03890   0.04676   0.05626   0.05902   0.06936
  Beta virt. eigenvalues --    0.07606   0.08571   0.09098   0.10090   0.11978
  Beta virt. eigenvalues --    0.12811   0.13127   0.13682   0.14472   0.14713

 Mulliken charges and spin densities:
               1          2
     1  O   -0.237080   0.931375
     2  H    0.271529  -0.034250
     3  C   -2.320867  -0.712798
     4  H    0.199776   0.067885
     5  C    2.477152   0.844835
     6  C   -0.299455  -0.177125
     7  O   -0.334848   0.076578
     8  O   -0.049425   0.002457
     9  C   -0.157291  -0.001932
    10  C   -0.357251   0.002560
    11  H    0.171437   0.000307
    12  H    0.182074   0.000022
    13  H    0.135678   0.000190
    14  H    0.146210  -0.000105
    15  H    0.172362  -0.000000
 Sum of Mulliken charges =  -0.00000   1.00000

 Dipole moment (field-independent basis, Debye):
    X=             -2.2617    Y=             -1.0444    Z=              0.0736  Tot=              2.4923
 Quadrupole moment (field-independent basis, Debye-Ang):
   XX=            -42.7140   YY=            -48.8814   ZZ=            -47.7032
   XY=             -3.5545   XZ=              1.3059   YZ=             -0.0631

 PMP3-0=-419.2818678\MP4SDQ=-419.2966493\CCSD=-419.3016355\CCSD(T)=-419
 Normal termination of Gaussian 16 at Fri Jul 18 18:11:47 2025.
