 Gaussian 16, Revision A.03,
 Gaussian 16:  ES64L-G16RevA.03 25-Dec-2016

 -------------------
 # freq 6-31+g m062x
 -------------------

 -------------------
 Title Card Required
 -------------------
 Symbolic Z-matrix:
 Charge =  0 Multiplicity = 2

                         Standard orientation:
 ---------------------------------------------------------------------
 Center     Atomic      Atomic             Coordinates (Angstroms)
 Number     Number       Type             X           Y           Z
 ---------------------------------------------------------------------
      1          8           0        3.377880    0.837476    0.109036
      2          1           0        2.594785    1.383514   -0.082164
      3          6           0        2.365124   -1.089211    0.273487
      4          1           0        3.321860   -1.515101    0.467350
      5          6           0        1.228661   -0.747898    0.068705
      6          6           0       -0.011374   -0.043000   -0.206758
      7          8           0       -0.035742    1.145945   -0.394523
      8          8           0       -1.062747   -0.851567   -0.227945
      9          6           0       -2.341806   -0.229900   -0.480495
     10          6           0       -2.885527    0.423016    0.774621
     11          1           0       -2.971740   -1.052334   -0.813791
     12          1           0       -2.223949    0.491409   -1.289779
     13          1           0       -3.883915    0.817468    0.576479
     14          1           0       -2.956324   -0.306016    1.583063
     15          1           0       -2.246319    1.248192    1.088939
 ---------------------------------------------------------------------

 SCF Done:  E(UM062X) =  -419.961906873     A.U. after   23 cycles

 The electronic state is 2-A.
 Alpha  occ. eigenvalues --  -19.71830 -19.68703 -19.67572 -10.74119 -10.62447
 Alpha  occ. eigenvalues --  -10.60202 -10.59343 -10.55340  -1.29213  -1.19845
 Alpha  occ. eigenvalues --   -1.13076  -0.92200  -0.88824  -0.79509  -0.72228
 Alpha  occ. eigenvalues --   -0.65718  -0.62289  -0.59654  -0.57997  -0.54936
 Alpha  occ. eigenvalues --   -0.53460  -0.50511  -0.49389  -0.47837  -0.46165
 Alpha  occ. eigenvalues --   -0.42969  -0.41929  -0.40303  -0.39370  -0.37751
 Alpha  occ. eigenvalues --   -0.35166
 Alpha virt. eigenvalues --   -0.02515   0.01620   0.02890   0.03132   0.03679
 Alpha virt. eigenvalues --    0.04429   0.05401   0.06337   0.06962   0.07881
 Alpha virt. eigenvalues --    0.08418   0.08611   0.09061   0.10911   0.11796

  Beta  occ. eigenvalues --  -19.71822 -19.67550 -19.67108 -10.74133 -10.62446
  Beta  occ. eigenvalues --  -10.60229 -10.59189 -10.55340  -1.29180  -1.19791
  Beta  occ. eigenvalues --   -1.06118  -0.91853  -0.88560  -0.79433  -0.72091
  Beta  occ. eigenvalues --   -0.65681  -0.62004  -0.59585  -0.57915  -0.54879
  Beta  occ. eigenvalues --   -0.50443  -0.50397  -0.47806  -0.46208  -0.42935
  Beta  occ. eigenvalues --   -0.40838  -0.39684  -0.39325  -0.37797  -0.36285
  Beta virt. eigenvalues --   -0.08385  -0.02501   0.01636   0.02992   0.03172
  Beta virt. eigenvalues --    0.03864   0.04552   0.05712   0.06442   0.07219
  Beta virt. eigenvalues --    0.07932   0.08517   0.08670   0.09229   0.10862

 Mulliken charges and spin densities:
               1          2
     1  O   -0.460707   0.905703
     2  H    0.416207  -0.032039
     3  C   -0.324750  -0.113878
     4  H    0.339709   0.009086
     5  C   -0.024844   0.237031
     6  C    0.320554  -0.014449
     7  O   -0.398245   0.005350
     8  O   -0.212404   0.002790
     9  C   -0.223343  -0.000113
    10  C   -0.559987   0.000465
    11  H    0.223585   0.000018
    12  H    0.236026  -0.000022
    13  H    0.210744   0.000048
    14  H    0.222194   0.000007
    15  H    0.235261   0.000003
 Sum of Mulliken charges =  -0.00000   1.00000

 Dipole moment (field-independent basis, Debye):
    X=             -2.8879    Y=             -1.0069    Z=              0.0133  Tot=              3.0585
 Quadrupole moment (field-independent basis, Debye-Ang):
   XX=            -45.2352   YY=            -49.3692   ZZ=            -47.9530
   XY=             -4.4712   XZ=              1.0699   YZ=             -0.1089

  Exact polarizability:  95.923   0.960  64.678   3.709  -2.692  46.367
 Approx polarizability:  98.184  -2.657  77.885   6.941  -5.484  48.704

 ******    4 imaginary frequencies (negative Signs) ******

                      1                      2                      3
                      A                      A                      A
 Frequencies --   -393.7473              -123.7442               -90.9210
 Red. masses --      1.0894                 5.4659                 6.4303
 Frc consts  --      0.0995                 0.0493                 0.0313
 IR Inten    --    158.1481                 6.0480                 0.2236

                      4                      5                      6
                      A                      A                      A
 Frequencies --    -30.4956                40.0025               105.6386
 Red. masses --      3.3771                 3.2420                 6.0834
 Frc consts  --      0.0019                 0.0031                 0.0400
 IR Inten    --      7.0475                 3.4110                 0.7009

                      7                      8                      9
                      A                      A                      A
 Frequencies --    157.4029               192.8599               240.5921
 Red. masses --      3.6448                 1.5021                 4.0935
 Frc consts  --      0.0532                 0.0329                 0.1396
 IR Inten    --      5.2920                 3.7131                 1.5662

                     10                     11                     12
                      A                      A                      A
 Frequencies --    311.0152               419.3763               494.3157
 Red. masses --      2.9501                 3.9637                 1.1005
 Frc consts  --      0.1681                 0.4107                 0.1584
 IR Inten    --     24.6341                 2.9504               201.0497

                     13                     14                     15
                      A                      A                      A
 Frequencies --    564.9379               638.3399               769.2976
 Red. masses --      4.4938                 7.6533                 4.6692
 Frc consts  --      0.8450                 1.8374                 1.6281
 IR Inten    --      0.8264                20.7214                59.6780

                     16                     17                     18
                      A                      A                      A
 Frequencies --    784.5311               816.7473               838.6567
 Red. masses --      1.1186                 1.2532                 1.5658
 Frc consts  --      0.4056                 0.4925                 0.6489
 IR Inten    --     69.7338                 5.3944                20.3954

                     19                     20                     21
                      A                      A                      A
 Frequencies --    900.1162               948.2984              1111.8471
 Red. masses --      3.3592                 2.6511                 4.2172
 Frc consts  --      1.6036                 1.4046                 3.0716
 IR Inten    --     15.5033                 5.4266                 9.3967

                     22                     23                     24
                      A                      A                      A
 Frequencies --   1157.5495              1228.9167              1337.1407
 Red. masses --      2.0687                 1.7572                 1.5047
 Frc consts  --      1.6332                 1.5635                 1.5851
 IR Inten    --     21.4205                 2.6099               231.4949

                     25                     26                     27
                      A                      A                      A
 Frequencies --   1381.3548              1446.4754              1457.5591
 Red. masses --      2.1567                 1.4447                 1.2829
 Frc consts  --      2.4246                 1.7809                 1.6059
 IR Inten    --    450.6466                81.5104                17.1893

                     28                     29                     30
                      A                      A                      A
 Frequencies --   1528.4954              1537.6511              1545.6552
 Red. masses --      1.0423                 1.0732                 1.0743
 Frc consts  --      1.4347                 1.4950                 1.5121
 IR Inten    --     14.0563                 6.4666                25.0350

                     31                     32                     33
                      A                      A                      A
 Frequencies --   1883.1192              2285.8653              3108.2858
 Red. masses --     12.1352                 5.7558                 1.0351
 Frc consts  --     25.3544                17.7198                 5.8924
 IR Inten    --    250.2428                88.2985                12.2218

                     34                     35                     36
                      A                      A                      A
 Frequencies --   3139.6555              3188.5411              3192.1009
 Red. masses --      1.0601                 1.1002                 1.1027
 Frc consts  --      6.1570                 6.5906                 6.6199
 IR Inten    --     18.7475                13.7343                 4.7589

                     37                     38                     39
                      A                      A                      A
 Frequencies --   3213.2084              3527.3551              3773.1123
 Red. masses --      1.1055                 1.1707                 1.0677
 Frc consts  --      6.7249                 8.5818                 8.9555
 IR Inten    --     16.8052                70.1443                 9.3931

 - Thermochemistry -
 -------------------
 Temperature   298.150 Kelvin.  Pressure   1.00000 Atm.
 Atom     1 has atomic number  8 and mass  15.99491

 Molecular mass:   115.03952 amu.
 Principal axes and moments of inertia in atomic units:
                           1         2         3
     Eigenvalues --   346.383521904.937892097.56526
           X            0.99993  -0.01023  -0.00589
           Y            0.01031   0.99984   0.01446
           Z            0.00574  -0.01452   0.99988
 This molecule is an asymmetric top.
 Rotational symmetry number  1.
 Rotational temperatures (Kelvin)      0.25005     0.04547     0.04129
 Rotational constants (GHZ):           5.21024     0.94740     0.86040
    4 imaginary frequencies ignored.
 Zero-point vibrational energy     294676.2 (Joules/Mol)
                                   70.42931 (Kcal/Mol)
 Warning -- explicit consideration of   9 degrees of freedom as
           vibrations may cause significant error
 Vibrational temperatures:     57.55   151.99   226.47   277.48   346.16
          (Kelvin)            447.48   603.39   711.21   812.82   918.43
                             1106.85  1128.77  1175.12  1206.64  1295.07
                             1364.39  1599.70  1665.46  1768.14  1923.85
                             1987.46  2081.16  2097.10  2199.16  2212.34
                             2223.85  2709.39  3288.85  4472.13  4517.26
                             4587.60  4592.72  4623.09  5075.08  5428.67

 Zero-point correction=                           0.112236 (Hartree/Particle)
 Thermal correction to Energy=                    0.120111
 Thermal correction to Enthalpy=                  0.121055
 Thermal correction to Gibbs Free Energy=         0.078021
 Sum of electronic and zero-point Energies=           -419.849671
 Sum of electronic and thermal Energies=              -419.841796
 Sum of electronic and thermal Enthalpies=            -419.840852
 Sum of electronic and thermal Free Energies=         -419.883886

                     E (Thermal)             CV                S
                      KCal/Mol        Cal/Mol-Kelvin    Cal/Mol-Kelvin
 Total                   75.371             26.673             90.572
 Electronic               0.000              0.000              1.377
 Translational            0.889              2.981             40.136
 Rotational               0.889              2.981             28.717
 Vibrational             73.593             20.711             20.342
 Vibration     1          0.594              1.981              5.259
 Vibration     2          0.605              1.945              3.348
 Vibration     3          0.621              1.894              2.581
 Vibration     4          0.635              1.850              2.200
 Vibration     5          0.658              1.778              1.798
 Vibration     6          0.700              1.653              1.357
 Vibration     7          0.782              1.428              0.894
 Vibration     8          0.850              1.263              0.672
 Vibration     9          0.921              1.107              0.514

 Normal termination of Gaussian 16 at Fri Jun 20 13:20:45 2025.
