 Gaussian 16, Revision A.03,
 Gaussian 16:  ES64L-G16RevA.03 25-Dec-2016

 -------------------
 # freq 6-31+g m062x
 -------------------

 -------------------
 Title Card Required
 -------------------
 Symbolic Z-matrix:
 Charge =  0 Multiplicity = 2

                         Standard orientation:
 ---------------------------------------------------------------------
 Center     Atomic      Atomic             Coordinates (Angstroms)
 Number     Number       Type             X           Y           Z
 ---------------------------------------------------------------------
      1          8           0        3.391818    0.859003    0.109792
      2          1           0        2.597153    1.389515   -0.078993
      3          6           0        2.348873   -1.129000    0.273539
      4          1           0        3.312484   -1.539885    0.464398
      5          6           0        1.226226   -0.751769    0.066455
      6          6           0       -0.011255   -0.041801   -0.206960
      7          8           0       -0.034024    1.147862   -0.390798
      8          8           0       -1.064029   -0.848635   -0.231005
      9          6           0       -2.342073   -0.224464   -0.481565
     10          6           0       -2.884980    0.424904    0.775738
     11          1           0       -2.973109   -1.044900   -0.817712
     12          1           0       -2.223215    0.499467   -1.288368
     13          1           0       -3.882775    0.821518    0.578923
     14          1           0       -2.956859   -0.306807    1.581661
     15          1           0       -2.244554    1.248037    1.092928
 ---------------------------------------------------------------------

 SCF Done:  E(UM062X) =  -419.963411518     A.U. after   24 cycles

 The electronic state is 2-A.
 Alpha  occ. eigenvalues --  -19.71803 -19.68970 -19.67547 -10.74094 -10.62428
 Alpha  occ. eigenvalues --  -10.59970 -10.59215 -10.55326  -1.29180  -1.19807
 Alpha  occ. eigenvalues --   -1.13252  -0.92116  -0.88742  -0.79472  -0.72165
 Alpha  occ. eigenvalues --   -0.65677  -0.62186  -0.59627  -0.57964  -0.54924
 Alpha  occ. eigenvalues --   -0.53696  -0.50480  -0.49347  -0.47815  -0.46155
 Alpha  occ. eigenvalues --   -0.42946  -0.41988  -0.40290  -0.39348  -0.37832
 Alpha  occ. eigenvalues --   -0.35563
 Alpha virt. eigenvalues --   -0.02489   0.01627   0.02879   0.03135   0.03715
 Alpha virt. eigenvalues --    0.04423   0.05323   0.06343   0.06945   0.07898
 Alpha virt. eigenvalues --    0.08437   0.08623   0.09030   0.11026   0.11800

  Beta  occ. eigenvalues --  -19.71797 -19.67530 -19.67349 -10.74105 -10.62426
  Beta  occ. eigenvalues --  -10.59983 -10.59091 -10.55326  -1.29155  -1.19766
  Beta  occ. eigenvalues --   -1.06044  -0.91837  -0.88514  -0.79408  -0.72053
  Beta  occ. eigenvalues --   -0.65647  -0.61940  -0.59572  -0.57899  -0.54874
  Beta  occ. eigenvalues --   -0.50538  -0.50426  -0.47790  -0.46196  -0.42918
  Beta  occ. eigenvalues --   -0.40763  -0.39582  -0.39276  -0.37736  -0.36530
  Beta virt. eigenvalues --   -0.08252  -0.02471   0.01648   0.02993   0.03169
  Beta virt. eigenvalues --    0.03865   0.04542   0.05582   0.06450   0.07180
  Beta virt. eigenvalues --    0.07952   0.08575   0.08626   0.09160   0.10960

 Mulliken charges and spin densities:
               1          2
     1  O   -0.454748   0.930319
     2  H    0.416681  -0.033097
     3  C   -0.336170  -0.100425
     4  H    0.348672   0.006896
     5  C   -0.002776   0.204834
     6  C    0.288927  -0.015212
     7  O   -0.395001   0.003993
     8  O   -0.209573   0.002437
     9  C   -0.224068  -0.000132
    10  C   -0.559496   0.000342
    11  H    0.223474   0.000013
    12  H    0.235802  -0.000020
    13  H    0.210743   0.000039
    14  H    0.222200   0.000006
    15  H    0.235334   0.000006
 Sum of Mulliken charges =  -0.00000   1.00000

 Dipole moment (field-independent basis, Debye):
    X=             -2.8589    Y=             -0.9662    Z=              0.0071  Tot=              3.0178
 Quadrupole moment (field-independent basis, Debye-Ang):
   XX=            -45.1794   YY=            -49.3315   ZZ=            -47.9615
   XY=             -4.4115   XZ=              1.0487   YZ=             -0.1204

  Exact polarizability:  94.077  -0.837  63.811   3.770  -2.709  46.320
 Approx polarizability:  96.492  -4.578  77.444   7.001  -5.582  48.635

 ******    4 imaginary frequencies (negative Signs) ******

                      1                      2                      3
                      A                      A                      A
 Frequencies --   -399.4594              -122.3181               -87.0837
 Red. masses --      1.0894                 5.1534                 6.5105
 Frc consts  --      0.1024                 0.0454                 0.0291
 IR Inten    --    160.3075                11.0227                 0.3886

                      4                      5                      6
                      A                      A                      A
 Frequencies --    -29.4115                40.5540               141.5692
 Red. masses --      3.3469                 3.1885                 3.3485
 Frc consts  --      0.0017                 0.0031                 0.0395
 IR Inten    --      6.9020                 3.1698                 6.6930

                      7                      8                      9
                      A                      A                      A
 Frequencies --    188.9083               202.7581               243.3680
 Red. masses --      1.6144                 4.5242                 4.0779
 Frc consts  --      0.0339                 0.1096                 0.1423
 IR Inten    --      6.3389                 4.0212                 1.3522

                     10                     11                     12
                      A                      A                      A
 Frequencies --    310.9489               419.7220               438.0810
 Red. masses --      2.9360                 3.8598                 1.1351
 Frc consts  --      0.1673                 0.4006                 0.1283
 IR Inten    --     26.4883                 5.8539               187.8572

                     13                     14                     15
                      A                      A                      A
 Frequencies --    566.7218               639.2242               772.4130
 Red. masses --      4.4609                 7.0211                 4.2890
 Frc consts  --      0.8441                 1.6903                 1.5077
 IR Inten    --      2.2806                20.4865                61.7938

                     16                     17                     18
                      A                      A                      A
 Frequencies --    786.8501               816.8200               850.3744
 Red. masses --      1.1737                 1.2549                 1.6131
 Frc consts  --      0.4282                 0.4933                 0.6873
 IR Inten    --     68.6469                 4.1951                19.3802

                     19                     20                     21
                      A                      A                      A
 Frequencies --    900.3476               948.4014              1112.1363
 Red. masses --      3.3811                 2.6442                 4.2142
 Frc consts  --      1.6148                 1.4013                 3.0710
 IR Inten    --     15.4446                 5.3659                 9.2089

                     22                     23                     24
                      A                      A                      A
 Frequencies --   1157.6624              1228.8494              1337.1394
 Red. masses --      2.0714                 1.7575                 1.5057
 Frc consts  --      1.6356                 1.5637                 1.5861
 IR Inten    --     21.3919                 2.7355               226.8990

                     25                     26                     27
                      A                      A                      A
 Frequencies --   1381.3268              1446.4474              1457.4913
 Red. masses --      2.1553                 1.4444                 1.2831
 Frc consts  --      2.4230                 1.7805                 1.6060
 IR Inten    --    441.0951                79.7924                17.0076

                     28                     29                     30
                      A                      A                      A
 Frequencies --   1528.4634              1537.5912              1545.6139
 Red. masses --      1.0423                 1.0736                 1.0739
 Frc consts  --      1.4347                 1.4955                 1.5116
 IR Inten    --     14.1352                 6.4893                24.8806

                     31                     32                     33
                      A                      A                      A
 Frequencies --   1883.7126              2300.2498              3108.2069
 Red. masses --     12.1457                 5.6903                 1.0351
 Frc consts  --     25.3923                17.7394                 5.8921
 IR Inten    --    260.5500                87.4989                12.2353

                     34                     35                     36
                      A                      A                      A
 Frequencies --   3139.5445              3188.4442              3191.9891
 Red. masses --      1.0601                 1.1003                 1.1027
 Frc consts  --      6.1565                 6.5902                 6.6194
 IR Inten    --     18.7480                13.7139                 4.8184

                     37                     38                     39
                      A                      A                      A
 Frequencies --   3213.0989              3532.3040              3769.3274
 Red. masses --      1.1055                 1.1733                 1.0676
 Frc consts  --      6.7244                 8.6252                 8.9373
 IR Inten    --     16.7864                70.0362                 8.2624

 - Thermochemistry -
 -------------------
 Temperature   298.150 Kelvin.  Pressure   1.00000 Atm.
 Atom     1 has atomic number  8 and mass  15.99491

 Molecular mass:   115.03952 amu.
 Principal axes and moments of inertia in atomic units:
                           1         2         3
     Eigenvalues --   352.802771906.707542105.63895
           X            0.99993  -0.01048  -0.00590
           Y            0.01056   0.99985   0.01390
           Z            0.00576  -0.01396   0.99989
 This molecule is an asymmetric top.
 Rotational symmetry number  1.
 Rotational temperatures (Kelvin)      0.24550     0.04543     0.04113
 Rotational constants (GHZ):           5.11544     0.94652     0.85710
    4 imaginary frequencies ignored.
 Zero-point vibrational energy     295039.0 (Joules/Mol)
                                   70.51600 (Kcal/Mol)
 Warning -- explicit consideration of   9 degrees of freedom as
           vibrations may cause significant error
 Vibrational temperatures:     58.35   203.69   271.80   291.72   350.15
          (Kelvin)            447.39   603.89   630.30   815.39   919.70
                             1111.33  1132.10  1175.22  1223.50  1295.40
                             1364.54  1600.12  1665.62  1768.04  1923.85
                             1987.42  2081.12  2097.00  2199.12  2212.25
                             2223.79  2710.24  3309.55  4472.02  4517.10
                             4587.46  4592.56  4622.93  5082.20  5423.22

 Zero-point correction=                           0.112374 (Hartree/Particle)
 Thermal correction to Energy=                    0.120149
 Thermal correction to Enthalpy=                  0.121093
 Thermal correction to Gibbs Free Energy=         0.078479
 Sum of electronic and zero-point Energies=           -419.851037
 Sum of electronic and thermal Energies=              -419.843262
 Sum of electronic and thermal Enthalpies=            -419.842318
 Sum of electronic and thermal Free Energies=         -419.884932

                     E (Thermal)             CV                S
                      KCal/Mol        Cal/Mol-Kelvin    Cal/Mol-Kelvin
 Total                   75.395             26.672             89.689
 Electronic               0.000              0.000              1.377
 Translational            0.889              2.981             40.136
 Rotational               0.889              2.981             28.739
 Vibrational             73.617             20.711             19.437
 Vibration     1          0.594              1.981              5.232
 Vibration     2          0.615              1.912              2.783
 Vibration     3          0.633              1.855              2.239
 Vibration     4          0.639              1.836              2.108
 Vibration     5          0.659              1.774              1.778
 Vibration     6          0.700              1.653              1.357
 Vibration     7          0.782              1.427              0.893
 Vibration     8          0.798              1.387              0.833
 Vibration     9          0.923              1.103              0.511

 Normal termination of Gaussian 16 at Fri Jun 20 13:09:55 2025.
