 Gaussian 16, Revision A.03,
 Gaussian 16:  ES64L-G16RevA.03 25-Dec-2016

 -------------------
 # freq 6-31+g m062x
 -------------------

 -------------------
 Title Card Required
 -------------------
 Symbolic Z-matrix:
 Charge =  0 Multiplicity = 2

                         Standard orientation:
 ---------------------------------------------------------------------
 Center     Atomic      Atomic             Coordinates (Angstroms)
 Number     Number       Type             X           Y           Z
 ---------------------------------------------------------------------
      1          8           0        3.321678    0.750685    0.107276
      2          1           0        2.578072    1.341371   -0.093837
      3          6           0        2.445759   -0.901434    0.268756
      4          1           0        3.300893   -1.510075    0.486228
      5          6           0        1.229244   -0.751614    0.079796
      6          6           0       -0.010747   -0.045914   -0.206083
      7          8           0       -0.040353    1.139544   -0.409833
      8          8           0       -1.057311   -0.860941   -0.215632
      9          6           0       -2.340759   -0.250273   -0.476200
     10          6           0       -2.887371    0.416657    0.770110
     11          1           0       -2.965613   -1.081132   -0.797752
     12          1           0       -2.227162    0.460109   -1.295664
     13          1           0       -3.888185    0.802221    0.566954
     14          1           0       -2.953590   -0.301469    1.588625
     15          1           0       -2.253285    1.250146    1.072686
 ---------------------------------------------------------------------

 SCF Done:  E(UM062X) =  -419.961670039     A.U. after   21 cycles

 The electronic state is 2-A.
 Alpha  occ. eigenvalues --  -19.72178 -19.68065 -19.66762 -10.74523 -10.63772
 Alpha  occ. eigenvalues --  -10.62709 -10.61249 -10.55543  -1.29662  -1.20345
 Alpha  occ. eigenvalues --   -1.11307  -0.93311  -0.89504  -0.80053  -0.73002
 Alpha  occ. eigenvalues --   -0.66166  -0.62771  -0.60083  -0.58482  -0.55206
 Alpha  occ. eigenvalues --   -0.52195  -0.50895  -0.48964  -0.48105  -0.46373
 Alpha  occ. eigenvalues --   -0.43295  -0.41799  -0.40749  -0.39744  -0.36632
 Alpha  occ. eigenvalues --   -0.32388
 Alpha virt. eigenvalues --   -0.03254   0.01448   0.02781   0.03022   0.03474
 Alpha virt. eigenvalues --    0.04442   0.05283   0.06197   0.07108   0.07702
 Alpha virt. eigenvalues --    0.08038   0.08592   0.09209   0.10311   0.11763

  Beta  occ. eigenvalues --  -19.72155 -19.67965 -19.65694 -10.74569 -10.63931
  Beta  occ. eigenvalues --  -10.62706 -10.60754 -10.55543  -1.29536  -1.20136
  Beta  occ. eigenvalues --   -1.07544  -0.92090  -0.88955  -0.79867  -0.72604
  Beta  occ. eigenvalues --   -0.66064  -0.62375  -0.59837  -0.58186  -0.55053
  Beta  occ. eigenvalues --   -0.50689  -0.50065  -0.48046  -0.46405  -0.43181
  Beta  occ. eigenvalues --   -0.41823  -0.40754  -0.39740  -0.38834  -0.34600
  Beta virt. eigenvalues --   -0.10001  -0.03254   0.01342   0.02673   0.03003
  Beta virt. eigenvalues --    0.03913   0.04488   0.06087   0.06241   0.07336
  Beta virt. eigenvalues --    0.07552   0.08067   0.08770   0.09539   0.10398

 Mulliken charges and spin densities:
               1          2
     1  O   -0.525018   0.566658
     2  H    0.410507  -0.019067
     3  C   -0.240619  -0.282630
     4  H    0.278858   0.029831
     5  C   -0.010463   0.682152
     6  C    0.369195  -0.006920
     7  O   -0.407671   0.022972
     8  O   -0.218069   0.006304
     9  C   -0.222386  -0.001460
    10  C   -0.565086   0.002043
    11  H    0.224881   0.000045
    12  H    0.236892   0.000005
    13  H    0.211478   0.000113
    14  H    0.222337   0.000011
    15  H    0.235163  -0.000059
 Sum of Mulliken charges =  -0.00000   1.00000

 Dipole moment (field-independent basis, Debye):
    X=             -3.5039    Y=             -1.6356    Z=              0.0548  Tot=              3.8672
 Quadrupole moment (field-independent basis, Debye-Ang):
   XX=            -48.1703   YY=            -49.4066   ZZ=            -47.9462
   XY=             -6.2095   XZ=              1.1378   YZ=             -0.1838

  Exact polarizability: 103.213   8.037  69.133   3.370  -2.831  46.632
 Approx polarizability: 105.629   8.873  85.139   5.994  -5.493  49.216

 ******    4 imaginary frequencies (negative Signs) ******

                      1                      2                      3
                      A                      A                      A
 Frequencies --   -830.1578              -364.7241               -60.4351
 Red. masses --     10.9349                 1.0768                 5.5588
 Frc consts  --      4.4400                 0.0844                 0.0120
 IR Inten    --     25.1064               142.9018                 0.4317

                      4                      5                      6
                      A                      A                      A
 Frequencies --    -49.7071                38.8767               125.4275
 Red. masses --      4.8901                 3.2286                 4.7837
 Frc consts  --      0.0071                 0.0029                 0.0443
 IR Inten    --      3.6367                 1.3315                 9.3072

                      7                      8                      9
                      A                      A                      A
 Frequencies --    178.8328               245.2102               255.5923
 Red. masses --      1.2717                 4.2174                 3.5300
 Frc consts  --      0.0240                 0.1494                 0.1359
 IR Inten    --      3.5744                 7.5269                 6.3356

                     10                     11                     12
                      A                      A                      A
 Frequencies --    318.1169               423.9265               558.5536
 Red. masses --      3.2604                 3.8206                 4.7058
 Frc consts  --      0.1944                 0.4045                 0.8650
 IR Inten    --     20.8551                 3.4486                 8.6959

                     13                     14                     15
                      A                      A                      A
 Frequencies --    615.3372               751.7515               804.7026
 Red. masses --      7.9208                11.3312                 1.3356
 Frc consts  --      1.7670                 3.7729                 0.5096
 IR Inten    --      9.0381                31.6216                40.8946

                     16                     17                     18
                      A                      A                      A
 Frequencies --    812.6660               830.5068               896.3609
 Red. masses --      1.2946                 1.1360                 3.1254
 Frc consts  --      0.5037                 0.4616                 1.4795
 IR Inten    --     19.8482               180.0496                13.7960

                     19                     20                     21
                      A                      A                      A
 Frequencies --    940.4512               980.4038              1109.7275
 Red. masses --      2.0714                 1.2062                 4.1984
 Frc consts  --      1.0794                 0.6831                 3.0463
 IR Inten    --      3.1943                 1.1690                10.0800

                     22                     23                     24
                      A                      A                      A
 Frequencies --   1156.6437              1228.6912              1334.2840
 Red. masses --      2.0514                 1.7495                 1.6205
 Frc consts  --      1.6170                 1.5561                 1.6998
 IR Inten    --     22.0495                 2.3646               285.8781

                     25                     26                     27
                      A                      A                      A
 Frequencies --   1378.2842              1445.1487              1457.9220
 Red. masses --      2.0340                 1.4199                 1.2683
 Frc consts  --      2.2766                 1.7471                 1.5884
 IR Inten    --    440.1052                67.6759                16.9132

                     28                     29                     30
                      A                      A                      A
 Frequencies --   1528.6856              1537.8659              1545.8076
 Red. masses --      1.0421                 1.0697                 1.0755
 Frc consts  --      1.4348                 1.4906                 1.5142
 IR Inten    --     13.9480                 5.4826                24.6316

                     31                     32                     33
                      A                      A                      A
 Frequencies --   1874.8626              2031.2880              3108.6820
 Red. masses --     11.6944                 6.9168                 1.0351
 Frc consts  --     24.2196                16.8151                 5.8938
 IR Inten    --    178.5419               136.0472                11.8414

                     34                     35                     36
                      A                      A                      A
 Frequencies --   3140.1271              3189.1848              3192.6599
 Red. masses --      1.0602                 1.1003                 1.1026
 Frc consts  --      6.1595                 6.5933                 6.6219
 IR Inten    --     18.3852                13.3232                 4.6138

                     37                     38                     39
                      A                      A                      A
 Frequencies --   3213.7530              3427.1284              3806.9445
 Red. masses --      1.1055                 1.1324                 1.0680
 Frc consts  --      6.7274                 7.8362                 9.1195
 IR Inten    --     16.5953                40.4904                26.2233

 - Thermochemistry -
 -------------------
 Temperature   298.150 Kelvin.  Pressure   1.00000 Atm.
 Atom     1 has atomic number  8 and mass  15.99491

 Molecular mass:   115.03952 amu.
 Principal axes and moments of inertia in atomic units:
                           1         2         3
     Eigenvalues --   322.371071898.748952067.81476
           X            0.99993  -0.00989  -0.00584
           Y            0.00998   0.99982   0.01593
           Z            0.00568  -0.01599   0.99986
 This molecule is an asymmetric top.
 Rotational symmetry number  1.
 Rotational temperatures (Kelvin)      0.26868     0.04562     0.04189
 Rotational constants (GHZ):           5.59833     0.95049     0.87278
    4 imaginary frequencies ignored.
 Zero-point vibrational energy     295982.5 (Joules/Mol)
                                   70.74151 (Kcal/Mol)
 Warning -- explicit consideration of   9 degrees of freedom as
           vibrations may cause significant error
 Vibrational temperatures:     55.93   180.46   257.30   352.80   367.74
          (Kelvin)            457.70   609.94   803.63   885.33  1081.60
                             1157.79  1169.25  1194.91  1289.66  1353.10
                             1410.58  1596.65  1664.15  1767.81  1919.74
                             1983.04  2079.25  2097.62  2199.44  2212.65
                             2224.07  2697.51  2922.57  4472.70  4517.94
                             4588.53  4593.53  4623.87  4930.87  5477.34

 Zero-point correction=                           0.112734 (Hartree/Particle)
 Thermal correction to Energy=                    0.120258
 Thermal correction to Enthalpy=                  0.121202
 Thermal correction to Gibbs Free Energy=         0.078979
 Sum of electronic and zero-point Energies=           -419.848936
 Sum of electronic and thermal Energies=              -419.841412
 Sum of electronic and thermal Enthalpies=            -419.840468
 Sum of electronic and thermal Free Energies=         -419.882691

                     E (Thermal)             CV                S
                      KCal/Mol        Cal/Mol-Kelvin    Cal/Mol-Kelvin
 Total                   75.463             25.745             88.866
 Electronic               0.000              0.000              1.377
 Translational            0.889              2.981             40.136
 Rotational               0.889              2.981             28.628
 Vibrational             73.686             19.783             18.725
 Vibration     1          0.594              1.981              5.316
 Vibration     2          0.610              1.928              3.015
 Vibration     3          0.629              1.868              2.341
 Vibration     4          0.660              1.771              1.765
 Vibration     5          0.666              1.753              1.692
 Vibration     6          0.705              1.639              1.320
 Vibration     7          0.786              1.418              0.879
 Vibration     8          0.914              1.121              0.527
 Vibration     9          0.975              0.999              0.424

 Normal termination of Gaussian 16 at Fri Jun 20 13:13:48 2025.
