 Gaussian 16, Revision A.03,
 Gaussian 16:  ES64L-G16RevA.03 25-Dec-2016

 --------------------------
 # ccsd(t)/6-311++g(d,p) sp
 --------------------------

 -------------------
 Title Card Required
 -------------------
 Symbolic Z-matrix:
 Charge =  0 Multiplicity = 2

                         Standard orientation:
 ---------------------------------------------------------------------
 Center     Atomic      Atomic             Coordinates (Angstroms)
 Number     Number       Type             X           Y           Z
 ---------------------------------------------------------------------
      1          8           0        3.327241    0.759727    0.107333
      2          1           0        2.580545    1.347611   -0.092860
      3          6           0        2.436220   -0.922407    0.269547
      4          1           0        3.307454   -1.506498    0.484210
      5          6           0        1.230286   -0.749598    0.078499
      6          6           0       -0.011069   -0.045814   -0.206153
      7          8           0       -0.039904    1.139979   -0.408188
      8          8           0       -1.057865   -0.860157   -0.216906
      9          6           0       -2.340924   -0.248299   -0.476657
     10          6           0       -2.887230    0.417163    0.770580
     11          1           0       -2.966260   -1.078320   -0.799432
     12          1           0       -2.226855    0.463204   -1.295076
     13          1           0       -3.887805    0.803612    0.567916
     14          1           0       -2.953914   -0.302104    1.588054
     15          1           0       -2.252652    1.249825    1.074389
 ---------------------------------------------------------------------

 SCF Done:  E(UHF) =  -417.982711227     A.U. after   31 cycles
 E2 =    -0.1250275122D+01 EUMP2 =    -0.41923298634922D+03
 CCSD(T)= -0.41935731903D+03

 The electronic state is 2-A.
 Alpha  occ. eigenvalues --  -20.62299 -20.60781 -20.57322 -11.42068 -11.30485
 Alpha  occ. eigenvalues --  -11.27903 -11.27298 -11.23221  -1.49389  -1.39586
 Alpha  occ. eigenvalues --   -1.36317  -1.09870  -1.04766  -0.92746  -0.84559
 Alpha  occ. eigenvalues --   -0.77572  -0.73273  -0.71065  -0.67671  -0.64707
 Alpha  occ. eigenvalues --   -0.63980  -0.63289  -0.59502  -0.56441  -0.54876
 Alpha  occ. eigenvalues --   -0.53738  -0.51670  -0.50323  -0.48253  -0.43431
 Alpha  occ. eigenvalues --   -0.42217
 Alpha virt. eigenvalues --    0.03863   0.04784   0.05579   0.06274   0.07157
 Alpha virt. eigenvalues --    0.08468   0.08981   0.09386   0.11016   0.12265
 Alpha virt. eigenvalues --    0.12695   0.13706   0.14501   0.15015   0.16666

  Beta  occ. eigenvalues --  -20.62279 -20.57348 -20.56744 -11.42476 -11.30481
  Beta  occ. eigenvalues --  -11.30119 -11.24663 -11.23219  -1.49073  -1.38604
  Beta  occ. eigenvalues --   -1.24393  -1.07248  -1.04701  -0.93381  -0.84408
  Beta  occ. eigenvalues --   -0.77389  -0.73024  -0.70254  -0.67128  -0.63780
  Beta  occ. eigenvalues --   -0.61673  -0.58955  -0.55404  -0.54730  -0.51335
  Beta  occ. eigenvalues --   -0.50893  -0.48721  -0.46905  -0.45294  -0.42340
  Beta virt. eigenvalues --    0.03865   0.04741   0.05537   0.05609   0.06827
  Beta virt. eigenvalues --    0.07366   0.08427   0.09018   0.09804   0.11849
  Beta virt. eigenvalues --    0.12838   0.13020   0.13700   0.14373   0.14666

 Mulliken charges and spin densities:
               1          2
     1  O   -0.244203   0.819114
     2  H    0.270047  -0.031236
     3  C   -1.763468  -1.009357
     4  H    0.210051   0.085121
     5  C    2.004265   1.227185
     6  C   -0.374085  -0.201043
     7  O   -0.331777   0.106379
     8  O   -0.058524   0.003377
     9  C   -0.159256  -0.003655
    10  C   -0.360277   0.003436
    11  H    0.170397   0.000463
    12  H    0.182964   0.000110
    13  H    0.134465   0.000242
    14  H    0.146747  -0.000089
    15  H    0.172651  -0.000048
 Sum of Mulliken charges =  -0.00000   1.00000

 Dipole moment (field-independent basis, Debye):
    X=             -2.5166    Y=             -1.3255    Z=              0.0940  Tot=              2.8459
 Quadrupole moment (field-independent basis, Debye-Ang):
   XX=            -44.2628   YY=            -48.7947   ZZ=            -47.6447
   XY=             -4.1602   XZ=              1.2702   YZ=             -0.0802

 PMP3-0=-419.2850871\MP4SDQ=-419.2927529\CCSD=-419.3024684\CCSD(T)=-419
 Normal termination of Gaussian 16 at Sat Aug  2 00:35:27 2025.
