 Gaussian 16, Revision A.03,
 Gaussian 16:  ES64L-G16RevA.03 25-Dec-2016

 -------------------
 # freq 6-31+g m062x
 -------------------

 -------------------
 Title Card Required
 -------------------
 Symbolic Z-matrix:
 Charge =  0 Multiplicity = 2

                         Standard orientation:
 ---------------------------------------------------------------------
 Center     Atomic      Atomic             Coordinates (Angstroms)
 Number     Number       Type             X           Y           Z
 ---------------------------------------------------------------------
      1          8           0        3.351098    0.796937    0.107886
      2          1           0        2.589683    1.369509   -0.088207
      3          6           0        2.399220   -1.006578    0.272165
      4          1           0        3.324511   -1.496502    0.475392
      5          6           0        1.231610   -0.745503    0.073553
      6          6           0       -0.011413   -0.044945   -0.206393
      7          8           0       -0.038037    1.142419   -0.401570
      8          8           0       -1.060275   -0.856441   -0.222176
      9          6           0       -2.341409   -0.239723   -0.478513
     10          6           0       -2.886514    0.419818    0.772475
     11          1           0       -2.969011   -1.066113   -0.806286
     12          1           0       -2.225491    0.476454   -1.292596
     13          1           0       -3.886052    0.810081    0.571902
     14          1           0       -2.955173   -0.304092    1.585680
     15          1           0       -2.249714    1.248932    1.081273
 ---------------------------------------------------------------------

 SCF Done:  E(UM062X) =  -419.958862132     A.U. after   23 cycles

 The electronic state is 2-A.
 Alpha  occ. eigenvalues --  -19.71957 -19.67903 -19.67732 -10.74272 -10.62543
 Alpha  occ. eigenvalues --  -10.61191 -10.59935 -10.55412  -1.29374  -1.20021
 Alpha  occ. eigenvalues --   -1.12419  -0.92545  -0.89093  -0.79679  -0.72475
 Alpha  occ. eigenvalues --   -0.65878  -0.62523  -0.59795  -0.58157  -0.55025
 Alpha  occ. eigenvalues --   -0.52754  -0.50645  -0.49372  -0.47943  -0.46235
 Alpha  occ. eigenvalues --   -0.43079  -0.41725  -0.40429  -0.39491  -0.37487
 Alpha  occ. eigenvalues --   -0.34094
 Alpha virt. eigenvalues --   -0.02696   0.01573   0.02889   0.03104   0.03543
 Alpha virt. eigenvalues --    0.04417   0.05425   0.06297   0.06990   0.07812
 Alpha virt. eigenvalues --    0.08256   0.08618   0.09118   0.10632   0.11772

  Beta  occ. eigenvalues --  -19.71944 -19.67687 -19.66417 -10.74296 -10.62540
  Beta  occ. eigenvalues --  -10.61261 -10.59682 -10.55412  -1.29315  -1.19922
  Beta  occ. eigenvalues --   -1.06392  -0.91962  -0.88728  -0.79567  -0.72258
  Beta  occ. eigenvalues --   -0.65821  -0.62183  -0.59675  -0.58015  -0.54939
  Beta  occ. eigenvalues --   -0.50530  -0.50019  -0.47891  -0.46279  -0.43022
  Beta  occ. eigenvalues --   -0.41106  -0.39983  -0.39469  -0.38066  -0.35583
  Beta virt. eigenvalues --   -0.09114  -0.02696   0.01561   0.02926   0.03133
  Beta virt. eigenvalues --    0.03887   0.04542   0.05909   0.06390   0.07291
  Beta virt. eigenvalues --    0.07837   0.08333   0.08742   0.09398   0.10646

 Mulliken charges and spin densities:
               1          2
     1  O   -0.481225   0.819079
     2  H    0.413602  -0.028961
     3  C   -0.279231  -0.173945
     4  H    0.312224   0.016133
     5  C   -0.051206   0.363615
     6  C    0.362293  -0.010971
     7  O   -0.404561   0.010418
     8  O   -0.216291   0.003869
     9  C   -0.222822  -0.000224
    10  C   -0.561793   0.000903
    11  H    0.224096   0.000032
    12  H    0.236520  -0.000020
    13  H    0.210964   0.000073
    14  H    0.222265   0.000010
    15  H    0.235164  -0.000011
 Sum of Mulliken charges =  -0.00000   1.00000

 Dipole moment (field-independent basis, Debye):
    X=             -3.0785    Y=             -1.2100    Z=              0.0288  Tot=              3.3079
 Quadrupole moment (field-independent basis, Debye-Ang):
   XX=            -45.9785   YY=            -49.3769   ZZ=            -47.9372
   XY=             -4.9914   XZ=              1.1138   YZ=             -0.1250

  Exact polarizability: 101.176   5.892  67.777   3.529  -2.721  46.480
 Approx polarizability: 102.643   2.603  80.307   6.695  -5.338  48.882

 ******    5 imaginary frequencies (negative Signs) ******

                      1                      2                      3
                      A                      A                      A
 Frequencies --   -455.6309              -387.9643              -105.3790
 Red. masses --     12.6048                 1.0856                 5.8052
 Frc consts  --      1.5417                 0.0963                 0.0380
 IR Inten    --     39.4504               152.4451                 2.4447

                      4                      5                      6
                      A                      A                      A
 Frequencies --    -79.4902               -18.8848                42.7784
 Red. masses --      7.4179                 2.9728                 3.4225
 Frc consts  --      0.0276                 0.0006                 0.0037
 IR Inten    --      0.2499                 6.1945                 5.7362

                      7                      8                      9
                      A                      A                      A
 Frequencies --    169.7203               205.2333               237.1621
 Red. masses --      1.7184                 2.4200                 4.0386
 Frc consts  --      0.0292                 0.0601                 0.1338
 IR Inten    --      7.1682                 4.9692                 2.2099

                     10                     11                     12
                      A                      A                      A
 Frequencies --    312.0993               418.7672               558.3908
 Red. masses --      3.0093                 3.9615                 4.1318
 Frc consts  --      0.1727                 0.4093                 0.7590
 IR Inten    --     20.5747                 2.5873                17.9379

                     13                     14                     15
                      A                      A                      A
 Frequencies --    621.7451               641.0148               761.4440
 Red. masses --      2.2283                 1.7824                 6.1473
 Frc consts  --      0.5075                 0.4315                 2.1000
 IR Inten    --     59.7965               157.8409                52.6834

                     16                     17                     18
                      A                      A                      A
 Frequencies --    809.5448               814.5598               816.7400
 Red. masses --      1.4390                 1.0803                 1.2563
 Frc consts  --      0.5557                 0.4223                 0.4937
 IR Inten    --     24.5329                48.5001                 9.4034

                     19                     20                     21
                      A                      A                      A
 Frequencies --    899.0595               947.4687              1110.8043
 Red. masses --      3.3003                 2.6550                 4.2249
 Frc consts  --      1.5718                 1.4042                 3.0714
 IR Inten    --     15.3389                 5.3848                 9.7145

                     22                     23                     24
                      A                      A                      A
 Frequencies --   1157.1768              1228.9295              1336.2857
 Red. masses --      2.0603                 1.7545                 1.5349
 Frc consts  --      1.6255                 1.5612                 1.6148
 IR Inten    --     21.2640                 2.3977               258.0355

                     25                     26                     27
                      A                      A                      A
 Frequencies --   1380.4898              1446.1581              1457.7453
 Red. masses --      2.1228                 1.4384                 1.2783
 Frc consts  --      2.3835                 1.7724                 1.6004
 IR Inten    --    466.2641                81.3029                17.3217

                     28                     29                     30
                      A                      A                      A
 Frequencies --   1528.5770              1537.7769              1545.7436
 Red. masses --      1.0422                 1.0717                 1.0750
 Frc consts  --      1.4348                 1.4932                 1.5133
 IR Inten    --     13.8971                 6.2760                25.2277

                     31                     32                     33
                      A                      A                      A
 Frequencies --   1881.5789              2216.2268              3108.4804
 Red. masses --     12.0878                 6.0756                 1.0351
 Frc consts  --     25.2140                17.5820                 5.8931
 IR Inten    --    219.7795                98.1444                12.1162

                     34                     35                     36
                      A                      A                      A
 Frequencies --   3139.9515              3188.8423              3192.3809
 Red. masses --      1.0602                 1.1002                 1.1027
 Frc consts  --      6.1584                 6.5916                 6.6211
 IR Inten    --     18.7013                13.7584                 4.5552

                     37                     38                     39
                      A                      A                      A
 Frequencies --   3213.5075              3505.1236              3784.2380
 Red. masses --      1.1055                 1.1583                 1.0678
 Frc consts  --      6.7263                 8.3845                 9.0092
 IR Inten    --     16.7914                67.7285                13.4155

 - Thermochemistry -
 -------------------
 Temperature   298.150 Kelvin.  Pressure   1.00000 Atm.
 Atom     1 has atomic number  8 and mass  15.99491

 Molecular mass:   115.03952 amu.
 Principal axes and moments of inertia in atomic units:
                           1         2         3
     Eigenvalues --   334.702171901.693302082.85977
           X            0.99993  -0.00994  -0.00586
           Y            0.01003   0.99983   0.01528
           Z            0.00571  -0.01534   0.99987
 This molecule is an asymmetric top.
 Rotational symmetry number  1.
 Rotational temperatures (Kelvin)      0.25878     0.04555     0.04158
 Rotational constants (GHZ):           5.39208     0.94902     0.86647
    5 imaginary frequencies ignored.
 Zero-point vibrational energy     294375.5 (Joules/Mol)
                                   70.35744 (Kcal/Mol)
 Warning -- explicit consideration of   7 degrees of freedom as
           vibrations may cause significant error
 Vibrational temperatures:     61.55   244.19   295.28   341.22   449.04
          (Kelvin)            602.51   803.40   894.55   922.28  1095.55
                             1164.75  1171.97  1175.11  1293.55  1363.20
                             1598.20  1664.92  1768.16  1922.62  1986.22
                             2080.70  2097.37  2199.28  2212.52  2223.98
                             2707.17  3188.66  4472.41  4517.69  4588.03
                             4593.12  4623.52  5043.09  5444.67

 Zero-point correction=                           0.112122 (Hartree/Particle)
 Thermal correction to Energy=                    0.119155
 Thermal correction to Enthalpy=                  0.120099
 Thermal correction to Gibbs Free Energy=         0.078967
 Sum of electronic and zero-point Energies=           -419.846740
 Sum of electronic and thermal Energies=              -419.839707
 Sum of electronic and thermal Enthalpies=            -419.838763
 Sum of electronic and thermal Free Energies=         -419.879895

                     E (Thermal)             CV                S
                      KCal/Mol        Cal/Mol-Kelvin    Cal/Mol-Kelvin
 Total                   74.771             24.448             86.570
 Electronic               0.000              0.000              1.377
 Translational            0.889              2.981             40.136
 Rotational               0.889              2.981             28.674
 Vibrational             72.994             18.487             16.384
 Vibration     1          0.595              1.980              5.126
 Vibration     2          0.625              1.880              2.439
 Vibration     3          0.640              1.832              2.086
 Vibration     4          0.656              1.784              1.824
 Vibration     5          0.700              1.651              1.351
 Vibration     6          0.782              1.429              0.896
 Vibration     7          0.914              1.121              0.527

 Normal termination of Gaussian 16 at Fri Jun 20 13:17:43 2025.
