 Gaussian 16, Revision A.03,
 Gaussian 16:  ES64L-G16RevA.03 25-Dec-2016

 -------------------
 # freq 6-31+g m062x
 -------------------

 -------------------
 Title Card Required
 -------------------
 Symbolic Z-matrix:
 Charge =  0 Multiplicity = 2

                         Standard orientation:
 ---------------------------------------------------------------------
 Center     Atomic      Atomic             Coordinates (Angstroms)
 Number     Number       Type             X           Y           Z
 ---------------------------------------------------------------------
      1          8           0        3.299484    0.713412    0.107372
      2          1           0        2.570168    1.317693   -0.097861
      3          6           0        2.482047   -0.817888    0.265055
      4          1           0        3.271277   -1.514864    0.492905
      5          6           0        1.225843   -0.762088    0.085815
      6          6           0       -0.008371   -0.046481   -0.205634
      7          8           0       -0.041979    1.138065   -0.416746
      8          8           0       -1.055350   -0.863729   -0.210424
      9          6           0       -2.339906   -0.257787   -0.474370
     10          6           0       -2.887892    0.415433    0.767999
     11          1           0       -2.963257   -1.091786   -0.790872
     12          1           0       -2.228331    0.448057   -1.298093
     13          1           0       -3.889592    0.797683    0.562860
     14          1           0       -2.952361   -0.297936    1.590825
     15          1           0       -2.255458    1.252032    1.065440
 ---------------------------------------------------------------------

 SCF Done:  E(UM062X) =  -419.975506516     A.U. after   19 cycles

 The electronic state is 2-A.
 Alpha  occ. eigenvalues --  -19.72030 -19.67972 -19.66898 -10.74287 -10.65276
 Alpha  occ. eigenvalues --  -10.62626 -10.61618 -10.55484  -1.29505  -1.20217
 Alpha  occ. eigenvalues --   -1.11901  -0.93360  -0.89411  -0.80035  -0.73090
 Alpha  occ. eigenvalues --   -0.66138  -0.62638  -0.60007  -0.58420  -0.55123
 Alpha  occ. eigenvalues --   -0.53086  -0.50863  -0.48783  -0.47966  -0.46306
 Alpha  occ. eigenvalues --   -0.43277  -0.42573  -0.40774  -0.39676  -0.35882
 Alpha  occ. eigenvalues --   -0.31852
 Alpha virt. eigenvalues --   -0.03499   0.01418   0.02698   0.03025   0.03786
 Alpha virt. eigenvalues --    0.04612   0.05436   0.06201   0.07373   0.07734
 Alpha virt. eigenvalues --    0.08093   0.08667   0.09622   0.10363   0.11666

  Beta  occ. eigenvalues --  -19.72003 -19.67837 -19.66275 -10.74339 -10.65446
  Beta  occ. eigenvalues --  -10.62622 -10.60920 -10.55483  -1.29335  -1.19940
  Beta  occ. eigenvalues --   -1.09794  -0.91749  -0.88661  -0.79790  -0.72553
  Beta  occ. eigenvalues --   -0.65997  -0.62136  -0.59663  -0.58011  -0.54914
  Beta  occ. eigenvalues --   -0.51444  -0.50583  -0.47954  -0.46293  -0.43515
  Beta  occ. eigenvalues --   -0.42975  -0.41878  -0.39737  -0.39103  -0.34285
  Beta virt. eigenvalues --   -0.09192  -0.03407   0.01183   0.02490   0.03001
  Beta virt. eigenvalues --    0.03967   0.04598   0.06173   0.06203   0.07402
  Beta virt. eigenvalues --    0.07521   0.07994   0.08846   0.09665   0.10373

 Mulliken charges and spin densities:
               1          2
     1  O   -0.538952   0.325569
     2  H    0.416620  -0.009323
     3  C   -0.240472  -0.249892
     4  H    0.262951   0.033913
     5  C    0.039170   0.876582
     6  C    0.356931  -0.014420
     7  O   -0.415041   0.030461
     8  O   -0.221503   0.007475
     9  C   -0.220553  -0.003106
    10  C   -0.567888   0.002651
    11  H    0.224537   0.000033
    12  H    0.236323   0.000031
    13  H    0.211020   0.000120
    14  H    0.221978   0.000004
    15  H    0.234879  -0.000098
 Sum of Mulliken charges =  -0.00000   1.00000

 Dipole moment (field-independent basis, Debye):
    X=             -3.4606    Y=             -1.6612    Z=              0.0698  Tot=              3.8393
 Quadrupole moment (field-independent basis, Debye-Ang):
   XX=            -48.8138   YY=            -49.5753   ZZ=            -47.9927
   XY=             -6.1983   XZ=              1.0956   YZ=             -0.1487

  Exact polarizability:  99.580   4.855  66.194   3.433  -2.827  46.748
 Approx polarizability: 101.914   8.284  84.375   5.525  -5.604  49.529

 ******    3 imaginary frequencies (negative Signs) ******

                      1                      2                      3
                      A                      A                      A
 Frequencies --   -565.8473              -311.9198               -46.8798
 Red. masses --     11.9629                 1.0741                 3.8638
 Frc consts  --      2.2568                 0.0616                 0.0050
 IR Inten    --     43.6905               134.8488                 4.1584

                      4                      5                      6
                      A                      A                      A
 Frequencies --     37.6595                53.3092               158.2752
 Red. masses --      4.0762                 4.9418                 5.8152
 Frc consts  --      0.0034                 0.0083                 0.0858
 IR Inten    --      2.3937                 1.1148                 7.6839

                      7                      8                      9
                      A                      A                      A
 Frequencies --    179.5925               269.8695               296.5692
 Red. masses --      1.2516                 3.3712                 3.4987
 Frc consts  --      0.0238                 0.1447                 0.1813
 IR Inten    --      3.9036                 7.6143                20.6519

                     10                     11                     12
                      A                      A                      A
 Frequencies --    334.6093               434.3696               575.4206
 Red. masses --      3.6482                 3.6570                 4.5326
 Frc consts  --      0.2407                 0.4065                 0.8842
 IR Inten    --     17.9824                 4.9459                 6.5704

                     13                     14                     15
                      A                      A                      A
 Frequencies --    619.8075               747.0078               814.8217
 Red. masses --      8.1060                11.3665                 1.2848
 Frc consts  --      1.8347                 3.7370                 0.5026
 IR Inten    --     10.6382                27.2855                 4.7006

                     16                     17                     18
                      A                      A                      A
 Frequencies --    831.9713               893.8707               939.0126
 Red. masses --      1.3732                 3.1745                 2.3609
 Frc consts  --      0.5600                 1.4944                 1.2265
 IR Inten    --     41.6505                10.8634                15.1182

                     19                     20                     21
                      A                      A                      A
 Frequencies --    972.5403              1102.9584              1145.3908
 Red. masses --      1.1639                 2.9926                 1.3195
 Frc consts  --      0.6486                 2.1449                 1.0199
 IR Inten    --     79.8888                 9.6117                15.4186

                     22                     23                     24
                      A                      A                      A
 Frequencies --   1158.6777              1228.7069              1333.1840
 Red. masses --      1.8938                 1.7477                 1.6899
 Frc consts  --      1.4980                 1.5546                 1.7697
 IR Inten    --     38.4187                 3.0773               278.3750

                     25                     26                     27
                      A                      A                      A
 Frequencies --   1376.1410              1444.1766              1457.6502
 Red. masses --      1.9577                 1.4015                 1.2638
 Frc consts  --      2.1844                 1.7222                 1.5821
 IR Inten    --    390.6576                52.2759                16.7439

                     28                     29                     30
                      A                      A                      A
 Frequencies --   1528.6774              1537.7740              1545.7436
 Red. masses --      1.0421                 1.0695                 1.0748
 Frc consts  --      1.4348                 1.4900                 1.5130
 IR Inten    --     14.0250                 4.8766                23.4205

                     31                     32                     33
                      A                      A                      A
 Frequencies --   1860.2086              1931.6812              3108.5313
 Red. masses --     10.5224                 8.5803                 1.0351
 Frc consts  --     21.4531                18.8636                 5.8933
 IR Inten    --    185.3966               186.5573                11.9745

                     34                     35                     36
                      A                      A                      A
 Frequencies --   3139.3678              3188.8417              3192.2666
 Red. masses --      1.0602                 1.1004                 1.1025
 Frc consts  --      6.1566                 6.5929                 6.6195
 IR Inten    --     18.4670                12.7351                 5.3864

                     37                     38                     39
                      A                      A                      A
 Frequencies --   3213.2404              3356.6831              3823.1626
 Red. masses --      1.1054                 1.1152                 1.0678
 Frc consts  --      6.7246                 7.4031                 9.1958
 IR Inten    --     16.8389                15.9295                28.7711

 - Thermochemistry -
 -------------------
 Temperature   298.150 Kelvin.  Pressure   1.00000 Atm.
 Atom     1 has atomic number  8 and mass  15.99491

 Molecular mass:   115.03952 amu.
 Principal axes and moments of inertia in atomic units:
                           1         2         3
     Eigenvalues --   313.739821896.434722057.07161
           X            0.99993  -0.00981  -0.00584
           Y            0.00991   0.99981   0.01657
           Z            0.00568  -0.01663   0.99985
 This molecule is an asymmetric top.
 Rotational symmetry number  1.
 Rotational temperatures (Kelvin)      0.27607     0.04567     0.04211
 Rotational constants (GHZ):           5.75235     0.95165     0.87734
    3 imaginary frequencies ignored.
 Zero-point vibrational energy     298060.2 (Joules/Mol)
                                   71.23809 (Kcal/Mol)
 Warning -- explicit consideration of  10 degrees of freedom as
           vibrations may cause significant error
 Vibrational temperatures:     54.18    76.70   227.72   258.39   388.28
          (Kelvin)            426.70   481.43   624.96   827.90   891.76
                             1074.78  1172.35  1197.02  1286.08  1351.03
                             1399.27  1586.91  1647.96  1667.08  1767.84
                             1918.15  1979.96  2077.85  2097.23  2199.43
                             2212.51  2223.98  2676.43  2779.26  4472.48
                             4516.85  4588.03  4592.96  4623.14  4829.52
                             5500.68

 Zero-point correction=                           0.113525 (Hartree/Particle)
 Thermal correction to Energy=                    0.121639
 Thermal correction to Enthalpy=                  0.122583
 Thermal correction to Gibbs Free Energy=         0.078675
 Sum of electronic and zero-point Energies=           -419.861981
 Sum of electronic and thermal Energies=              -419.853868
 Sum of electronic and thermal Enthalpies=            -419.852924
 Sum of electronic and thermal Free Energies=         -419.896832

                     E (Thermal)             CV                S
                      KCal/Mol        Cal/Mol-Kelvin    Cal/Mol-Kelvin
 Total                   76.329             27.099             92.413
 Electronic               0.000              0.000              1.377
 Translational            0.889              2.981             40.136
 Rotational               0.889              2.981             28.594
 Vibrational             74.552             21.137             22.305
 Vibration     1          0.594              1.982              5.379
 Vibration     2          0.596              1.976              4.691
 Vibration     3          0.621              1.893              2.570
 Vibration     4          0.629              1.867              2.333
 Vibration     5          0.674              1.729              1.597
 Vibration     6          0.690              1.680              1.436
 Vibration     7          0.716              1.606              1.238
 Vibration     8          0.795              1.395              0.844
 Vibration     9          0.932              1.084              0.494
 Vibration    10          0.980              0.990              0.417

 Normal termination of Gaussian 16 at Fri Jun 20 13:18:29 2025.
