 Gaussian 16, Revision A.03,
 Gaussian 16:  ES64L-G16RevA.03 25-Dec-2016

 -------------------
 # freq 6-31+g m062x
 -------------------

 -------------------
 Title Card Required
 -------------------
 Symbolic Z-matrix:
 Charge =  0 Multiplicity = 2

                         Standard orientation:
 ---------------------------------------------------------------------
 Center     Atomic      Atomic             Coordinates (Angstroms)
 Number     Number       Type             X           Y           Z
 ---------------------------------------------------------------------
      1          8           0        3.327241    0.759727    0.107333
      2          1           0        2.580545    1.347611   -0.092860
      3          6           0        2.436220   -0.922407    0.269547
      4          1           0        3.307454   -1.506498    0.484210
      5          6           0        1.230286   -0.749598    0.078499
      6          6           0       -0.011069   -0.045814   -0.206153
      7          8           0       -0.039904    1.139979   -0.408188
      8          8           0       -1.057865   -0.860157   -0.216906
      9          6           0       -2.340924   -0.248299   -0.476657
     10          6           0       -2.887230    0.417163    0.770580
     11          1           0       -2.966260   -1.078320   -0.799432
     12          1           0       -2.226855    0.463204   -1.295076
     13          1           0       -3.887805    0.803612    0.567916
     14          1           0       -2.953914   -0.302104    1.588054
     15          1           0       -2.252652    1.249825    1.074389
 ---------------------------------------------------------------------

 SCF Done:  E(UM062X) =  -419.959880471     A.U. after   21 cycles

 The electronic state is 2-A.
 Alpha  occ. eigenvalues --  -19.72156 -19.68022 -19.66913 -10.74507 -10.63211
 Alpha  occ. eigenvalues --  -10.62691 -10.61009 -10.55528  -1.29631  -1.20306
 Alpha  occ. eigenvalues --   -1.11445  -0.93175  -0.89451  -0.79992  -0.72909
 Alpha  occ. eigenvalues --   -0.66125  -0.62749  -0.60044  -0.58436  -0.55185
 Alpha  occ. eigenvalues --   -0.52157  -0.50861  -0.49072  -0.48097  -0.46357
 Alpha  occ. eigenvalues --   -0.43265  -0.41701  -0.40697  -0.39710  -0.36849
 Alpha  occ. eigenvalues --   -0.32693
 Alpha virt. eigenvalues --   -0.03135   0.01471   0.02812   0.03039   0.03436
 Alpha virt. eigenvalues --    0.04421   0.05296   0.06214   0.07063   0.07715
 Alpha virt. eigenvalues --    0.08062   0.08594   0.09168   0.10354   0.11758

  Beta  occ. eigenvalues --  -19.72136 -19.67934 -19.65729 -10.74548 -10.63354
  Beta  occ. eigenvalues --  -10.62688 -10.60572 -10.55528  -1.29520  -1.20122
  Beta  occ. eigenvalues --   -1.07181  -0.92106  -0.88945  -0.79821  -0.72552
  Beta  occ. eigenvalues --   -0.66034  -0.62369  -0.59827  -0.58175  -0.55047
  Beta  occ. eigenvalues --   -0.50674  -0.49908  -0.48030  -0.46395  -0.43163
  Beta  occ. eigenvalues --   -0.41624  -0.40549  -0.39697  -0.38665  -0.34733
  Beta virt. eigenvalues --   -0.10001  -0.03143   0.01392   0.02736   0.03025
  Beta virt. eigenvalues --    0.03908   0.04491   0.06051   0.06270   0.07324
  Beta virt. eigenvalues --    0.07617   0.08110   0.08764   0.09517   0.10435

 Mulliken charges and spin densities:
               1          2
     1  O   -0.516643   0.630940
     2  H    0.410327  -0.021757
     3  C   -0.245533  -0.268770
     4  H    0.284412   0.027298
     5  C   -0.022215   0.612285
     6  C    0.370373  -0.006974
     7  O   -0.406860   0.020354
     8  O   -0.217566   0.005779
     9  C   -0.222572  -0.001056
    10  C   -0.564393   0.001787
    11  H    0.224802   0.000045
    12  H    0.236897  -0.000002
    13  H    0.211433   0.000106
    14  H    0.222362   0.000011
    15  H    0.235179  -0.000047
 Sum of Mulliken charges =  -0.00000   1.00000

 Dipole moment (field-independent basis, Debye):
    X=             -3.4382    Y=             -1.5649    Z=              0.0494  Tot=              3.7779
 Quadrupole moment (field-independent basis, Debye-Ang):
   XX=            -47.7386   YY=            -49.3872   ZZ=            -47.9397
   XY=             -6.0106   XZ=              1.1401   YZ=             -0.1765

  Exact polarizability: 103.841   8.483  69.510   3.383  -2.810  46.605
 Approx polarizability: 105.904   8.176  84.462   6.166  -5.433  49.143

 ******    4 imaginary frequencies (negative Signs) ******

                      1                      2                      3
                      A                      A                      A
 Frequencies --   -814.1873              -372.0881               -72.8008
 Red. masses --     10.8792                 1.0784                 5.8148
 Frc consts  --      4.2491                 0.0880                 0.0182
 IR Inten    --     55.3233               144.6512                 0.4943

                      4                      5                      6
                      A                      A                      A
 Frequencies --    -51.0520                37.4775               106.4655
 Red. masses --      5.1404                 3.1087                 4.4454
 Frc consts  --      0.0079                 0.0026                 0.0297
 IR Inten    --      3.3148                 1.0001                 9.9046

                      7                      8                      9
                      A                      A                      A
 Frequencies --    178.1579               236.3101               248.4816
 Red. masses --      1.2924                 4.2433                 3.6161
 Frc consts  --      0.0242                 0.1396                 0.1315
 IR Inten    --      3.8808                 6.8631                 5.1991

                     10                     11                     12
                      A                      A                      A
 Frequencies --    316.0486               422.0600               557.8880
 Red. masses --      3.1760                 3.8618                 4.5958
 Frc consts  --      0.1869                 0.4053                 0.8428
 IR Inten    --     20.4349                 3.0876                 9.9688

                     13                     14                     15
                      A                      A                      A
 Frequencies --    617.8061               753.7131               790.1871
 Red. masses --      8.1665                10.6807                 1.1715
 Frc consts  --      1.8365                 3.5749                 0.4310
 IR Inten    --      8.7005                35.3888               192.8289

                     16                     17                     18
                      A                      A                      A
 Frequencies --    802.0307               817.3702               896.8008
 Red. masses --      1.3365                 1.2361                 3.1983
 Frc consts  --      0.5065                 0.4866                 1.5155
 IR Inten    --     39.0451                28.8263                13.4435

                     19                     20                     21
                      A                      A                      A
 Frequencies --    924.6317               952.6490              1109.7040
 Red. masses --      1.2093                 2.0576                 4.2206
 Frc consts  --      0.6092                 1.1002                 3.0623
 IR Inten    --      2.5325                 1.6321                 9.9802

                     22                     23                     24
                      A                      A                      A
 Frequencies --   1156.7221              1228.7527              1334.6807
 Red. masses --      2.0522                 1.7502                 1.6009
 Frc consts  --      1.6178                 1.5570                 1.6802
 IR Inten    --     21.7344                 2.3546               284.1762

                     25                     26                     27
                      A                      A                      A
 Frequencies --   1378.7935              1445.3868              1457.9257
 Red. masses --      2.0534                 1.4243                 1.2701
 Frc consts  --      2.3000                 1.7531                 1.5906
 IR Inten    --    451.2665                71.6790                17.0080

                     28                     29                     30
                      A                      A                      A
 Frequencies --   1528.6714              1537.8646              1545.8065
 Red. masses --      1.0421                 1.0700                 1.0755
 Frc consts  --      1.4348                 1.4910                 1.5142
 IR Inten    --     13.9155                 5.6826                24.8730

                     31                     32                     33
                      A                      A                      A
 Frequencies --   1877.0722              2068.6404              3108.6651
 Red. masses --     11.8492                 6.6914                 1.0351
 Frc consts  --     24.5981                16.8708                 5.8938
 IR Inten    --    185.1631               126.6559                11.8803

                     34                     35                     36
                      A                      A                      A
 Frequencies --   3140.1778              3189.1632              3192.6584
 Red. masses --      1.0602                 1.1002                 1.1027
 Frc consts  --      6.1597                 6.5931                 6.6221
 IR Inten    --     18.4486                13.4639                 4.5243

                     37                     38                     39
                      A                      A                      A
 Frequencies --   3213.7695              3446.2468              3801.4895
 Red. masses --      1.1055                 1.1375                 1.0680
 Frc consts  --      6.7275                 7.9598                 9.0931
 IR Inten    --     16.6287                48.4805                23.3901

 - Thermochemistry -
 -------------------
 Temperature   298.150 Kelvin.  Pressure   1.00000 Atm.
 Atom     1 has atomic number  8 and mass  15.99491

 Molecular mass:   115.03952 amu.
 Principal axes and moments of inertia in atomic units:
                           1         2         3
     Eigenvalues --   324.654021899.263702070.56704
           X            0.99993  -0.00989  -0.00584
           Y            0.00998   0.99983   0.01581
           Z            0.00569  -0.01586   0.99986
 This molecule is an asymmetric top.
 Rotational symmetry number  1.
 Rotational temperatures (Kelvin)      0.26679     0.04560     0.04183
 Rotational constants (GHZ):           5.55897     0.95023     0.87162
    4 imaginary frequencies ignored.
 Zero-point vibrational energy     295598.9 (Joules/Mol)
                                   70.64982 (Kcal/Mol)
 Warning -- explicit consideration of   9 degrees of freedom as
           vibrations may cause significant error
 Vibrational temperatures:     53.92   153.18   256.33   340.00   357.51
          (Kelvin)            454.72   607.25   802.68   888.89  1084.42
                             1136.90  1153.94  1176.01  1290.30  1330.34
                             1370.65  1596.62  1664.27  1767.90  1920.31
                             1983.78  2079.59  2097.63  2199.42  2212.64
                             2224.07  2700.69  2976.31  4472.68  4518.02
                             4588.49  4593.52  4623.90  4958.38  5469.50

 Zero-point correction=                           0.112588 (Hartree/Particle)
 Thermal correction to Energy=                    0.120195
 Thermal correction to Enthalpy=                  0.121139
 Thermal correction to Gibbs Free Energy=         0.078639
 Sum of electronic and zero-point Energies=           -419.847293
 Sum of electronic and thermal Energies=              -419.839686
 Sum of electronic and thermal Enthalpies=            -419.838742
 Sum of electronic and thermal Free Energies=         -419.881242

                     E (Thermal)             CV                S
                      KCal/Mol        Cal/Mol-Kelvin    Cal/Mol-Kelvin
 Total                   75.423             25.902             89.449
 Electronic               0.000              0.000              1.377
 Translational            0.889              2.981             40.136
 Rotational               0.889              2.981             28.636
 Vibrational             73.646             19.940             19.300
 Vibration     1          0.594              1.982              5.388
 Vibration     2          0.605              1.944              3.332
 Vibration     3          0.629              1.869              2.348
 Vibration     4          0.655              1.785              1.830
 Vibration     5          0.662              1.765              1.741
 Vibration     6          0.703              1.643              1.330
 Vibration     7          0.784              1.422              0.885
 Vibration     8          0.913              1.122              0.528
 Vibration     9          0.978              0.994              0.420

 Normal termination of Gaussian 16 at Fri Jun 20 13:16:56 2025.
