 Gaussian 16, Revision A.03,
 Gaussian 16:  ES64L-G16RevA.03 25-Dec-2016

 --------------------------
 # ccsd(t)/6-311++g(d,p) sp
 --------------------------

 -------------------
 Title Card Required
 -------------------
 Symbolic Z-matrix:
 Charge =  0 Multiplicity = 2

                         Standard orientation:
 ---------------------------------------------------------------------
 Center     Atomic      Atomic             Coordinates (Angstroms)
 Number     Number       Type             X           Y           Z
 ---------------------------------------------------------------------
      1          8           0        3.338796    0.778016    0.107551
      2          1           0        2.585520    1.359427   -0.090815
      3          6           0        2.417424   -0.964514    0.270984
      4          1           0        3.317872   -1.499549    0.479872
      5          6           0        1.231541   -0.746758    0.075995
      6          6           0       -0.011351   -0.045491   -0.206268
      7          8           0       -0.038989    1.141062   -0.404897
      8          8           0       -1.059042   -0.858425   -0.219499
      9          6           0       -2.341192   -0.244156   -0.477576
     10          6           0       -2.886904    0.418390    0.771510
     11          1           0       -2.967614   -1.072422   -0.802796
     12          1           0       -2.226206    0.469627   -1.293880
     13          1           0       -3.886978    0.806687    0.569852
     14          1           0       -2.954552   -0.303155    1.586893
     15          1           0       -2.251261    1.249336    1.077764
 ---------------------------------------------------------------------

 SCF Done:  E(UHF) =  -417.983255868     A.U. after   33 cycles
 E2 =    -0.1251231642D+01 EUMP2 =    -0.41923448751021D+03
 CCSD(T)= -0.41935521509D+03

 The electronic state is 2-A.
 Alpha  occ. eigenvalues --  -20.62270 -20.61130 -20.57239 -11.42094 -11.30451
 Alpha  occ. eigenvalues --  -11.27306 -11.26829 -11.23193  -1.49332  -1.39489
 Alpha  occ. eigenvalues --   -1.36759  -1.09572  -1.04711  -0.92724  -0.84472
 Alpha  occ. eigenvalues --   -0.77503  -0.73388  -0.70951  -0.67582  -0.65142
 Alpha  occ. eigenvalues --   -0.64197  -0.63628  -0.59429  -0.56342  -0.54847
 Alpha  occ. eigenvalues --   -0.54068  -0.51571  -0.50165  -0.48145  -0.43272
 Alpha  occ. eigenvalues --   -0.42022
 Alpha virt. eigenvalues --    0.03879   0.04762   0.05602   0.06287   0.07159
 Alpha virt. eigenvalues --    0.08483   0.08975   0.09384   0.11036   0.12287
 Alpha virt. eigenvalues --    0.12715   0.13696   0.14512   0.15021   0.16682

  Beta  occ. eigenvalues --  -20.62252 -20.57457 -20.56726 -11.42466 -11.30447
  Beta  occ. eigenvalues --  -11.29279 -11.24518 -11.23191  -1.49053  -1.38615
  Beta  occ. eigenvalues --   -1.23674  -1.07352  -1.04711  -0.93321  -0.84381
  Beta  occ. eigenvalues --   -0.77351  -0.73154  -0.70252  -0.67109  -0.63788
  Beta  occ. eigenvalues --   -0.61800  -0.58942  -0.55399  -0.54714  -0.51272
  Beta  occ. eigenvalues --   -0.50624  -0.48723  -0.46941  -0.44568  -0.42469
  Beta virt. eigenvalues --    0.03879   0.04710   0.05599   0.05732   0.06883
  Beta virt. eigenvalues --    0.07456   0.08526   0.09063   0.09908   0.11906
  Beta virt. eigenvalues --    0.12846   0.13088   0.13697   0.14415   0.14669

 Mulliken charges and spin densities:
               1          2
     1  O   -0.237402   0.876400
     2  H    0.271181  -0.032887
     3  C   -1.979918  -0.901741
     4  H    0.206648   0.079753
     5  C    2.195906   1.075067
     6  C   -0.357384  -0.194830
     7  O   -0.333609   0.094400
     8  O   -0.055196   0.003046
     9  C   -0.158641  -0.002883
    10  C   -0.358924   0.003111
    11  H    0.170805   0.000406
    12  H    0.182598   0.000061
    13  H    0.134897   0.000226
    14  H    0.146523  -0.000101
    15  H    0.172515  -0.000027
 Sum of Mulliken charges =  -0.00000   1.00000

 Dipole moment (field-independent basis, Debye):
    X=             -2.3846    Y=             -1.1842    Z=              0.0845  Tot=              2.6638
 Quadrupole moment (field-independent basis, Debye-Ang):
   XX=            -43.4611   YY=            -48.8259   ZZ=            -47.6680
   XY=             -3.8261   XZ=              1.2874   YZ=             -0.0687

 02\PMP3-0=-419.2824343\MP4SDQ=-419.2929457\CCSD=-419.3009205\CCSD(T)=-
 Normal termination of Gaussian 16 at Fri Jul 18 16:45:24 2025.
