 Gaussian 16, Revision A.03,
 Gaussian 16:  ES64L-G16RevA.03 25-Dec-2016

 --------------------------
 # freq 6-311++g(d,p) m062x
 --------------------------

 -------------------
 Title Card Required
 -------------------
 Symbolic Z-matrix:
 Charge =  0 Multiplicity = 2

                         Standard orientation:
 ---------------------------------------------------------------------
 Center     Atomic      Atomic             Coordinates (Angstroms)
 Number     Number       Type             X           Y           Z
 ---------------------------------------------------------------------
      1          8           0        3.405662    0.881182    0.110612
      2          1           0        2.599784    1.395715   -0.076056
      3          6           0        2.332879   -1.167385    0.273246
      4          1           0        3.298348   -1.574788    0.462342
      5          6           0        1.223308   -0.757426    0.064430
      6          6           0       -0.010918   -0.040753   -0.207107
      7          8           0       -0.031465    1.149592   -0.386980
      8          8           0       -1.065438   -0.845383   -0.234127
      9          6           0       -2.342392   -0.218575   -0.482717
     10          6           0       -2.884443    0.427148    0.776811
     11          1           0       -2.974554   -1.036954   -0.821775
     12          1           0       -2.222445    0.507995   -1.286996
     13          1           0       -3.881635    0.825958    0.581392
     14          1           0       -2.957400   -0.307295    1.580149
     15          1           0       -2.242772    1.248185    1.096918
 ---------------------------------------------------------------------

 SCF Done:  E(UM062X) =  -420.210554391     A.U. after   24 cycles

 The electronic state is 2-A.
 Alpha  occ. eigenvalues --  -19.69362 -19.66486 -19.64300 -10.71691 -10.61382
 Alpha  occ. eigenvalues --  -10.58192 -10.57333 -10.54454  -1.26754  -1.17435
 Alpha  occ. eigenvalues --   -1.12130  -0.91284  -0.87878  -0.78873  -0.71428
 Alpha  occ. eigenvalues --   -0.65427  -0.61839  -0.59553  -0.57464  -0.54429
 Alpha  occ. eigenvalues --   -0.54110  -0.50203  -0.49287  -0.47548  -0.46073
 Alpha  occ. eigenvalues --   -0.42857  -0.41995  -0.40268  -0.39482  -0.37592
 Alpha  occ. eigenvalues --   -0.35476
 Alpha virt. eigenvalues --   -0.02278  -0.00428   0.00850   0.01470   0.01914
 Alpha virt. eigenvalues --    0.02695   0.03979   0.04946   0.05323   0.05877
 Alpha virt. eigenvalues --    0.06635   0.07372   0.08104   0.08904   0.10245

  Beta  occ. eigenvalues --  -19.69356 -19.64917 -19.64288 -10.71699 -10.61381
  Beta  occ. eigenvalues --  -10.58193 -10.57236 -10.54454  -1.26735  -1.17398
  Beta  occ. eigenvalues --   -1.04462  -0.91053  -0.87650  -0.78819  -0.71347
  Beta  occ. eigenvalues --   -0.65398  -0.61628  -0.59501  -0.57417  -0.54353
  Beta  occ. eigenvalues --   -0.51071  -0.50158  -0.47517  -0.46110  -0.42841
  Beta  occ. eigenvalues --   -0.40667  -0.39591  -0.39194  -0.37237  -0.36610
  Beta virt. eigenvalues --   -0.07904  -0.02241  -0.00393   0.00999   0.01473
  Beta virt. eigenvalues --    0.02063   0.02828   0.04231   0.05176   0.05715
  Beta virt. eigenvalues --    0.06007   0.06731   0.07387   0.08249   0.09098

 Mulliken charges and spin densities:
               1          2
     1  O   -0.272625   0.933707
     2  H    0.253242  -0.018273
     3  C   -2.446875   0.013115
     4  H    0.183194   0.009378
     5  C    2.401578   0.081999
     6  C   -0.164465  -0.025581
     7  O   -0.254171   0.002709
     8  O    0.042726   0.002076
     9  C   -0.259933   0.000224
    10  C   -0.402017   0.000587
    11  H    0.201194  -0.000012
    12  H    0.197652   0.000153
    13  H    0.168781  -0.000012
    14  H    0.167647  -0.000037
    15  H    0.184072  -0.000032
 Sum of Mulliken charges =  -0.00000   1.00000

 Dipole moment (field-independent basis, Debye):
    X=             -2.7001    Y=             -1.1177    Z=              0.0508  Tot=              2.9227
 Quadrupole moment (field-independent basis, Debye-Ang):
   XX=            -43.8750   YY=            -48.4160   ZZ=            -47.7671
   XY=             -4.3446   XZ=              1.1427   YZ=             -0.2050

  Exact polarizability:  96.772  -2.990  66.105   3.337  -2.183  50.525
 Approx polarizability: 100.872  -6.433  82.747   6.509  -4.861  58.222

 ******    2 imaginary frequencies (negative Signs) ******

                      1                      2                      3
                      A                      A                      A
 Frequencies --    -47.8639               -38.8935                78.1434
 Red. masses --      6.8018                 6.7371                 3.8933
 Frc consts  --      0.0092                 0.0060                 0.0140
 IR Inten    --      1.0443                 1.0139                 2.7777

                      4                      5                      6
                      A                      A                      A
 Frequencies --    116.4371               172.7266               229.0194
 Red. masses --      3.4418                 3.5501                 1.5342
 Frc consts  --      0.0275                 0.0624                 0.0474
 IR Inten    --      1.8500                 4.8670                 2.0743

                      7                      8                      9
                      A                      A                      A
 Frequencies --    250.5854               266.6993               271.3154
 Red. masses --      4.1922                 2.0188                 1.4422
 Frc consts  --      0.1551                 0.0846                 0.0626
 IR Inten    --      1.1240                56.4270                61.6429

                     10                     11                     12
                      A                      A                      A
 Frequencies --    339.4533               423.6824               559.3044
 Red. masses --      2.9552                 4.0241                 4.4305
 Frc consts  --      0.2006                 0.4256                 0.8166
 IR Inten    --     15.1755                 1.8715                 1.9712

                     13                     14                     15
                      A                      A                      A
 Frequencies --    608.1807               628.8423               765.3630
 Red. masses --      1.2209                 3.7358                 1.1885
 Frc consts  --      0.2661                 0.8704                 0.4102
 IR Inten    --    128.2547                74.1284                47.4877

                     16                     17                     18
                      A                      A                      A
 Frequencies --    780.6922               787.7753               801.6546
 Red. masses --      2.9177                 1.8101                 1.2285
 Frc consts  --      1.0477                 0.6619                 0.4652
 IR Inten    --      0.5986                59.5684                 5.2255

                     19                     20                     21
                      A                      A                      A
 Frequencies --    896.4972               932.8083              1076.3021
 Red. masses --      3.0846                 2.9423                 4.1653
 Frc consts  --      1.4607                 1.5084                 2.8430
 IR Inten    --     11.8037                 4.4151                24.6497

                     22                     23                     24
                      A                      A                      A
 Frequencies --   1128.3466              1204.3321              1306.7050
 Red. masses --      2.0777                 1.7689                 2.8104
 Frc consts  --      1.5585                 1.5116                 2.8273
 IR Inten    --     23.1218                 3.1882               558.6810

                     25                     26                     27
                      A                      A                      A
 Frequencies --   1350.9379              1403.5243              1432.4734
 Red. masses --      1.3401                 1.3084                 1.4083
 Frc consts  --      1.4410                 1.5186                 1.7027
 IR Inten    --    181.6005                49.2376                16.1341

                     28                     29                     30
                      A                      A                      A
 Frequencies --   1492.8319              1503.5301              1515.7193
 Red. masses --      1.0413                 1.0626                 1.0876
 Frc consts  --      1.3672                 1.4153                 1.4721
 IR Inten    --     10.1595                 3.1422                21.0059

                     31                     32                     33
                      A                      A                      A
 Frequencies --   1817.0207              2245.4512              3075.6735
 Red. masses --     11.8380                 5.8427                 1.0354
 Frc consts  --     23.0275                17.3570                 5.7710
 IR Inten    --    286.8535                83.9828                 9.3769

                     34                     35                     36
                      A                      A                      A
 Frequencies --   3108.9869              3151.1202              3155.7219
 Red. masses --      1.0607                 1.1014                 1.1049
 Frc consts  --      6.0408                 6.4433                 6.4830
 IR Inten    --     17.1399                14.1014                 1.5211

                     37                     38                     39
                      A                      A                      A
 Frequencies --   3176.5998              3491.3590              3753.8760
 Red. masses --      1.1076                 1.1673                 1.0676
 Frc consts  --      6.5848                 8.3836                 8.8640
 IR Inten    --     14.1049                74.2293                26.6914

 - Thermochemistry -
 -------------------
 Temperature   298.150 Kelvin.  Pressure   1.00000 Atm.
 Atom     1 has atomic number  8 and mass  15.99491

 Molecular mass:   115.03952 amu.
 Principal axes and moments of inertia in atomic units:
                           1         2         3
     Eigenvalues --   359.526921908.403942113.94736
           X            0.99992  -0.01081  -0.00591
           Y            0.01089   0.99985   0.01325
           Z            0.00577  -0.01332   0.99989
 This molecule is an asymmetric top.
 Rotational symmetry number  1.
 Rotational temperatures (Kelvin)      0.24091     0.04539     0.04097
 Rotational constants (GHZ):           5.01977     0.94568     0.85373
    2 imaginary frequencies ignored.
 Zero-point vibrational energy     294877.6 (Joules/Mol)
                                   70.47745 (Kcal/Mol)
 Warning -- explicit consideration of  11 degrees of freedom as
           vibrations may cause significant error
 Vibrational temperatures:    112.43   167.53   248.51   329.51   360.54
          (Kelvin)            383.72   390.36   488.40   609.58   804.71
                              875.04   904.76  1101.19  1123.24  1133.43
                             1153.40  1289.86  1342.10  1548.56  1623.44
                             1732.77  1880.06  1943.70  2019.36  2061.01
                             2147.85  2163.24  2180.78  2614.29  3230.70
                             4425.21  4473.14  4533.76  4540.38  4570.42
                             5023.29  5400.99

 Zero-point correction=                           0.112313 (Hartree/Particle)
 Thermal correction to Energy=                    0.120850
 Thermal correction to Enthalpy=                  0.121794
 Thermal correction to Gibbs Free Energy=         0.078325
 Sum of electronic and zero-point Energies=           -420.098241
 Sum of electronic and thermal Energies=              -420.089705
 Sum of electronic and thermal Enthalpies=            -420.088760
 Sum of electronic and thermal Free Energies=         -420.132229

                     E (Thermal)             CV                S
                      KCal/Mol        Cal/Mol-Kelvin    Cal/Mol-Kelvin
 Total                   75.834             30.029             91.487
 Electronic               0.000              0.000              1.377
 Translational            0.889              2.981             40.136
 Rotational               0.889              2.981             28.763
 Vibrational             74.057             24.067             21.211
 Vibration     1          0.599              1.964              3.937
 Vibration     2          0.608              1.936              3.159
 Vibration     3          0.626              1.876              2.406
 Vibration     4          0.652              1.797              1.887
 Vibration     5          0.663              1.762              1.726
 Vibration     6          0.672              1.734              1.618
 Vibration     7          0.675              1.726              1.588
 Vibration     8          0.719              1.597              1.215
 Vibration     9          0.786              1.419              0.880
 Vibration    10          0.915              1.119              0.525
 Vibration    11          0.967              1.014              0.436

 1\1\GINC-AJ\Freq\UM062X\6-311++G(d,p)\C5H7O3(2)\AAYUSH\16-Aug-2025\0\\
 # freq 6-311++g(d,p) m062x\\Title Card Required\\0,2\O,3.327488,0.9143
 91,0.108989\H,2.51809,1.420738,-0.084698\C,2.26855,-1.138735,0.302033\
 H,3.236818,-1.536861,0.496497\C,1.156156,-0.739305,0.087893\C,-0.08297
 6,-0.03495,-0.193355\O,-0.111593,1.152485,-0.390527\O,-1.132086,-0.846
 938,-0.208066\C,-2.413332,-0.232388,-0.465037\C,-2.959119,0.42796,0.78
 5261\H,-3.040147,-1.059836,-0.79179\H,-2.298636,0.48318,-1.279876\H,-3
 .959055,0.81719,0.584616\H,-3.026774,-0.295179,1.599247\H,-2.322822,1.

 Normal termination of Gaussian 16 at Sat Aug 16 17:47:51 2025.
