 Gaussian 16, Revision A.03,
 Gaussian 16:  ES64L-G16RevA.03 25-Dec-2016

 --------------------------
 # freq 6-311++g(d,p) m062x
 --------------------------

 -------------------
 Title Card Required
 -------------------
 Symbolic Z-matrix:
 Charge =  0 Multiplicity = 2

                         Standard orientation:
 ---------------------------------------------------------------------
 Center     Atomic      Atomic             Coordinates (Angstroms)
 Number     Number       Type             X           Y           Z
 ---------------------------------------------------------------------
      1          8           0        3.370993    0.827005    0.108697
      2          1           0        2.593641    1.380419   -0.083754
      3          6           0        2.373389   -1.068856    0.273305
      4          1           0        3.324634   -1.506694    0.469133
      5          6           0        1.229681   -0.746658    0.069895
      6          6           0       -0.011385   -0.043579   -0.206653
      7          8           0       -0.036409    1.144992   -0.396339
      8          8           0       -1.062129   -0.852905   -0.226454
      9          6           0       -2.341693   -0.232474   -0.479985
     10          6           0       -2.885793    0.422161    0.774064
     11          1           0       -2.971066   -1.055899   -0.811876
     12          1           0       -2.224327    0.487537   -1.290491
     13          1           0       -3.884474    0.815552    0.575290
     14          1           0       -2.956052   -0.305559    1.583734
     15          1           0       -2.247188    1.248338    1.086973
 ---------------------------------------------------------------------

 SCF Done:  E(UM062X) =  -420.207249191     A.U. after   24 cycles

 The electronic state is 2-A.
 Alpha  occ. eigenvalues --  -19.69426 -19.65834 -19.64344 -10.71734 -10.61426
 Alpha  occ. eigenvalues --  -10.58759 -10.57630 -10.54486  -1.26818  -1.17507
 Alpha  occ. eigenvalues --   -1.11718  -0.91452  -0.88069  -0.78953  -0.71561
 Alpha  occ. eigenvalues --   -0.65530  -0.62068  -0.59612  -0.57536  -0.54421
 Alpha  occ. eigenvalues --   -0.53556  -0.50274  -0.49347  -0.47605  -0.46092
 Alpha  occ. eigenvalues --   -0.42908  -0.41832  -0.40292  -0.39527  -0.37434
 Alpha  occ. eigenvalues --   -0.34577
 Alpha virt. eigenvalues --   -0.02339  -0.00438   0.00852   0.01452   0.01915
 Alpha virt. eigenvalues --    0.02624   0.03972   0.05059   0.05344   0.06040
 Alpha virt. eigenvalues --    0.06613   0.07353   0.08076   0.08874   0.10125

  Beta  occ. eigenvalues --  -19.69417 -19.64322 -19.64318 -10.71748 -10.61425
  Beta  occ. eigenvalues --  -10.58787 -10.57467 -10.54486  -1.26780  -1.17434
  Beta  occ. eigenvalues --   -1.04706  -0.91058  -0.87728  -0.78873  -0.71423
  Beta  occ. eigenvalues --   -0.65478  -0.61753  -0.59517  -0.57450  -0.54353
  Beta  occ. eigenvalues --   -0.50693  -0.50191  -0.47551  -0.46133  -0.42882
  Beta  occ. eigenvalues --   -0.40838  -0.39721  -0.39392  -0.37394  -0.36049
  Beta virt. eigenvalues --   -0.08283  -0.02298  -0.00408   0.01031   0.01451
  Beta virt. eigenvalues --    0.02060   0.02790   0.04240   0.05222   0.05766
  Beta virt. eigenvalues --    0.06484   0.06701   0.07382   0.08279   0.09044

 Mulliken charges and spin densities:
               1          2
     1  O   -0.278027   0.875700
     2  H    0.255003  -0.017222
     3  C   -2.184066  -0.009596
     4  H    0.191575   0.015377
     5  C    2.155906   0.154479
     6  C   -0.174282  -0.029025
     7  O   -0.257430   0.006990
     8  O    0.036407   0.002476
     9  C   -0.262369  -0.000249
    10  C   -0.402488   0.000908
    11  H    0.200826   0.000020
    12  H    0.198713   0.000214
    13  H    0.168027   0.000024
    14  H    0.168009  -0.000034
    15  H    0.184196  -0.000064
 Sum of Mulliken charges =  -0.00000   1.00000

 Dipole moment (field-independent basis, Debye):
    X=             -2.7704    Y=             -1.2077    Z=              0.0666  Tot=              3.0229
 Quadrupole moment (field-independent basis, Debye-Ang):
   XX=            -44.0211   YY=            -48.5146   ZZ=            -47.7402
   XY=             -4.4338   XZ=              1.1843   YZ=             -0.1730

  Exact polarizability: 101.423   1.506  68.230   3.212  -2.142  50.543
 Approx polarizability: 104.751  -1.995  83.892   6.380  -4.639  58.362

 ******    3 imaginary frequencies (negative Signs) ******

                      1                      2                      3
                      A                      A                      A
 Frequencies --   -135.3052               -58.1427               -23.1690
 Red. masses --     12.1966                 6.3178                 6.8759
 Frc consts  --      0.1316                 0.0126                 0.0022
 IR Inten    --     11.0972                 1.2802                 1.8127

                      4                      5                      6
                      A                      A                      A
 Frequencies --     77.3673               117.3331               189.1474
 Red. masses --      3.9492                 3.3215                 2.6616
 Frc consts  --      0.0139                 0.0269                 0.0561
 IR Inten    --      2.9233                 1.5592                 5.1341

                      7                      8                      9
                      A                      A                      A
 Frequencies --    236.5157               266.7608               283.2537
 Red. masses --      1.5207                 4.0789                 1.0571
 Frc consts  --      0.0501                 0.1710                 0.0500
 IR Inten    --      2.8224                 2.9788               112.3403

                     10                     11                     12
                      A                      A                      A
 Frequencies --    340.0226               424.1108               556.7482
 Red. masses --      2.9932                 4.0769                 4.5307
 Frc consts  --      0.2039                 0.4321                 0.8274
 IR Inten    --     14.7865                 1.6101                 4.7913

                     13                     14                     15
                      A                      A                      A
 Frequencies --    626.8585               705.1679               778.4017
 Red. masses --      7.8479                 1.0616                 3.1375
 Frc consts  --      1.8169                 0.3110                 1.1201
 IR Inten    --      8.8014               181.2939                 0.6455

                     16                     17                     18
                      A                      A                      A
 Frequencies --    786.0250               788.1529               801.6096
 Red. masses --      1.5925                 1.1829                 1.2186
 Frc consts  --      0.5797                 0.4329                 0.4614
 IR Inten    --     61.3669                53.9490                 5.2158

                     19                     20                     21
                      A                      A                      A
 Frequencies --    896.0491               932.6613              1075.4669
 Red. masses --      3.0595                 2.9638                 4.1544
 Frc consts  --      1.4473                 1.5190                 2.8311
 IR Inten    --     11.4324                 4.0799                24.8275

                     22                     23                     24
                      A                      A                      A
 Frequencies --   1128.1669              1204.2969              1306.5977
 Red. masses --      2.0761                 1.7691                 2.8032
 Frc consts  --      1.5569                 1.5117                 2.8196
 IR Inten    --     23.3301                 2.9582               589.8730

                     25                     26                     27
                      A                      A                      A
 Frequencies --   1350.9204              1403.5337              1432.5214
 Red. masses --      1.3410                 1.3085                 1.4081
 Frc consts  --      1.4419                 1.5187                 1.7025
 IR Inten    --    191.3830                51.6096                17.3322

                     28                     29                     30
                      A                      A                      A
 Frequencies --   1492.8714              1503.4016              1515.5666
 Red. masses --      1.0413                 1.0625                 1.0876
 Frc consts  --      1.3673                 1.4149                 1.4718
 IR Inten    --      9.8993                 3.3795                21.2273

                     31                     32                     33
                      A                      A                      A
 Frequencies --   1815.5868              2209.5121              3075.9133
 Red. masses --     11.8109                 5.9939                 1.0354
 Frc consts  --     22.9386                17.2405                 5.7719
 IR Inten    --    259.0894                85.9583                 9.3662

                     34                     35                     36
                      A                      A                      A
 Frequencies --   3109.3158              3151.3750              3156.0035
 Red. masses --      1.0608                 1.1013                 1.1049
 Frc consts  --      6.0422                 6.4442                 6.4843
 IR Inten    --     17.2045                14.1666                 1.4274

                     37                     38                     39
                      A                      A                      A
 Frequencies --   3176.9329              3480.4523              3760.4432
 Red. masses --      1.1076                 1.1616                 1.0677
 Frc consts  --      6.5863                 8.2902                 8.8958
 IR Inten    --     14.1620                75.3751                27.5147

 - Thermochemistry -
 -------------------
 Temperature   298.150 Kelvin.  Pressure   1.00000 Atm.
 Atom     1 has atomic number  8 and mass  15.99491

 Molecular mass:   115.03952 amu.
 Principal axes and moments of inertia in atomic units:
                           1         2         3
     Eigenvalues --   343.309411904.068792093.67931
           X            0.99993  -0.01013  -0.00588
           Y            0.01022   0.99984   0.01470
           Z            0.00573  -0.01476   0.99987
 This molecule is an asymmetric top.
 Rotational symmetry number  1.
 Rotational temperatures (Kelvin)      0.25229     0.04549     0.04137
 Rotational constants (GHZ):           5.25689     0.94783     0.86200
    3 imaginary frequencies ignored.
 Zero-point vibrational energy     294012.6 (Joules/Mol)
                                   70.27069 (Kcal/Mol)
 Warning -- explicit consideration of   9 degrees of freedom as
           vibrations may cause significant error
 Vibrational temperatures:    111.31   168.82   272.14   340.29   383.81
          (Kelvin)            407.54   489.22   610.20   801.04   901.91
                             1014.58  1119.95  1130.91  1133.98  1153.34
                             1289.21  1341.89  1547.36  1623.18  1732.71
                             1879.90  1943.67  2019.37  2061.08  2147.91
                             2163.06  2180.56  2612.22  3179.00  4425.55
                             4473.61  4534.13  4540.79  4570.90  5007.59
                             5410.44

 Zero-point correction=                           0.111983 (Hartree/Particle)
 Thermal correction to Energy=                    0.119932
 Thermal correction to Enthalpy=                  0.120876
 Thermal correction to Gibbs Free Energy=         0.078467
 Sum of electronic and zero-point Energies=           -420.095266
 Sum of electronic and thermal Energies=              -420.087317
 Sum of electronic and thermal Enthalpies=            -420.086373
 Sum of electronic and thermal Free Energies=         -420.128783

                     E (Thermal)             CV                S
                      KCal/Mol        Cal/Mol-Kelvin    Cal/Mol-Kelvin
 Total                   75.259             27.995             89.259
 Electronic               0.000              0.000              1.377
 Translational            0.889              2.981             40.136
 Rotational               0.889              2.981             28.705
 Vibrational             73.481             22.034             19.040
 Vibration     1          0.599              1.964              3.957
 Vibration     2          0.608              1.935              3.144
 Vibration     3          0.633              1.855              2.236
 Vibration     4          0.655              1.785              1.829
 Vibration     5          0.672              1.734              1.617
 Vibration     6          0.682              1.705              1.514
 Vibration     7          0.720              1.596              1.212
 Vibration     8          0.786              1.418              0.878
 Vibration     9          0.912              1.125              0.530

 1\1\GINC-AJ\Freq\UM062X\6-311++G(d,p)\C5H7O3(2)\AAYUSH\23-Jun-2025\0\\
 # freq 6-311++g(d,p) m062x\\Title Card Required\\0,2\O,3.370993,0.8270
 05,0.108697\H,2.593641,1.380419,-0.083754\C,2.373389,-1.068856,0.27330
 5\H,3.324634,-1.506694,0.469133\C,1.229681,-0.746658,0.069895\C,-0.011
 385,-0.043579,-0.206653\O,-0.036409,1.144992,-0.396339\O,-1.062129,-0.
 852905,-0.226454\C,-2.341693,-0.232474,-0.479985\C,-2.885793,0.422161,
 0.774064\H,-2.971066,-1.055899,-0.811876\H,-2.224327,0.487537,-1.29049
 1\H,-3.884474,0.815552,0.57529\H,-2.956052,-0.305559,1.583734\H,-2.247

 Normal termination of Gaussian 16 at Mon Jun 23 03:13:42 2025.
