 Gaussian 16, Revision A.03,
 Gaussian 16:  ES64L-G16RevA.03 25-Dec-2016

 --------------------------
 # freq 6-311++g(d,p) m062x
 --------------------------

 -------------------
 Title Card Required
 -------------------
 Symbolic Z-matrix:
 Charge =  0 Multiplicity = 2

                         Standard orientation:
 ---------------------------------------------------------------------
 Center     Atomic      Atomic             Coordinates (Angstroms)
 Number     Number       Type             X           Y           Z
 ---------------------------------------------------------------------
      1          8           0        3.321678    0.750685    0.107276
      2          1           0        2.578072    1.341371   -0.093837
      3          6           0        2.445759   -0.901434    0.268756
      4          1           0        3.300893   -1.510075    0.486228
      5          6           0        1.229244   -0.751614    0.079796
      6          6           0       -0.010747   -0.045914   -0.206083
      7          8           0       -0.040353    1.139544   -0.409833
      8          8           0       -1.057311   -0.860941   -0.215632
      9          6           0       -2.340759   -0.250273   -0.476200
     10          6           0       -2.887371    0.416657    0.770110
     11          1           0       -2.965613   -1.081132   -0.797752
     12          1           0       -2.227162    0.460109   -1.295664
     13          1           0       -3.888185    0.802221    0.566954
     14          1           0       -2.953590   -0.301469    1.588625
     15          1           0       -2.253285    1.250146    1.072686
 ---------------------------------------------------------------------

 SCF Done:  E(UM062X) =  -420.209876270     A.U. after   20 cycles

 The electronic state is 2-A.
 Alpha  occ. eigenvalues --  -19.69739 -19.64773 -19.63888 -10.72063 -10.62340
 Alpha  occ. eigenvalues --  -10.61657 -10.59477 -10.54669  -1.27185  -1.17945
 Alpha  occ. eigenvalues --   -1.09861  -0.92416  -0.88703  -0.79434  -0.72210
 Alpha  occ. eigenvalues --   -0.65937  -0.62365  -0.60003  -0.57959  -0.54653
 Alpha  occ. eigenvalues --   -0.51957  -0.50637  -0.48951  -0.47902  -0.46266
 Alpha  occ. eigenvalues --   -0.43181  -0.41580  -0.40664  -0.39857  -0.36470
 Alpha  occ. eigenvalues --   -0.32189
 Alpha virt. eigenvalues --   -0.03062  -0.00559   0.00788   0.01332   0.01850
 Alpha virt. eigenvalues --    0.02395   0.03839   0.05051   0.05420   0.06141
 Alpha virt. eigenvalues --    0.06692   0.07244   0.07932   0.08791   0.09880

  Beta  occ. eigenvalues --  -19.69717 -19.64674 -19.62886 -10.72102 -10.62483
  Beta  occ. eigenvalues --  -10.61654 -10.59011 -10.54669  -1.27069  -1.17700
  Beta  occ. eigenvalues --   -1.06127  -0.91174  -0.87993  -0.79277  -0.71840
  Beta  occ. eigenvalues --   -0.65806  -0.61914  -0.59703  -0.57692  -0.54489
  Beta  occ. eigenvalues --   -0.50409  -0.49988  -0.47772  -0.46303  -0.43108
  Beta  occ. eigenvalues --   -0.41811  -0.40558  -0.39844  -0.38621  -0.34505
  Beta virt. eigenvalues --   -0.09705  -0.02971  -0.00568   0.00912   0.01315
  Beta virt. eigenvalues --    0.01985   0.02690   0.04262   0.05177   0.05599
  Beta virt. eigenvalues --    0.06433   0.06949   0.07626   0.08282   0.08882

 Mulliken charges and spin densities:
               1          2
     1  O   -0.315276   0.545468
     2  H    0.247631  -0.012013
     3  C   -1.435466  -0.175710
     4  H    0.206801   0.029317
     5  C    1.563573   0.605646
     6  C   -0.292672  -0.023851
     7  O   -0.251466   0.027311
     8  O    0.028812   0.004246
     9  C   -0.267278  -0.002873
    10  C   -0.406219   0.001919
    11  H    0.200185   0.000097
    12  H    0.200825   0.000435
    13  H    0.167002   0.000196
    14  H    0.169009   0.000028
    15  H    0.184537  -0.000215
 Sum of Mulliken charges =  -0.00000   1.00000

 Dipole moment (field-independent basis, Debye):
    X=             -3.3683    Y=             -1.8202    Z=              0.1090  Tot=              3.8302
 Quadrupole moment (field-independent basis, Debye-Ang):
   XX=            -46.9740   YY=            -48.4073   ZZ=            -47.7041
   XY=             -6.0710   XZ=              1.2181   YZ=             -0.2655

  Exact polarizability: 106.749   6.830  71.261   2.955  -2.255  50.575
 Approx polarizability: 110.025   7.527  90.244   5.478  -4.688  58.734

 ******    1 imaginary frequencies (negative Signs) ******

                      1                      2                      3
                      A                      A                      A
 Frequencies --   -813.1083                61.7143                98.7626
 Red. masses --     10.7309                 6.0382                 5.5888
 Frc consts  --      4.1801                 0.0135                 0.0321
 IR Inten    --     18.0632                 0.4968                 0.2504

                      4                      5                      6
                      A                      A                      A
 Frequencies --    114.1287               147.2855               214.7499
 Red. masses --      2.8370                 5.2818                 1.4227
 Frc consts  --      0.0218                 0.0675                 0.0387
 IR Inten    --      0.2462                 3.1245                 2.4421

                      7                      8                      9
                      A                      A                      A
 Frequencies --    262.5373               283.7896               316.1650
 Red. masses --      3.0734                 2.7614                 1.1884
 Frc consts  --      0.1248                 0.1310                 0.0700
 IR Inten    --      5.0835                 2.3023               108.4768

                     10                     11                     12
                      A                      A                      A
 Frequencies --    342.9547               431.9772               556.3164
 Red. masses --      3.0829                 3.8853                 4.9246
 Frc consts  --      0.2136                 0.4272                 0.8980
 IR Inten    --     16.2544                 3.2830                 4.9371

                     13                     14                     15
                      A                      A                      A
 Frequencies --    610.6311               768.1476               789.3499
 Red. masses --      7.8084                 3.3655                 1.7969
 Frc consts  --      1.7154                 1.1700                 0.6596
 IR Inten    --     11.8998                 1.0825                56.7853

                     16                     17                     18
                      A                      A                      A
 Frequencies --    800.3837               881.0882               893.4307
 Red. masses --      1.2322                 1.2071                 2.5710
 Frc consts  --      0.4651                 0.5521                 1.2091
 IR Inten    --      4.3698               118.7389                23.1579

                     19                     20                     21
                      A                      A                      A
 Frequencies --    926.9166              1021.4311              1074.3023
 Red. masses --      2.6888                 1.1179                 3.8565
 Frc consts  --      1.3611                 0.6872                 2.6224
 IR Inten    --      2.2924                44.5896                31.9268

                     22                     23                     24
                      A                      A                      A
 Frequencies --   1127.7093              1203.7946              1301.0925
 Red. masses --      2.0712                 1.7664                 3.0820
 Frc consts  --      1.5519                 1.5082                 3.0740
 IR Inten    --     23.9087                 2.9143               630.0225

                     25                     26                     27
                      A                      A                      A
 Frequencies --   1349.8292              1403.1400              1431.9922
 Red. masses --      1.3028                 1.2972                 1.3936
 Frc consts  --      1.3986                 1.5048                 1.6837
 IR Inten    --    170.5684                44.1516                14.4772

                     28                     29                     30
                      A                      A                      A
 Frequencies --   1493.0426              1503.1621              1515.2056
 Red. masses --      1.0413                 1.0618                 1.0863
 Frc consts  --      1.3676                 1.4136                 1.4695
 IR Inten    --      9.7209                 3.1476                19.8364

                     31                     32                     33
                      A                      A                      A
 Frequencies --   1808.5403              1971.0571              3076.3225
 Red. masses --     11.5021                 6.9827                 1.0354
 Frc consts  --     22.1658                15.9835                 5.7734
 IR Inten    --    198.4524               136.0550                 9.0776

                     34                     35                     36
                      A                      A                      A
 Frequencies --   3109.7400              3151.9818              3156.3917
 Red. masses --      1.0609                 1.1013                 1.1049
 Frc consts  --      6.0444                 6.4468                 6.4858
 IR Inten    --     16.9193                13.8664                 1.3631

                     37                     38                     39
                      A                      A                      A
 Frequencies --   3177.5017              3383.8952              3792.5645
 Red. masses --      1.1076                 1.1294                 1.0682
 Frc consts  --      6.5888                 7.6193                 9.0524
 IR Inten    --     13.9830                41.4653                45.2296

 - Thermochemistry -
 -------------------
 Temperature   298.150 Kelvin.  Pressure   1.00000 Atm.
 Atom     1 has atomic number  8 and mass  15.99491

 Molecular mass:   115.03952 amu.
 Principal axes and moments of inertia in atomic units:
                           1         2         3
     Eigenvalues --   322.371051898.749052067.81490
           X            0.99993  -0.00989  -0.00584
           Y            0.00998   0.99982   0.01593
           Z            0.00568  -0.01599   0.99986
 This molecule is an asymmetric top.
 Rotational symmetry number  1.
 Rotational temperatures (Kelvin)      0.26868     0.04562     0.04189
 Rotational constants (GHZ):           5.59834     0.95049     0.87278
    1 imaginary frequencies ignored.
 Zero-point vibrational energy     296392.9 (Joules/Mol)
                                   70.83961 (Kcal/Mol)
 Warning -- explicit consideration of  12 degrees of freedom as
           vibrations may cause significant error
 Vibrational temperatures:     88.79   142.10   164.21   211.91   308.98
          (Kelvin)            377.73   408.31   454.89   493.44   621.52
                              800.42   878.56  1105.19  1135.70  1151.57
                             1267.69  1285.45  1333.63  1469.61  1545.68
                             1622.52  1731.99  1871.98  1942.10  2018.81
                             2060.32  2148.16  2162.72  2180.04  2602.09
                             2835.91  4426.14  4474.22  4535.00  4541.34
                             4571.72  4868.67  5456.65

 Zero-point correction=                           0.112890 (Hartree/Particle)
 Thermal correction to Energy=                    0.122024
 Thermal correction to Enthalpy=                  0.122968
 Thermal correction to Gibbs Free Energy=         0.077888
 Sum of electronic and zero-point Energies=           -420.096986
 Sum of electronic and thermal Energies=              -420.087852
 Sum of electronic and thermal Enthalpies=            -420.086908
 Sum of electronic and thermal Free Energies=         -420.131988

                     E (Thermal)             CV                S
                      KCal/Mol        Cal/Mol-Kelvin    Cal/Mol-Kelvin
 Total                   76.571             31.132             94.878
 Electronic               0.000              0.000              1.377
 Translational            0.889              2.981             40.136
 Rotational               0.889              2.981             28.628
 Vibrational             74.794             25.170             24.737
 Vibration     1          0.597              1.973              4.402
 Vibration     2          0.604              1.950              3.479
 Vibration     3          0.607              1.938              3.197
 Vibration     4          0.617              1.906              2.707
 Vibration     5          0.645              1.819              2.003
 Vibration     6          0.670              1.741              1.645
 Vibration     7          0.682              1.704              1.511
 Vibration     8          0.703              1.643              1.330
 Vibration     9          0.722              1.590              1.198
 Vibration    10          0.793              1.401              0.852
 Vibration    11          0.912              1.126              0.531
 Vibration    12          0.970              1.009              0.432

 1\1\GINC-AJ\Freq\UM062X\6-311++G(d,p)\C5H7O3(2)\AAYUSH\23-Jun-2025\0\\
 # freq 6-311++g(d,p) m062x\\Title Card Required\\0,2\O,3.321678,0.7506
 85,0.107276\H,2.578072,1.341371,-0.093837\C,2.445759,-0.901434,0.26875
 6\H,3.300893,-1.510075,0.486228\C,1.229244,-0.751614,0.079796\C,-0.010
 747,-0.045914,-0.206083\O,-0.040353,1.139544,-0.409833\O,-1.057311,-0.
 860941,-0.215632\C,-2.340759,-0.250273,-0.4762\C,-2.887371,0.416657,0.
 77011\H,-2.965613,-1.081132,-0.797752\H,-2.227162,0.460109,-1.295664\H
 ,-3.888185,0.802221,0.566954\H,-2.95359,-0.301469,1.588625\H,-2.253285

 Normal termination of Gaussian 16 at Mon Jun 23 03:09:00 2025.
