 Gaussian 16, Revision A.03,
 Gaussian 16:  ES64L-G16RevA.03 25-Dec-2016

 --------------------------
 # freq 6-311++g(d,p) m062x
 --------------------------

 -------------------
 Title Card Required
 -------------------
 Symbolic Z-matrix:
 Charge =  0 Multiplicity = 2

                         Standard orientation:
 ---------------------------------------------------------------------
 Center     Atomic      Atomic             Coordinates (Angstroms)
 Number     Number       Type             X           Y           Z
 ---------------------------------------------------------------------
      1          8           0        3.299484    0.713412    0.107372
      2          1           0        2.570168    1.317693   -0.097861
      3          6           0        2.482047   -0.817888    0.265055
      4          1           0        3.271277   -1.514864    0.492905
      5          6           0        1.225843   -0.762088    0.085815
      6          6           0       -0.008371   -0.046481   -0.205634
      7          8           0       -0.041979    1.138065   -0.416746
      8          8           0       -1.055350   -0.863729   -0.210424
      9          6           0       -2.339906   -0.257787   -0.474370
     10          6           0       -2.887892    0.415433    0.767999
     11          1           0       -2.963257   -1.091786   -0.790872
     12          1           0       -2.228331    0.448057   -1.298093
     13          1           0       -3.889592    0.797683    0.562860
     14          1           0       -2.952361   -0.297936    1.590825
     15          1           0       -2.255458    1.252032    1.065440
 ---------------------------------------------------------------------

 SCF Done:  E(UM062X) =  -420.225150370     A.U. after   19 cycles

 The electronic state is 2-A.
 Alpha  occ. eigenvalues --  -19.69529 -19.64619 -19.64113 -10.71766 -10.63878
 Alpha  occ. eigenvalues --  -10.61527 -10.59747 -10.54575  -1.26962  -1.17769
 Alpha  occ. eigenvalues --   -1.10427  -0.92359  -0.88556  -0.79342  -0.72220
 Alpha  occ. eigenvalues --   -0.65848  -0.62078  -0.59882  -0.57821  -0.54517
 Alpha  occ. eigenvalues --   -0.52564  -0.50569  -0.48981  -0.47779  -0.46161
 Alpha  occ. eigenvalues --   -0.43122  -0.42318  -0.40648  -0.39742  -0.35752
 Alpha  occ. eigenvalues --   -0.31662
 Alpha virt. eigenvalues --   -0.03248  -0.00530   0.00773   0.01362   0.01810
 Alpha virt. eigenvalues --    0.02495   0.03822   0.05137   0.05740   0.06402
 Alpha virt. eigenvalues --    0.06915   0.07559   0.08025   0.08836   0.10174

  Beta  occ. eigenvalues --  -19.69503 -19.64488 -19.63531 -10.71807 -10.64028
  Beta  occ. eigenvalues --  -10.61523 -10.59092 -10.54575  -1.26808  -1.17446
  Beta  occ. eigenvalues --   -1.08308  -0.90800  -0.87616  -0.79142  -0.71708
  Beta  occ. eigenvalues --   -0.65671  -0.61545  -0.59468  -0.57466  -0.54293
  Beta  occ. eigenvalues --   -0.51105  -0.50250  -0.47628  -0.46156  -0.43742
  Beta  occ. eigenvalues --   -0.42889  -0.41650  -0.39764  -0.38925  -0.34172
  Beta virt. eigenvalues --   -0.08812  -0.03039  -0.00566   0.00828   0.01339
  Beta virt. eigenvalues --    0.02006   0.02695   0.04235   0.05201   0.05676
  Beta virt. eigenvalues --    0.06425   0.06958   0.07911   0.08392   0.08857

 Mulliken charges and spin densities:
               1          2
     1  O   -0.315419   0.309844
     2  H    0.251380  -0.006674
     3  C   -1.084030  -0.164128
     4  H    0.210529   0.031316
     5  C    1.205465   0.809207
     6  C   -0.278969  -0.018276
     7  O   -0.254721   0.036863
     8  O    0.024476   0.003769
     9  C   -0.269024  -0.004963
    10  C   -0.408202   0.002247
    11  H    0.198952   0.000048
    12  H    0.200515   0.000646
    13  H    0.165673   0.000257
    14  H    0.169166   0.000090
    15  H    0.184207  -0.000245
 Sum of Mulliken charges =  -0.00000   1.00000

 Dipole moment (field-independent basis, Debye):
    X=             -3.2473    Y=             -1.8027    Z=              0.1262  Tot=              3.7163
 Quadrupole moment (field-independent basis, Debye-Ang):
   XX=            -47.3406   YY=            -48.4985   ZZ=            -47.7416
   XY=             -5.8942   XZ=              1.1719   YZ=             -0.2352

  Exact polarizability: 103.086   3.621  68.142   3.035  -2.213  50.659
 Approx polarizability: 106.290   6.529  88.847   5.081  -4.714  59.053

 ******    1 imaginary frequencies (negative Signs) ******

                      1                      2                      3
                      A                      A                      A
 Frequencies --   -609.3312                68.8823               108.4704
 Red. masses --     11.8329                 5.7167                 3.3806
 Frc consts  --      2.5885                 0.0160                 0.0234
 IR Inten    --     60.5593                 0.9309                 0.2304

                      4                      5                      6
                      A                      A                      A
 Frequencies --    128.0076               172.4351               217.5874
 Red. masses --      4.2872                 5.6615                 1.3254
 Frc consts  --      0.0414                 0.0992                 0.0370
 IR Inten    --      0.1632                 1.4606                 2.7868

                      7                      8                      9
                      A                      A                      A
 Frequencies --    282.6807               312.9547               345.5111
 Red. masses --      3.2574                 2.0961                 2.3312
 Frc consts  --      0.1534                 0.1210                 0.1640
 IR Inten    --      5.2845                 6.5144                39.1467

                     10                     11                     12
                      A                      A                      A
 Frequencies --    371.6768               443.7855               575.3005
 Red. masses --      1.6160                 3.6468                 4.7682
 Frc consts  --      0.1315                 0.4232                 0.9298
 IR Inten    --     84.4529                 4.8396                 4.2087

                     13                     14                     15
                      A                      A                      A
 Frequencies --    614.1576               766.4468               799.2645
 Red. masses --      7.9062                 5.4610                 1.2049
 Frc consts  --      1.7570                 1.8901                 0.4535
 IR Inten    --     13.0972                 7.5372                 5.4962

                     16                     17                     18
                      A                      A                      A
 Frequencies --    810.4176               890.9037               925.5888
 Red. masses --      1.6014                 3.0943                 2.7968
 Frc consts  --      0.6197                 1.4470                 1.4117
 IR Inten    --     48.1815                 8.6682                 0.8542

                     19                     20                     21
                      A                      A                      A
 Frequencies --    994.5160              1069.8351              1127.4138
 Red. masses --      1.1042                 3.7017                 2.0547
 Frc consts  --      0.6435                 2.4963                 1.5388
 IR Inten    --     56.9602                20.7788                18.8371

                     22                     23                     24
                      A                      A                      A
 Frequencies --   1166.4902              1204.2196              1300.0400
 Red. masses --      1.1829                 1.7473                 3.0615
 Frc consts  --      0.9484                 1.4929                 3.0486
 IR Inten    --    112.6692                 6.1940               547.9919

                     25                     26                     27
                      A                      A                      A
 Frequencies --   1348.9324              1402.5613              1431.4451
 Red. masses --      1.2825                 1.2912                 1.3871
 Frc consts  --      1.3750                 1.4966                 1.6746
 IR Inten    --    146.4586                36.6435                11.5486

                     28                     29                     30
                      A                      A                      A
 Frequencies --   1493.0271              1502.9302              1514.8819
 Red. masses --      1.0413                 1.0623                 1.0848
 Frc consts  --      1.3676                 1.4138                 1.4668
 IR Inten    --      9.8543                 2.7708                18.4231

                     31                     32                     33
                      A                      A                      A
 Frequencies --   1797.5637              1870.1745              3076.1889
 Red. masses --     10.7120                 8.3333                 1.0354
 Frc consts  --     20.3934                17.1724                 5.7728
 IR Inten    --    211.1259               198.2598                 9.2801

                     34                     35                     36
                      A                      A                      A
 Frequencies --   3108.9927              3151.7305              3155.9956
 Red. masses --      1.0609                 1.1014                 1.1049
 Frc consts  --      6.0415                 6.4460                 6.4840
 IR Inten    --     17.0738                13.9402                 1.5322

                     37                     38                     39
                      A                      A                      A
 Frequencies --   3176.9311              3314.2944              3809.4249
 Red. masses --      1.1075                 1.1136                 1.0681
 Frc consts  --      6.5858                 7.2071                 9.1327
 IR Inten    --     14.3200                16.1095                45.4644

 - Thermochemistry -
 -------------------
 Temperature   298.150 Kelvin.  Pressure   1.00000 Atm.
 Atom     1 has atomic number  8 and mass  15.99491

 Molecular mass:   115.03952 amu.
 Principal axes and moments of inertia in atomic units:
                           1         2         3
     Eigenvalues --   313.739821896.434722057.07161
           X            0.99993  -0.00981  -0.00584
           Y            0.00991   0.99981   0.01657
           Z            0.00568  -0.01663   0.99985
 This molecule is an asymmetric top.
 Rotational symmetry number  1.
 Rotational temperatures (Kelvin)      0.27607     0.04567     0.04211
 Rotational constants (GHZ):           5.75235     0.95165     0.87734
    1 imaginary frequencies ignored.
 Zero-point vibrational energy     298179.1 (Joules/Mol)
                                   71.26653 (Kcal/Mol)
 Warning -- explicit consideration of  12 degrees of freedom as
           vibrations may cause significant error
 Vibrational temperatures:     99.11   156.06   184.17   248.10   313.06
          (Kelvin)            406.71   450.27   497.11   534.76   638.51
                              827.73   883.64  1102.75  1149.96  1166.01
                             1281.81  1331.72  1430.89  1539.25  1622.10
                             1678.32  1732.60  1870.47  1940.81  2017.97
                             2059.53  2148.13  2162.38  2179.58  2586.29
                             2690.76  4425.95  4473.15  4534.64  4540.77
                             4570.90  4768.53  5480.91

 Zero-point correction=                           0.113570 (Hartree/Particle)
 Thermal correction to Energy=                    0.122408
 Thermal correction to Enthalpy=                  0.123352
 Thermal correction to Gibbs Free Energy=         0.079089
 Sum of electronic and zero-point Energies=           -420.111580
 Sum of electronic and thermal Energies=              -420.102743
 Sum of electronic and thermal Enthalpies=            -420.101799
 Sum of electronic and thermal Free Energies=         -420.146061

                     E (Thermal)             CV                S
                      KCal/Mol        Cal/Mol-Kelvin    Cal/Mol-Kelvin
 Total                   76.812             30.510             93.158
 Electronic               0.000              0.000              1.377
 Translational            0.889              2.981             40.136
 Rotational               0.889              2.981             28.594
 Vibrational             75.034             24.549             23.051
 Vibration     1          0.598              1.969              4.185
 Vibration     2          0.606              1.942              3.296
 Vibration     3          0.611              1.925              2.976
 Vibration     4          0.626              1.876              2.409
 Vibration     5          0.646              1.814              1.979
 Vibration     6          0.682              1.706              1.517
 Vibration     7          0.701              1.649              1.347
 Vibration     8          0.724              1.584              1.187
 Vibration     9          0.743              1.530              1.073
 Vibration    10          0.803              1.375              0.815
 Vibration    11          0.932              1.085              0.494
 Vibration    12          0.974              1.002              0.426

 1\1\GINC-AJ\Freq\UM062X\6-311++G(d,p)\C5H7O3(2)\AAYUSH\16-Aug-2025\0\\
 # freq 6-311++g(d,p) m062x\\Title Card Required\\0,2\O,3.230052,0.7045
 45,0.130124\H,2.503678,1.314675,-0.068119\C,2.405325,-0.824642,0.26927
 1\H,3.191166,-1.528012,0.489042\C,1.149466,-0.760765,0.09031\C,-0.0812
 42,-0.0359,-0.192975\O,-0.10917,1.151225,-0.389954\O,-1.132071,-0.8480
 7,-0.207845\C,-2.413649,-0.232952,-0.464953\C,-2.958911,0.42799,0.7851
 83\H,-3.040817,-1.060158,-0.791578\H,-2.29843,0.48213,-1.280163\H,-3.9
 58715,0.817395,0.5843\H,-3.027059,-0.294828,1.599422\H,-2.32264,1.2579

 Normal termination of Gaussian 16 at Sat Aug 16 17:09:59 2025.
