 Gaussian 16, Revision A.03,
 Gaussian 16:  ES64L-G16RevA.03 25-Dec-2016

 --------------------------
 # freq 6-311++g(d,p) m062x
 --------------------------

 -------------------
 Title Card Required
 -------------------
 Symbolic Z-matrix:
 Charge =  0 Multiplicity = 2

                         Standard orientation:
 ---------------------------------------------------------------------
 Center     Atomic      Atomic             Coordinates (Angstroms)
 Number     Number       Type             X           Y           Z
 ---------------------------------------------------------------------
      1          8           0        3.305105    0.722976    0.107302
      2          1           0        2.571807    1.323316   -0.096803
      3          6           0        2.473378   -0.838727    0.266059
      4          1           0        3.278849   -1.515544    0.491445
      5          6           0        1.226407   -0.759245    0.084173
      6          6           0       -0.009122   -0.046273   -0.205778
      7          8           0       -0.041605    1.138426   -0.414954
      8          8           0       -1.055806   -0.863075   -0.211758
      9          6           0       -2.340147   -0.255946   -0.474830
     10          6           0       -2.887763    0.415622    0.768571
     11          1           0       -2.963816   -1.089183   -0.792633
     12          1           0       -2.228043    0.451056   -1.297464
     13          1           0       -3.889251    0.798673    0.563937
     14          1           0       -2.952655   -0.298981    1.590286
     15          1           0       -2.254961    1.251465    1.067339
 ---------------------------------------------------------------------

 SCF Done:  E(UM062X) =  -420.220486663     A.U. after   19 cycles

 The electronic state is 2-A.
 Alpha  occ. eigenvalues --  -19.69613 -19.64692 -19.63936 -10.71877 -10.63612
 Alpha  occ. eigenvalues --  -10.61581 -10.59763 -10.54616  -1.27055  -1.17851
 Alpha  occ. eigenvalues --   -1.10103  -0.92441  -0.88635  -0.79401  -0.72252
 Alpha  occ. eigenvalues --   -0.65895  -0.62161  -0.59943  -0.57891  -0.54565
 Alpha  occ. eigenvalues --   -0.52319  -0.50609  -0.48924  -0.47831  -0.46205
 Alpha  occ. eigenvalues --   -0.43147  -0.42085  -0.40670  -0.39798  -0.35913
 Alpha  occ. eigenvalues --   -0.31715
 Alpha virt. eigenvalues --   -0.03245  -0.00547   0.00770   0.01345   0.01818
 Alpha virt. eigenvalues --    0.02457   0.03819   0.05116   0.05668   0.06319
 Alpha virt. eigenvalues --    0.06852   0.07428   0.07981   0.08817   0.10060

  Beta  occ. eigenvalues --  -19.69588 -19.64567 -19.63258 -10.71919 -10.63766
  Beta  occ. eigenvalues --  -10.61577 -10.59152 -10.54616  -1.26908  -1.17543
  Beta  occ. eigenvalues --   -1.07636  -0.90921  -0.87752  -0.79213  -0.71773
  Beta  occ. eigenvalues --   -0.65728  -0.61650  -0.59553  -0.57553  -0.54360
  Beta  occ. eigenvalues --   -0.50751  -0.50312  -0.47686  -0.46213  -0.43262
  Beta  occ. eigenvalues --   -0.42823  -0.41309  -0.39817  -0.38927  -0.34261
  Beta virt. eigenvalues --   -0.09080  -0.03068  -0.00578   0.00841   0.01323
  Beta virt. eigenvalues --    0.01997   0.02686   0.04248   0.05190   0.05636
  Beta virt. eigenvalues --    0.06407   0.06948   0.07851   0.08352   0.08855

 Mulliken charges and spin densities:
               1          2
     1  O   -0.319079   0.363969
     2  H    0.249789  -0.007891
     3  C   -1.159882  -0.176528
     4  H    0.210031   0.031025
     5  C    1.286520   0.772144
     6  C   -0.282889  -0.020144
     7  O   -0.253197   0.034889
     8  O    0.025545   0.004025
     9  C   -0.268643  -0.004404
    10  C   -0.407797   0.002183
    11  H    0.199327   0.000065
    12  H    0.200693   0.000587
    13  H    0.166084   0.000248
    14  H    0.169161   0.000074
    15  H    0.184337  -0.000243
 Sum of Mulliken charges =  -0.00000   1.00000

 Dipole moment (field-independent basis, Debye):
    X=             -3.3230    Y=             -1.8453    Z=              0.1230  Tot=              3.8029
 Quadrupole moment (field-independent basis, Debye-Ang):
   XX=            -47.4229   YY=            -48.4610   ZZ=            -47.7295
   XY=             -6.0553   XZ=              1.1868   YZ=             -0.2521

  Exact polarizability: 103.830   4.335  68.861   3.007  -2.227  50.631
 Approx polarizability: 107.271   7.039  89.538   5.141  -4.732  58.966

 ******    1 imaginary frequencies (negative Signs) ******

                      1                      2                      3
                      A                      A                      A
 Frequencies --   -681.4404                66.9569               107.6976
 Red. masses --     11.6622                 5.7711                 3.6047
 Frc consts  --      3.1907                 0.0152                 0.0246
 IR Inten    --     30.0157                 0.8173                 0.2431

                      4                      5                      6
                      A                      A                      A
 Frequencies --    123.8111               168.4310               217.1410
 Red. masses --      3.9937                 5.5712                 1.3351
 Frc consts  --      0.0361                 0.0931                 0.0371
 IR Inten    --      0.0874                 1.8151                 2.4966

                      7                      8                      9
                      A                      A                      A
 Frequencies --    278.7197               305.9024               341.6496
 Red. masses --      3.2683                 2.1561                 1.9647
 Frc consts  --      0.1496                 0.1189                 0.1351
 IR Inten    --      5.1019                 6.0811                56.0609

                     10                     11                     12
                      A                      A                      A
 Frequencies --    358.7260               440.6920               568.4014
 Red. masses --      1.8083                 3.7050                 4.9491
 Frc consts  --      0.1371                 0.4239                 0.9421
 IR Inten    --     67.5229                 4.6277                 4.3169

                     13                     14                     15
                      A                      A                      A
 Frequencies --    611.2471               766.1023               798.8955
 Red. masses --      7.5963                 4.7774                 1.2261
 Frc consts  --      1.6722                 1.6520                 0.4611
 IR Inten    --     12.5765                 5.2699                10.9569

                     16                     17                     18
                      A                      A                      A
 Frequencies --    804.1570               891.0655               925.8923
 Red. masses --      1.6142                 3.0930                 2.8027
 Frc consts  --      0.6150                 1.4470                 1.4156
 IR Inten    --     45.2718                 8.7351                 1.3929

                     19                     20                     21
                      A                      A                      A
 Frequencies --    964.9901              1069.3555              1127.1127
 Red. masses --      1.1033                 3.5241                 1.9690
 Frc consts  --      0.6053                 2.3743                 1.4738
 IR Inten    --     70.8255                19.7451                11.3705

                     22                     23                     24
                      A                      A                      A
 Frequencies --   1136.8257              1203.8198              1299.8253
 Red. masses --      1.2049                 1.7620                 3.1249
 Frc consts  --      0.9174                 1.5044                 3.1106
 IR Inten    --    100.7959                 3.5520               577.2267

                     25                     26                     27
                      A                      A                      A
 Frequencies --   1349.1674              1402.7296              1431.5922
 Red. masses --      1.2869                 1.2926                 1.3884
 Frc consts  --      1.3802                 1.4985                 1.6765
 IR Inten    --    151.9736                38.3320                12.1900

                     28                     29                     30
                      A                      A                      A
 Frequencies --   1493.0414              1502.9982              1514.9739
 Red. masses --      1.0413                 1.0621                 1.0852
 Frc consts  --      1.3677                 1.4136                 1.4675
 IR Inten    --      9.8206                 2.8463                18.7503

                     31                     32                     33
                      A                      A                      A
 Frequencies --   1801.5670              1890.7576              3076.2495
 Red. masses --     11.0140                 7.8852                 1.0354
 Frc consts  --     21.0619                16.6088                 5.7731
 IR Inten    --    205.5316               180.2966                 9.1912

                     34                     35                     36
                      A                      A                      A
 Frequencies --   3109.2509              3151.8358              3156.1466
 Red. masses --      1.0609                 1.1014                 1.1049
 Frc consts  --      6.0426                 6.4464                 6.4847
 IR Inten    --     16.9728                13.8887                 1.4723

                     37                     38                     39
                      A                      A                      A
 Frequencies --   3177.1408              3330.1427              3806.4061
 Red. masses --      1.1075                 1.1172                 1.0682
 Frc consts  --      6.5869                 7.2997                 9.1185
 IR Inten    --     14.1864                20.7300                45.4479

 - Thermochemistry -
 -------------------
 Temperature   298.150 Kelvin.  Pressure   1.00000 Atm.
 Atom     1 has atomic number  8 and mass  15.99491

 Molecular mass:   115.03952 amu.
 Principal axes and moments of inertia in atomic units:
                           1         2         3
     Eigenvalues --   315.844651897.081492059.76853
           X            0.99993  -0.00984  -0.00584
           Y            0.00994   0.99982   0.01638
           Z            0.00568  -0.01644   0.99985
 This molecule is an asymmetric top.
 Rotational symmetry number  1.
 Rotational temperatures (Kelvin)      0.27423     0.04566     0.04205
 Rotational constants (GHZ):           5.71402     0.95133     0.87619
    1 imaginary frequencies ignored.
 Zero-point vibrational energy     297699.2 (Joules/Mol)
                                   71.15181 (Kcal/Mol)
 Warning -- explicit consideration of  12 degrees of freedom as
           vibrations may cause significant error
 Vibrational temperatures:     96.34   154.95   178.14   242.33   312.42
          (Kelvin)            401.02   440.13   491.56   516.13   634.06
                              817.80   879.45  1102.25  1149.43  1157.00
                             1282.04  1332.15  1388.41  1538.56  1621.66
                             1635.64  1732.03  1870.16  1941.15  2018.22
                             2059.74  2148.15  2162.48  2179.71  2592.05
                             2720.38  4426.04  4473.52  4534.79  4540.99
                             4571.20  4791.33  5476.57

 Zero-point correction=                           0.113388 (Hartree/Particle)
 Thermal correction to Energy=                    0.122294
 Thermal correction to Enthalpy=                  0.123238
 Thermal correction to Gibbs Free Energy=         0.078797
 Sum of electronic and zero-point Energies=           -420.107099
 Sum of electronic and thermal Energies=              -420.098192
 Sum of electronic and thermal Enthalpies=            -420.097248
 Sum of electronic and thermal Free Energies=         -420.141689

                     E (Thermal)             CV                S
                      KCal/Mol        Cal/Mol-Kelvin    Cal/Mol-Kelvin
 Total                   76.741             30.671             93.534
 Electronic               0.000              0.000              1.377
 Translational            0.889              2.981             40.136
 Rotational               0.889              2.981             28.603
 Vibrational             74.963             24.709             23.418
 Vibration     1          0.598              1.970              4.241
 Vibration     2          0.606              1.943              3.310
 Vibration     3          0.610              1.929              3.040
 Vibration     4          0.625              1.881              2.453
 Vibration     5          0.646              1.815              1.983
 Vibration     6          0.679              1.713              1.542
 Vibration     7          0.696              1.663              1.384
 Vibration     8          0.721              1.592              1.204
 Vibration     9          0.734              1.557              1.128
 Vibration    10          0.801              1.381              0.824
 Vibration    11          0.924              1.100              0.507
 Vibration    12          0.970              1.008              0.431

 1\1\GINC-AJ\Freq\UM062X\6-311++G(d,p)\C5H7O3(2)\AAYUSH\23-Jun-2025\0\\
 # freq 6-311++g(d,p) m062x\\Title Card Required\\0,2\O,3.305105,0.7229
 76,0.107302\H,2.571807,1.323316,-0.096803\C,2.473378,-0.838727,0.26605
 9\H,3.278849,-1.515544,0.491445\C,1.226407,-0.759245,0.084173\C,-0.009
 122,-0.046273,-0.205778\O,-0.041605,1.138426,-0.414954\O,-1.055806,-0.
 863075,-0.211758\C,-2.340147,-0.255946,-0.47483\C,-2.887763,0.415622,0
 .768571\H,-2.963816,-1.089183,-0.792633\H,-2.228043,0.451056,-1.297464
 \H,-3.889251,0.798673,0.563937\H,-2.952655,-0.298981,1.590286\H,-2.254

 Normal termination of Gaussian 16 at Mon Jun 23 02:52:30 2025.
