 Gaussian 16, Revision A.03,
 Gaussian 16:  ES64L-G16RevA.03 25-Dec-2016

 --------------------------
 # freq 6-311++g(d,p) m062x
 --------------------------

 -------------------
 Title Card Required
 -------------------
 Symbolic Z-matrix:
 Charge =  0 Multiplicity = 2

                         Standard orientation:
 ---------------------------------------------------------------------
 Center     Atomic      Atomic             Coordinates (Angstroms)
 Number     Number       Type             X           Y           Z
 ---------------------------------------------------------------------
      1          8           0        3.321678    0.750685    0.107276
      2          1           0        2.578072    1.341371   -0.093837
      3          6           0        2.445759   -0.901434    0.268756
      4          1           0        3.300893   -1.510075    0.486228
      5          6           0        1.229244   -0.751614    0.079796
      6          6           0       -0.010747   -0.045914   -0.206083
      7          8           0       -0.040353    1.139544   -0.409833
      8          8           0       -1.057311   -0.860941   -0.215632
      9          6           0       -2.340759   -0.250273   -0.476200
     10          6           0       -2.887371    0.416657    0.770110
     11          1           0       -2.965613   -1.081132   -0.797752
     12          1           0       -2.227162    0.460109   -1.295664
     13          1           0       -3.888185    0.802221    0.566954
     14          1           0       -2.953590   -0.301469    1.588625
     15          1           0       -2.253285    1.250146    1.072686
 ---------------------------------------------------------------------

 SCF Done:  E(UM062X) =  -420.209876246     A.U. after   20 cycles

 The electronic state is 2-A.
 Alpha  occ. eigenvalues --  -19.69739 -19.64773 -19.63888 -10.72063 -10.62340
 Alpha  occ. eigenvalues --  -10.61657 -10.59477 -10.54669  -1.27185  -1.17945
 Alpha  occ. eigenvalues --   -1.09861  -0.92416  -0.88703  -0.79434  -0.72210
 Alpha  occ. eigenvalues --   -0.65937  -0.62365  -0.60003  -0.57959  -0.54653
 Alpha  occ. eigenvalues --   -0.51957  -0.50637  -0.48951  -0.47902  -0.46266
 Alpha  occ. eigenvalues --   -0.43181  -0.41580  -0.40664  -0.39857  -0.36470
 Alpha  occ. eigenvalues --   -0.32189
 Alpha virt. eigenvalues --   -0.03062  -0.00559   0.00788   0.01332   0.01850
 Alpha virt. eigenvalues --    0.02395   0.03839   0.05051   0.05420   0.06141
 Alpha virt. eigenvalues --    0.06692   0.07244   0.07932   0.08791   0.09880

  Beta  occ. eigenvalues --  -19.69717 -19.64674 -19.62886 -10.72102 -10.62483
  Beta  occ. eigenvalues --  -10.61654 -10.59011 -10.54669  -1.27069  -1.17700
  Beta  occ. eigenvalues --   -1.06127  -0.91174  -0.87993  -0.79277  -0.71840
  Beta  occ. eigenvalues --   -0.65806  -0.61914  -0.59703  -0.57692  -0.54489
  Beta  occ. eigenvalues --   -0.50409  -0.49988  -0.47772  -0.46303  -0.43108
  Beta  occ. eigenvalues --   -0.41811  -0.40558  -0.39844  -0.38621  -0.34505
  Beta virt. eigenvalues --   -0.09705  -0.02971  -0.00568   0.00912   0.01315
  Beta virt. eigenvalues --    0.01985   0.02690   0.04262   0.05177   0.05599
  Beta virt. eigenvalues --    0.06433   0.06949   0.07626   0.08282   0.08882

 Mulliken charges and spin densities:
               1          2
     1  O   -0.315276   0.545469
     2  H    0.247631  -0.012013
     3  C   -1.435468  -0.175709
     4  H    0.206801   0.029317
     5  C    1.563575   0.605644
     6  C   -0.292671  -0.023851
     7  O   -0.251466   0.027311
     8  O    0.028812   0.004246
     9  C   -0.267278  -0.002873
    10  C   -0.406219   0.001919
    11  H    0.200185   0.000097
    12  H    0.200825   0.000435
    13  H    0.167002   0.000196
    14  H    0.169009   0.000028
    15  H    0.184537  -0.000215
 Sum of Mulliken charges =  -0.00000   1.00000

 Dipole moment (field-independent basis, Debye):
    X=             -3.3683    Y=             -1.8202    Z=              0.1090  Tot=              3.8302
 Quadrupole moment (field-independent basis, Debye-Ang):
   XX=            -46.9740   YY=            -48.4073   ZZ=            -47.7041
   XY=             -6.0710   XZ=              1.2181   YZ=             -0.2655

  Exact polarizability: 106.749   6.830  71.261   2.955  -2.255  50.575
 Approx polarizability: 110.025   7.527  90.244   5.478  -4.688  58.734

 ******    1 imaginary frequencies (negative Signs) ******

                      1                      2                      3
                      A                      A                      A
 Frequencies --   -813.1088                61.7138                98.7621
 Red. masses --     10.7309                 6.0382                 5.5889
 Frc consts  --      4.1801                 0.0135                 0.0321
 IR Inten    --     18.0636                 0.4968                 0.2504

                      4                      5                      6
                      A                      A                      A
 Frequencies --    114.1287               147.2851               214.7479
 Red. masses --      2.8370                 5.2818                 1.4226
 Frc consts  --      0.0218                 0.0675                 0.0387
 IR Inten    --      0.2462                 3.1245                 2.4420

                      7                      8                      9
                      A                      A                      A
 Frequencies --    262.5366               283.7889               316.1685
 Red. masses --      3.0735                 2.7616                 1.1884
 Frc consts  --      0.1248                 0.1310                 0.0700
 IR Inten    --      5.0836                 2.3009               108.4778

                     10                     11                     12
                      A                      A                      A
 Frequencies --    342.9545               431.9768               556.3163
 Red. masses --      3.0829                 3.8853                 4.9246
 Frc consts  --      0.2136                 0.4272                 0.8980
 IR Inten    --     16.2547                 3.2830                 4.9371

                     13                     14                     15
                      A                      A                      A
 Frequencies --    610.6311               768.1467               789.3484
 Red. masses --      7.8084                 3.3652                 1.7970
 Frc consts  --      1.7154                 1.1699                 0.6597
 IR Inten    --     11.8999                 1.0818                56.7863

                     16                     17                     18
                      A                      A                      A
 Frequencies --    800.3836               881.0872               893.4306
 Red. masses --      1.2322                 1.2070                 2.5711
 Frc consts  --      0.4651                 0.5521                 1.2092
 IR Inten    --      4.3695               118.7401                23.1554

                     19                     20                     21
                      A                      A                      A
 Frequencies --    926.9163              1021.4311              1074.3024
 Red. masses --      2.6888                 1.1179                 3.8565
 Frc consts  --      1.3611                 0.6872                 2.6224
 IR Inten    --      2.2926                44.5910                31.9263

                     22                     23                     24
                      A                      A                      A
 Frequencies --   1127.7090              1203.7944              1301.0928
 Red. masses --      2.0712                 1.7664                 3.0820
 Frc consts  --      1.5519                 1.5082                 3.0740
 IR Inten    --     23.9088                 2.9143               630.0226

                     25                     26                     27
                      A                      A                      A
 Frequencies --   1349.8292              1403.1398              1431.9922
 Red. masses --      1.3028                 1.2972                 1.3936
 Frc consts  --      1.3986                 1.5048                 1.6837
 IR Inten    --    170.5685                44.1519                14.4773

                     28                     29                     30
                      A                      A                      A
 Frequencies --   1493.0424              1503.1622              1515.2058
 Red. masses --      1.0413                 1.0618                 1.0863
 Frc consts  --      1.3676                 1.4136                 1.4695
 IR Inten    --      9.7210                 3.1473                19.8365

                     31                     32                     33
                      A                      A                      A
 Frequencies --   1808.5416              1971.0585              3076.3236
 Red. masses --     11.5021                 6.9827                 1.0354
 Frc consts  --     22.1659                15.9836                 5.7734
 IR Inten    --    198.4525               136.0546                 9.0776

                     34                     35                     36
                      A                      A                      A
 Frequencies --   3109.7397              3151.9819              3156.3933
 Red. masses --      1.0609                 1.1014                 1.1049
 Frc consts  --      6.0444                 6.4468                 6.4858
 IR Inten    --     16.9200                13.8617                 1.3672

                     37                     38                     39
                      A                      A                      A
 Frequencies --   3177.5008              3383.8996              3792.5618
 Red. masses --      1.1076                 1.1294                 1.0682
 Frc consts  --      6.5888                 7.6194                 9.0524
 IR Inten    --     13.9831                41.4654                45.2295

 - Thermochemistry -
 -------------------
 Temperature   298.150 Kelvin.  Pressure   1.00000 Atm.
 Atom     1 has atomic number  8 and mass  15.99491

 Molecular mass:   115.03952 amu.
 Principal axes and moments of inertia in atomic units:
                           1         2         3
     Eigenvalues --   322.371071898.748952067.81476
           X            0.99993  -0.00989  -0.00584
           Y            0.00998   0.99982   0.01593
           Z            0.00568  -0.01599   0.99986
 This molecule is an asymmetric top.
 Rotational symmetry number  1.
 Rotational temperatures (Kelvin)      0.26868     0.04562     0.04189
 Rotational constants (GHZ):           5.59833     0.95049     0.87278
    1 imaginary frequencies ignored.
 Zero-point vibrational energy     296392.9 (Joules/Mol)
                                   70.83961 (Kcal/Mol)
 Warning -- explicit consideration of  12 degrees of freedom as
           vibrations may cause significant error
 Vibrational temperatures:     88.79   142.10   164.21   211.91   308.97
          (Kelvin)            377.73   408.31   454.90   493.44   621.52
                              800.42   878.56  1105.19  1135.70  1151.57
                             1267.69  1285.45  1333.63  1469.61  1545.68
                             1622.52  1731.99  1871.98  1942.10  2018.81
                             2060.32  2148.15  2162.72  2180.04  2602.09
                             2835.91  4426.14  4474.22  4535.00  4541.35
                             4571.71  4868.68  5456.65

 Zero-point correction=                           0.112890 (Hartree/Particle)
 Thermal correction to Energy=                    0.122024
 Thermal correction to Enthalpy=                  0.122968
 Thermal correction to Gibbs Free Energy=         0.077888
 Sum of electronic and zero-point Energies=           -420.096986
 Sum of electronic and thermal Energies=              -420.087852
 Sum of electronic and thermal Enthalpies=            -420.086908
 Sum of electronic and thermal Free Energies=         -420.131988

                     E (Thermal)             CV                S
                      KCal/Mol        Cal/Mol-Kelvin    Cal/Mol-Kelvin
 Total                   76.571             31.132             94.878
 Electronic               0.000              0.000              1.377
 Translational            0.889              2.981             40.136
 Rotational               0.889              2.981             28.628
 Vibrational             74.794             25.170             24.738
 Vibration     1          0.597              1.973              4.402
 Vibration     2          0.604              1.950              3.479
 Vibration     3          0.607              1.938              3.197
 Vibration     4          0.617              1.906              2.707
 Vibration     5          0.645              1.819              2.003
 Vibration     6          0.670              1.741              1.645
 Vibration     7          0.682              1.704              1.511
 Vibration     8          0.703              1.643              1.330
 Vibration     9          0.722              1.590              1.198
 Vibration    10          0.793              1.401              0.852
 Vibration    11          0.912              1.126              0.531
 Vibration    12          0.970              1.009              0.432

 1\1\GINC-AJ\Freq\UM062X\6-311++G(d,p)\C5H7O3(2)\AAYUSH\16-Aug-2025\0\\
 # freq 6-311++g(d,p) m062x\\Title Card Required\\0,2\O,3.251166,0.7499
 42,0.125543\H,2.509122,1.343715,-0.072222\C,2.370972,-0.900846,0.27708
 7\H,3.224494,-1.512956,0.491126\C,1.154886,-0.746786,0.088778\C,-0.083
 228,-0.036225,-0.193169\O,-0.109746,1.150488,-0.389917\O,-1.13188,-0.8
 48489,-0.207738\C,-2.4137,-0.232996,-0.464944\C,-2.95886,0.427962,0.78
 5178\H,-3.040619,-1.060332,-0.791522\H,-2.298107,0.481921,-1.280174\H,
 -3.958637,0.81729,0.584108\H,-3.027096,-0.294815,1.599423\H,-2.322699,

 Normal termination of Gaussian 16 at Sat Aug 16 17:18:42 2025.
