 Gaussian 16, Revision A.03,
 Gaussian 16:  ES64L-G16RevA.03 25-Dec-2016

 --------------------------
 # freq 6-311++g(d,p) m062x
 --------------------------

 -------------------
 Title Card Required
 -------------------
 Symbolic Z-matrix:
 Charge =  0 Multiplicity = 2

                         Standard orientation:
 ---------------------------------------------------------------------
 Center     Atomic      Atomic             Coordinates (Angstroms)
 Number     Number       Type             X           Y           Z
 ---------------------------------------------------------------------
      1          8           0        3.293764    0.703652    0.107473
      2          1           0        2.568789    1.312313   -0.098970
      3          6           0        2.490384   -0.797096    0.264002
      4          1           0        3.263850   -1.512726    0.494224
      5          6           0        1.225545   -0.764977    0.087549
      6          6           0       -0.007519   -0.046755   -0.205465
      7          8           0       -0.042323    1.137688   -0.418590
      8          8           0       -1.054915   -0.864364   -0.209060
      9          6           0       -2.339648   -0.259617   -0.473906
     10          6           0       -2.888025    0.415321    0.767391
     11          1           0       -2.962711   -1.094369   -0.789073
     12          1           0       -2.228617    0.445045   -1.298743
     13          1           0       -3.889930    0.796782    0.561735
     14          1           0       -2.952079   -0.296776    1.591359
     15          1           0       -2.255933    1.252665    1.063467
 ---------------------------------------------------------------------

 SCF Done:  E(UM062X) =  -420.230213192     A.U. after   19 cycles

 The electronic state is 2-A.
 Alpha  occ. eigenvalues --  -19.69429 -19.64530 -19.64345 -10.71637 -10.64073
 Alpha  occ. eigenvalues --  -10.61461 -10.59691 -10.54526  -1.26851  -1.17668
 Alpha  occ. eigenvalues --   -1.10862  -0.92242  -0.88457  -0.79265  -0.72174
 Alpha  occ. eigenvalues --   -0.65792  -0.62011  -0.59807  -0.57735  -0.54479
 Alpha  occ. eigenvalues --   -0.52830  -0.50521  -0.49063  -0.47719  -0.46106
 Alpha  occ. eigenvalues --   -0.43121  -0.42560  -0.40621  -0.39672  -0.35590
 Alpha  occ. eigenvalues --   -0.31651
 Alpha virt. eigenvalues --   -0.03222  -0.00507   0.00780   0.01383   0.01803
 Alpha virt. eigenvalues --    0.02534   0.03827   0.05157   0.05800   0.06478
 Alpha virt. eigenvalues --    0.06972   0.07698   0.08092   0.08859   0.10302

  Beta  occ. eigenvalues --  -19.69403 -19.64393 -19.63851 -10.71677 -10.64217
  Beta  occ. eigenvalues --  -10.61458 -10.58996 -10.54526  -1.26690  -1.17332
  Beta  occ. eigenvalues --   -1.09052  -0.90669  -0.87458  -0.79053  -0.71631
  Beta  occ. eigenvalues --   -0.65606  -0.61459  -0.59371  -0.57365  -0.54229
  Beta  occ. eigenvalues --   -0.51467  -0.50176  -0.47561  -0.46091  -0.44360
  Beta  occ. eigenvalues --   -0.42865  -0.42036  -0.39693  -0.38887  -0.34055
  Beta virt. eigenvalues --   -0.08532  -0.02985  -0.00549   0.00819   0.01360
  Beta virt. eigenvalues --    0.02016   0.02707   0.04221   0.05214   0.05725
  Beta virt. eigenvalues --    0.06455   0.06974   0.07962   0.08437   0.08864

 Mulliken charges and spin densities:
               1          2
     1  O   -0.309728   0.260707
     2  H    0.253253  -0.005580
     3  C   -1.015850  -0.149053
     4  H    0.210780   0.031471
     5  C    1.131544   0.838809
     6  C   -0.276177  -0.016065
     7  O   -0.256645   0.038562
     8  O    0.023437   0.003500
     9  C   -0.269340  -0.005509
    10  C   -0.408539   0.002301
    11  H    0.198545   0.000030
    12  H    0.200292   0.000704
    13  H    0.165225   0.000265
    14  H    0.169148   0.000104
    15  H    0.184056  -0.000245
 Sum of Mulliken charges =  -0.00000   1.00000

 Dipole moment (field-independent basis, Debye):
    X=             -3.1490    Y=             -1.7416    Z=              0.1287  Tot=              3.6008
 Quadrupole moment (field-independent basis, Debye-Ang):
   XX=            -47.1666   YY=            -48.5431   ZZ=            -47.7546
   XY=             -5.6758   XZ=              1.1556   YZ=             -0.2136

  Exact polarizability: 102.469   2.979  67.472   3.067  -2.196  50.693
 Approx polarizability: 105.389   5.963  88.035   5.042  -4.680  59.143

 ******    1 imaginary frequencies (negative Signs) ******

                      1                      2                      3
                      A                      A                      A
 Frequencies --   -519.5062                71.1533               108.9475
 Red. masses --     11.8768                 5.6637                 3.2644
 Frc consts  --      1.8886                 0.0169                 0.0228
 IR Inten    --     91.4055                 1.0547                 0.2250

                      4                      5                      6
                      A                      A                      A
 Frequencies --    132.3452               175.7614               218.0315
 Red. masses --      4.4374                 5.7453                 1.3196
 Frc consts  --      0.0458                 0.1046                 0.0370
 IR Inten    --      0.3759                 1.1595                 3.2449

                      7                      8                      9
                      A                      A                      A
 Frequencies --    286.1469               319.5948               348.8051
 Red. masses --      3.2373                 2.1025                 2.4614
 Frc consts  --      0.1562                 0.1265                 0.1764
 IR Inten    --      5.7998                 6.4352                32.1175

                     10                     11                     12
                      A                      A                      A
 Frequencies --    386.3956               446.8560               582.5375
 Red. masses --      1.5621                 3.5835                 4.5353
 Frc consts  --      0.1374                 0.4216                 0.9068
 IR Inten    --     91.5375                 4.9828                 4.2221

                     13                     14                     15
                      A                      A                      A
 Frequencies --    619.1647               767.3670               799.3714
 Red. masses --      8.3728                 6.2967                 1.2069
 Frc consts  --      1.8912                 2.1846                 0.4544
 IR Inten    --     13.8085                10.3079                 4.9148

                     16                     17                     18
                      A                      A                      A
 Frequencies --    818.5116               890.8266               925.2220
 Red. masses --      1.5536                 3.0967                 2.7887
 Frc consts  --      0.6133                 1.4479                 1.4065
 IR Inten    --     45.8194                 8.6080                 0.7468

                     19                     20                     21
                      A                      A                      A
 Frequencies --   1023.7053              1070.0482              1127.4328
 Red. masses --      1.1065                 3.7734                 2.0607
 Frc consts  --      0.6832                 2.5456                 1.5433
 IR Inten    --     46.1666                21.2877                19.9749

                     22                     23                     24
                      A                      A                      A
 Frequencies --   1191.2975              1206.5857              1300.9833
 Red. masses --      1.2890                 1.6052                 2.9062
 Frc consts  --      1.0778                 1.3769                 2.8981
 IR Inten    --    114.7418                38.6866               506.3803

                     25                     26                     27
                      A                      A                      A
 Frequencies --   1348.7053              1402.3846              1431.2960
 Red. masses --      1.2792                 1.2900                 1.3859
 Frc consts  --      1.3709                 1.4948                 1.6728
 IR Inten    --    141.6835                35.1576                10.9850

                     28                     29                     30
                      A                      A                      A
 Frequencies --   1493.0070              1502.8559              1514.7843
 Red. masses --      1.0413                 1.0626                 1.0843
 Frc consts  --      1.3676                 1.4140                 1.4659
 IR Inten    --      9.8885                 2.7109                18.1241

                     31                     32                     33
                      A                      A                      A
 Frequencies --   1792.0273              1852.5857              3076.1150
 Red. masses --     10.3133                 8.8968                 1.0354
 Frc consts  --     19.5135                17.9904                 5.7726
 IR Inten    --    218.2642               215.0564                 9.3898

                     34                     35                     36
                      A                      A                      A
 Frequencies --   3108.6898              3151.5979              3155.8246
 Red. masses --      1.0609                 1.1014                 1.1049
 Frc consts  --      6.0403                 6.4455                 6.4833
 IR Inten    --     17.2085                14.0076                 1.6022

                     37                     38                     39
                      A                      A                      A
 Frequencies --   3176.6904              3298.2581              3811.6534
 Red. masses --      1.1075                 1.1103                 1.0681
 Frc consts  --      6.5846                 7.1162                 9.1428
 IR Inten    --     14.4799                12.4525                45.8531

 - Thermochemistry -
 -------------------
 Temperature   298.150 Kelvin.  Pressure   1.00000 Atm.
 Atom     1 has atomic number  8 and mass  15.99491

 Molecular mass:   115.03952 amu.
 Principal axes and moments of inertia in atomic units:
                           1         2         3
     Eigenvalues --   311.658811895.724532054.33836
           X            0.99994  -0.00977  -0.00584
           Y            0.00987   0.99981   0.01679
           Z            0.00568  -0.01684   0.99984
 This molecule is an asymmetric top.
 Rotational symmetry number  1.
 Rotational temperatures (Kelvin)      0.27791     0.04569     0.04216
 Rotational constants (GHZ):           5.79076     0.95201     0.87850
    1 imaginary frequencies ignored.
 Zero-point vibrational energy     298669.1 (Joules/Mol)
                                   71.38362 (Kcal/Mol)
 Warning -- explicit consideration of  12 degrees of freedom as
           vibrations may cause significant error
 Vibrational temperatures:    102.37   156.75   190.42   252.88   313.70
          (Kelvin)            411.70   459.83   501.85   555.94   642.93
                              838.14   890.84  1104.07  1150.12  1177.66
                             1281.70  1331.19  1472.88  1539.56  1622.12
                             1714.01  1736.01  1871.82  1940.49  2017.72
                             2059.32  2148.10  2162.27  2179.44  2578.33
                             2665.46  4425.84  4472.71  4534.45  4540.53
                             4570.55  4745.46  5484.12

 Zero-point correction=                           0.113757 (Hartree/Particle)
 Thermal correction to Energy=                    0.122525
 Thermal correction to Enthalpy=                  0.123470
 Thermal correction to Gibbs Free Energy=         0.079381
 Sum of electronic and zero-point Energies=           -420.116456
 Sum of electronic and thermal Energies=              -420.107688
 Sum of electronic and thermal Enthalpies=            -420.106744
 Sum of electronic and thermal Free Energies=         -420.150832

                     E (Thermal)             CV                S
                      KCal/Mol        Cal/Mol-Kelvin    Cal/Mol-Kelvin
 Total                   76.886             30.347             92.791
 Electronic               0.000              0.000              1.377
 Translational            0.889              2.981             40.136
 Rotational               0.889              2.981             28.586
 Vibrational             75.108             24.385             22.692
 Vibration     1          0.598              1.968              4.121
 Vibration     2          0.606              1.942              3.288
 Vibration     3          0.612              1.921              2.912
 Vibration     4          0.628              1.872              2.373
 Vibration     5          0.646              1.814              1.975
 Vibration     6          0.684              1.699              1.497
 Vibration     7          0.706              1.636              1.312
 Vibration     8          0.726              1.578              1.172
 Vibration     9          0.755              1.499              1.014
 Vibration    10          0.806              1.368              0.805
 Vibration    11          0.939              1.069              0.481
 Vibration    12          0.979              0.991              0.418

 1\1\GINC-AJ\Freq\UM062X\6-311++G(d,p)\C5H7O3(2)\AAYUSH\23-Jun-2025\0\\
 # freq 6-311++g(d,p) m062x\\Title Card Required\\0,2\O,3.293764,0.7036
 52,0.107473\H,2.568789,1.312313,-0.09897\C,2.490384,-0.797096,0.264002
 \H,3.26385,-1.512726,0.494224\C,1.225545,-0.764977,0.087549\C,-0.00751
 9,-0.046755,-0.205465\O,-0.042323,1.137688,-0.41859\O,-1.054915,-0.864
 364,-0.20906\C,-2.339648,-0.259617,-0.473906\C,-2.888025,0.415321,0.76
 7391\H,-2.962711,-1.094369,-0.789073\H,-2.228617,0.445045,-1.298743\H,
 -3.88993,0.796782,0.561735\H,-2.952079,-0.296776,1.591359\H,-2.255933,

 Normal termination of Gaussian 16 at Mon Jun 23 03:25:23 2025.
