 Gaussian 16, Revision A.03,
 Gaussian 16:  ES64L-G16RevA.03 25-Dec-2016

 --------------------------
 # ccsd(t)/6-311++g(d,p) sp
 --------------------------

 -------------------
 Title Card Required
 -------------------
 Symbolic Z-matrix:
 Charge =  0 Multiplicity = 2

                         Standard orientation:
 ---------------------------------------------------------------------
 Center     Atomic      Atomic             Coordinates (Angstroms)
 Number     Number       Type             X           Y           Z
 ---------------------------------------------------------------------
      1          8           0        3.384835    0.848148    0.109402
      2          1           0        2.595943    1.386525   -0.080566
      3          6           0        2.356957   -1.109271    0.273563
      4          1           0        3.317838   -1.526131    0.465766
      5          6           0        1.227506   -0.749611    0.067557
      6          6           0       -0.011335   -0.042399   -0.206863
      7          8           0       -0.034962    1.146910   -0.392674
      8          8           0       -1.063378   -0.850143   -0.229464
      9          6           0       -2.341933   -0.227233   -0.481022
     10          6           0       -2.885254    0.423925    0.775181
     11          1           0       -2.972419   -1.048670   -0.815737
     12          1           0       -2.223579    0.495385   -1.289070
     13          1           0       -3.883348    0.819453    0.577692
     14          1           0       -2.956592   -0.306437    1.582374
     15          1           0       -2.245441    1.248087    1.090928
 ---------------------------------------------------------------------

 SCF Done:  E(UHF) =  -417.991922354     A.U. after   35 cycles
 E2 =    -0.1257517326D+01 EUMP2 =    -0.41924943968044D+03
 CCSD(T)= -0.41935728952D+03

 The electronic state is 2-A.
 Alpha  occ. eigenvalues --  -20.62290 -20.61738 -20.57173 -11.42306 -11.30428
 Alpha  occ. eigenvalues --  -11.26744 -11.26170 -11.23173  -1.49285  -1.39316
 Alpha  occ. eigenvalues --   -1.37306  -1.08949  -1.04627  -0.92876  -0.84468
 Alpha  occ. eigenvalues --   -0.77391  -0.73446  -0.70769  -0.67455  -0.66254
 Alpha  occ. eigenvalues --   -0.64638  -0.63936  -0.59302  -0.56129  -0.54832
 Alpha  occ. eigenvalues --   -0.54519  -0.51416  -0.49773  -0.47910  -0.42983
 Alpha  occ. eigenvalues --   -0.41933
 Alpha virt. eigenvalues --    0.03888   0.04696   0.05629   0.06306   0.07176
 Alpha virt. eigenvalues --    0.08546   0.08728   0.09365   0.11067   0.12258
 Alpha virt. eigenvalues --    0.12716   0.13602   0.14486   0.14968   0.16529

  Beta  occ. eigenvalues --  -20.62275 -20.57699 -20.56868 -11.42537 -11.30425
  Beta  occ. eigenvalues --  -11.27875 -11.24833 -11.23172  -1.49118  -1.38794
  Beta  occ. eigenvalues --   -1.22211  -1.07722  -1.04653  -0.93271  -0.84454
  Beta  occ. eigenvalues --   -0.77321  -0.73321  -0.70384  -0.67180  -0.63914
  Beta  occ. eigenvalues --   -0.62006  -0.59013  -0.55525  -0.54748  -0.51261
  Beta  occ. eigenvalues --   -0.49942  -0.48980  -0.47181  -0.43352  -0.42666
  Beta virt. eigenvalues --    0.03889   0.04664   0.05632   0.06025   0.06965
  Beta virt. eigenvalues --    0.07775   0.08499   0.09102   0.10312   0.12038
  Beta virt. eigenvalues --    0.12652   0.13098   0.13650   0.14516   0.14828

 Mulliken charges and spin densities:
               1          2
     1  O   -0.242423   0.971192
     2  H    0.268920  -0.035102
     3  C   -2.703306  -0.498459
     4  H    0.191134   0.050828
     5  C    2.799845   0.599333
     6  C   -0.237765  -0.147126
     7  O   -0.332472   0.056480
     8  O   -0.041095   0.001770
     9  C   -0.155699  -0.001076
    10  C   -0.355813   0.001886
    11  H    0.172212   0.000194
    12  H    0.181458   0.000012
    13  H    0.136804   0.000138
    14  H    0.145891  -0.000092
    15  H    0.172308   0.000023
 Sum of Mulliken charges =  -0.00000   1.00000

 Dipole moment (field-independent basis, Debye):
    X=             -2.2376    Y=             -0.9839    Z=              0.0615  Tot=              2.4451
 Quadrupole moment (field-independent basis, Debye-Ang):
   XX=            -42.5185   YY=            -48.8955   ZZ=            -47.7422
   XY=             -3.5717   XZ=              1.3069   YZ=             -0.0886

 496\PMP3-0=-419.2843524\MP4SDQ=-419.3026417\CCSD=-419.3045761\CCSD(T)=
 Normal termination of Gaussian 16 at Fri Aug  1 23:52:59 2025.
