 Gaussian 16, Revision A.03,
 Gaussian 16:  ES64L-G16RevA.03 25-Dec-2016

 --------------------------
 # freq 6-311++g(d,p) m062x
 --------------------------

 -------------------
 Title Card Required
 -------------------
 Symbolic Z-matrix:
 Charge =  0 Multiplicity = 2

                         Standard orientation:
 ---------------------------------------------------------------------
 Center     Atomic      Atomic             Coordinates (Angstroms)
 Number     Number       Type             X           Y           Z
 ---------------------------------------------------------------------
      1          8           0        3.377880    0.837476    0.109036
      2          1           0        2.594785    1.383514   -0.082164
      3          6           0        2.365124   -1.089211    0.273487
      4          1           0        3.321860   -1.515101    0.467350
      5          6           0        1.228661   -0.747898    0.068705
      6          6           0       -0.011374   -0.043000   -0.206758
      7          8           0       -0.035742    1.145945   -0.394523
      8          8           0       -1.062747   -0.851567   -0.227945
      9          6           0       -2.341806   -0.229900   -0.480495
     10          6           0       -2.885527    0.423016    0.774621
     11          1           0       -2.971740   -1.052334   -0.813791
     12          1           0       -2.223949    0.491409   -1.289779
     13          1           0       -3.883915    0.817468    0.576479
     14          1           0       -2.956324   -0.306016    1.583063
     15          1           0       -2.246319    1.248192    1.088939
 ---------------------------------------------------------------------

 SCF Done:  E(UM062X) =  -420.207988594     A.U. after   24 cycles

 The electronic state is 2-A.
 Alpha  occ. eigenvalues --  -19.69405 -19.66003 -19.64323 -10.71714 -10.61411
 Alpha  occ. eigenvalues --  -10.58584 -10.57530 -10.54474  -1.26795  -1.17481
 Alpha  occ. eigenvalues --   -1.11842  -0.91398  -0.88016  -0.78926  -0.71522
 Alpha  occ. eigenvalues --   -0.65500  -0.62020  -0.59590  -0.57511  -0.54410
 Alpha  occ. eigenvalues --   -0.53714  -0.50251  -0.49346  -0.47585  -0.46083
 Alpha  occ. eigenvalues --   -0.42891  -0.41883  -0.40278  -0.39510  -0.37471
 Alpha  occ. eigenvalues --   -0.34793
 Alpha virt. eigenvalues --   -0.02313  -0.00433   0.00852   0.01459   0.01917
 Alpha virt. eigenvalues --    0.02645   0.03976   0.05053   0.05345   0.06002
 Alpha virt. eigenvalues --    0.06617   0.07360   0.08086   0.08881   0.10157

  Beta  occ. eigenvalues --  -19.69397 -19.64473 -19.64301 -10.71727 -10.61409
  Beta  occ. eigenvalues --  -10.58604 -10.57385 -10.54474  -1.26763  -1.17418
  Beta  occ. eigenvalues --   -1.04642  -0.91049  -0.87704  -0.78853  -0.71399
  Beta  occ. eigenvalues --   -0.65454  -0.61725  -0.59508  -0.57436  -0.54347
  Beta  occ. eigenvalues --   -0.50796  -0.50178  -0.47538  -0.46123  -0.42868
  Beta  occ. eigenvalues --   -0.40790  -0.39682  -0.39352  -0.37342  -0.36188
  Beta virt. eigenvalues --   -0.08142  -0.02274  -0.00401   0.01027   0.01458
  Beta virt. eigenvalues --    0.02063   0.02800   0.04242   0.05219   0.05766
  Beta virt. eigenvalues --    0.06375   0.06709   0.07383   0.08275   0.09058

 Mulliken charges and spin densities:
               1          2
     1  O   -0.276673   0.891589
     2  H    0.254959  -0.017455
     3  C   -2.255468   0.000873
     4  H    0.189480   0.013855
     5  C    2.213168   0.131253
     6  C   -0.161785  -0.029143
     7  O   -0.257029   0.005798
     8  O    0.037771   0.002377
     9  C   -0.261770  -0.000106
    10  C   -0.402311   0.000825
    11  H    0.200906   0.000012
    12  H    0.198471   0.000198
    13  H    0.168196   0.000013
    14  H    0.167916  -0.000035
    15  H    0.184169  -0.000055
 Sum of Mulliken charges =  -0.00000   1.00000

 Dipole moment (field-independent basis, Debye):
    X=             -2.7400    Y=             -1.1732    Z=              0.0629  Tot=              2.9812
 Quadrupole moment (field-independent basis, Debye-Ang):
   XX=            -43.9143   YY=            -48.5112   ZZ=            -47.7468
   XY=             -4.3624   XZ=              1.1757   YZ=             -0.1732

  Exact polarizability: 100.192   0.344  67.573   3.252  -2.140  50.541
 Approx polarizability: 103.812  -3.096  83.481   6.422  -4.683  58.333

 ******    2 imaginary frequencies (negative Signs) ******

                      1                      2                      3
                      A                      A                      A
 Frequencies --    -58.5549               -45.0442                77.1669
 Red. masses --      6.4206                 6.8929                 3.9678
 Frc consts  --      0.0130                 0.0082                 0.0139
 IR Inten    --      1.1792                 0.2313                 2.8077

                      4                      5                      6
                      A                      A                      A
 Frequencies --    116.5256               138.2719               187.4454
 Red. masses --      3.3904                11.4586                 2.6587
 Frc consts  --      0.0271                 0.1291                 0.0550
 IR Inten    --      1.0535                 7.8451                 3.8107

                      7                      8                      9
                      A                      A                      A
 Frequencies --    236.2175               266.9049               281.5528
 Red. masses --      1.4948                 4.0631                 1.0592
 Frc consts  --      0.0491                 0.1705                 0.0495
 IR Inten    --      2.8563                 4.2898               111.8043

                     10                     11                     12
                      A                      A                      A
 Frequencies --    339.9895               424.0216               557.3683
 Red. masses --      2.9868                 4.0693                 4.5192
 Frc consts  --      0.2034                 0.4311                 0.8272
 IR Inten    --     15.0022                 1.6490                 4.3339

                     13                     14                     15
                      A                      A                      A
 Frequencies --    626.6188               682.2851               778.9864
 Red. masses --      7.2436                 1.0670                 3.0264
 Frc consts  --      1.6758                 0.2927                 1.0820
 IR Inten    --      6.8890               183.1699                 0.9653

                     16                     17                     18
                      A                      A                      A
 Frequencies --    781.3483               787.0544               801.6398
 Red. masses --      1.1561                 1.7062                 1.2203
 Frc consts  --      0.4159                 0.6227                 0.4620
 IR Inten    --     57.2970                58.0849                 5.0918

                     19                     20                     21
                      A                      A                      A
 Frequencies --    896.1988               932.7900              1075.6973
 Red. masses --      3.0634                 2.9621                 4.1584
 Frc consts  --      1.4497                 1.5185                 2.8350
 IR Inten    --     11.4736                 4.1558                24.8899

                     22                     23                     24
                      A                      A                      A
 Frequencies --   1128.2097              1204.3210              1306.8764
 Red. masses --      2.0766                 1.7692                 2.7908
 Frc consts  --      1.5573                 1.5118                 2.8083
 IR Inten    --     23.3220                 2.9973               579.6486

                     25                     26                     27
                      A                      A                      A
 Frequencies --   1350.9824              1403.5456              1432.5308
 Red. masses --      1.3429                 1.3090                 1.4087
 Frc consts  --      1.4441                 1.5193                 1.7033
 IR Inten    --    190.2130                51.3383                17.1533

                     28                     29                     30
                      A                      A                      A
 Frequencies --   1492.8584              1503.4308              1515.6035
 Red. masses --      1.0413                 1.0626                 1.0876
 Frc consts  --      1.3673                 1.4150                 1.4720
 IR Inten    --      9.9580                 3.3308                21.2142

                     31                     32                     33
                      A                      A                      A
 Frequencies --   1815.9481              2220.8867              3075.8687
 Red. masses --     11.8186                 5.9482                 1.0354
 Frc consts  --     22.9627                17.2858                 5.7717
 IR Inten    --    266.2001                85.0033                 9.3753

                     34                     35                     36
                      A                      A                      A
 Frequencies --   3109.2548              3151.3224              3155.9518
 Red. masses --      1.0607                 1.1013                 1.1049
 Frc consts  --      6.0419                 6.4440                 6.4841
 IR Inten    --     17.1890                14.1607                 1.4462

                     37                     38                     39
                      A                      A                      A
 Frequencies --   3176.8658              3485.1310              3758.4603
 Red. masses --      1.1076                 1.1633                 1.0677
 Frc consts  --      6.5860                 8.3249                 8.8862
 IR Inten    --     14.1527                75.2170                26.9890

 - Thermochemistry -
 -------------------
 Temperature   298.150 Kelvin.  Pressure   1.00000 Atm.
 Atom     1 has atomic number  8 and mass  15.99491

 Molecular mass:   115.03952 amu.
 Principal axes and moments of inertia in atomic units:
                           1         2         3
     Eigenvalues --   346.383561904.937872097.56530
           X            0.99993  -0.01023  -0.00589
           Y            0.01031   0.99984   0.01446
           Z            0.00574  -0.01452   0.99988
 This molecule is an asymmetric top.
 Rotational symmetry number  1.
 Rotational temperatures (Kelvin)      0.25005     0.04547     0.04129
 Rotational constants (GHZ):           5.21024     0.94740     0.86040
    2 imaginary frequencies ignored.
 Zero-point vibrational energy     294736.7 (Joules/Mol)
                                   70.44377 (Kcal/Mol)
 Warning -- explicit consideration of  10 degrees of freedom as
           vibrations may cause significant error
 Vibrational temperatures:    111.03   167.65   198.94   269.69   339.86
          (Kelvin)            384.02   405.09   489.17   610.07   801.93
                              901.56   981.66  1120.79  1124.19  1132.40
                             1153.38  1289.43  1342.08  1547.69  1623.24
                             1732.75  1880.30  1943.76  2019.39  2061.09
                             2147.89  2163.10  2180.62  2612.74  3195.36
                             4425.49  4473.52  4534.05  4540.71  4570.80
                             5014.33  5407.59

 Zero-point correction=                           0.112259 (Hartree/Particle)
 Thermal correction to Energy=                    0.120890
 Thermal correction to Enthalpy=                  0.121834
 Thermal correction to Gibbs Free Energy=         0.078038
 Sum of electronic and zero-point Energies=           -420.095729
 Sum of electronic and thermal Energies=              -420.087099
 Sum of electronic and thermal Enthalpies=            -420.086155
 Sum of electronic and thermal Free Energies=         -420.129951

                     E (Thermal)             CV                S
                      KCal/Mol        Cal/Mol-Kelvin    Cal/Mol-Kelvin
 Total                   75.859             29.968             92.176
 Electronic               0.000              0.000              1.377
 Translational            0.889              2.981             40.136
 Rotational               0.889              2.981             28.717
 Vibrational             74.082             24.006             21.946
 Vibration     1          0.599              1.964              3.962
 Vibration     2          0.608              1.936              3.157
 Vibration     3          0.614              1.915              2.828
 Vibration     4          0.632              1.857              2.253
 Vibration     5          0.655              1.785              1.831
 Vibration     6          0.672              1.734              1.616
 Vibration     7          0.681              1.708              1.524
 Vibration     8          0.720              1.596              1.212
 Vibration     9          0.786              1.418              0.878
 Vibration    10          0.913              1.124              0.529

 1\1\GINC-AJ\Freq\UM062X\6-311++G(d,p)\C5H7O3(2)\AAYUSH\23-Jun-2025\0\\
 # freq 6-311++g(d,p) m062x\\Title Card Required\\0,2\O,3.37788,0.83747
 6,0.109036\H,2.594785,1.383514,-0.082164\C,2.365124,-1.089211,0.273487
 \H,3.32186,-1.515101,0.46735\C,1.228661,-0.747898,0.068705\C,-0.011374
 ,-0.043,-0.206758\O,-0.035742,1.145945,-0.394523\O,-1.062747,-0.851567
 ,-0.227945\C,-2.341806,-0.2299,-0.480495\C,-2.885527,0.423016,0.774621
 \H,-2.97174,-1.052334,-0.813791\H,-2.223949,0.491409,-1.289779\H,-3.88
 3915,0.817468,0.576479\H,-2.956324,-0.306016,1.583063\H,-2.246319,1.24

 Normal termination of Gaussian 16 at Mon Jun 23 03:30:03 2025.
