 Gaussian 16, Revision A.03,
 Gaussian 16:  ES64L-G16RevA.03 25-Dec-2016

 --------------------------
 # ccsd(t)/6-311++g(d,p) sp
 --------------------------

 -------------------
 Title Card Required
 -------------------
 Symbolic Z-matrix:
 Charge =  0 Multiplicity = 2

                         Standard orientation:
 ---------------------------------------------------------------------
 Center     Atomic      Atomic             Coordinates (Angstroms)
 Number     Number       Type             X           Y           Z
 ---------------------------------------------------------------------
      1          8           0        3.332912    0.768785    0.107423
      2          1           0        2.583117    1.353786   -0.091848
      3          6           0        2.426713   -0.943442    0.270293
      4          1           0        3.313282   -1.502694    0.482052
      5          6           0        1.231126   -0.747934    0.077244
      6          6           0       -0.011269   -0.045685   -0.206213
      7          8           0       -0.039448    1.140472   -0.406554
      8          8           0       -1.058445   -0.859325   -0.218187
      9          6           0       -2.341070   -0.246266   -0.477117
     10          6           0       -2.887077    0.417742    0.771042
     11          1           0       -2.966935   -1.075414   -0.801121
     12          1           0       -2.226535    0.466381   -1.294476
     13          1           0       -3.887405    0.805106    0.568886
     14          1           0       -2.954238   -0.302669    1.587470
     15          1           0       -2.251974    1.249549    1.076086
 ---------------------------------------------------------------------

 SCF Done:  E(UHF) =  -417.982750619     A.U. after   32 cycles
 E2 =    -0.1250591060D+01 EUMP2 =    -0.41923334167952D+03
 CCSD(T)= -0.41935599435D+03

 The electronic state is 2-A.
 Alpha  occ. eigenvalues --  -20.62284 -20.60968 -20.57277 -11.42079 -11.30467
 Alpha  occ. eigenvalues --  -11.27567 -11.27046 -11.23206  -1.49359  -1.39536
 Alpha  occ. eigenvalues --   -1.36557  -1.09715  -1.04738  -0.92729  -0.84507
 Alpha  occ. eigenvalues --   -0.77535  -0.73331  -0.71005  -0.67624  -0.64911
 Alpha  occ. eigenvalues --   -0.64098  -0.63487  -0.59464  -0.56390  -0.54861
 Alpha  occ. eigenvalues --   -0.53916  -0.51618  -0.50244  -0.48198  -0.43349
 Alpha  occ. eigenvalues --   -0.42111
 Alpha virt. eigenvalues --    0.03872   0.04774   0.05592   0.06281   0.07158
 Alpha virt. eigenvalues --    0.08475   0.08984   0.09386   0.11027   0.12278
 Alpha virt. eigenvalues --    0.12706   0.13702   0.14508   0.15020   0.16677

  Beta  occ. eigenvalues --  -20.62265 -20.57403 -20.56731 -11.42470 -11.30463
  Beta  occ. eigenvalues --  -11.29667 -11.24573 -11.23205  -1.49062  -1.38609
  Beta  occ. eigenvalues --   -1.24007  -1.07300  -1.04711  -0.93347  -0.84390
  Beta  occ. eigenvalues --   -0.77368  -0.73089  -0.70251  -0.67117  -0.63783
  Beta  occ. eigenvalues --   -0.61738  -0.58947  -0.55400  -0.54721  -0.51297
  Beta  occ. eigenvalues --   -0.50754  -0.48714  -0.46921  -0.44904  -0.42412
  Beta virt. eigenvalues --    0.03873   0.04725   0.05580   0.05664   0.06857
  Beta virt. eigenvalues --    0.07408   0.08486   0.09043   0.09853   0.11878
  Beta virt. eigenvalues --    0.12845   0.13058   0.13699   0.14395   0.14665

 Mulliken charges and spin densities:
               1          2
     1  O   -0.239912   0.850364
     2  H    0.270682  -0.032164
     3  C   -1.871062  -0.958390
     4  H    0.208534   0.082755
     5  C    2.101303   1.151751
     6  C   -0.368621  -0.198519
     7  O   -0.332757   0.100331
     8  O   -0.056883   0.003226
     9  C   -0.158995  -0.003254
    10  C   -0.359571   0.003279
    11  H    0.170604   0.000436
    12  H    0.182785   0.000083
    13  H    0.134676   0.000235
    14  H    0.146634  -0.000096
    15  H    0.172583  -0.000037
 Sum of Mulliken charges =  -0.00000   1.00000

 Dipole moment (field-independent basis, Debye):
    X=             -2.4465    Y=             -1.2500    Z=              0.0890  Tot=              2.7487
 Quadrupole moment (field-independent basis, Debye-Ang):
   XX=            -43.8317   YY=            -48.8084   ZZ=            -47.6564
   XY=             -3.9773   XZ=              1.2793   YZ=             -0.0734

 \PMP3-0=-419.2834871\MP4SDQ=-419.2925143\CCSD=-419.3014122\CCSD(T)=-41
 Normal termination of Gaussian 16 at Sun Aug 24 17:29:32 2025.
