 Gaussian 16, Revision A.03,
 Gaussian 16:  ES64L-G16RevA.03 25-Dec-2016

 --------------------------
 # freq 6-311++g(d,p) m062x
 --------------------------

 -------------------
 Title Card Required
 -------------------
 Symbolic Z-matrix:
 Charge =  0 Multiplicity = 2

                         Standard orientation:
 ---------------------------------------------------------------------
 Center     Atomic      Atomic             Coordinates (Angstroms)
 Number     Number       Type             X           Y           Z
 ---------------------------------------------------------------------
      1          8           0        3.344934    0.787502    0.107708
      2          1           0        2.587588    1.364488   -0.089509
      3          6           0        2.408343   -0.985536    0.271597
      4          1           0        3.321200   -1.498006    0.477614
      5          6           0        1.231580   -0.746123    0.074766
      6          6           0       -0.011382   -0.045216   -0.206331
      7          8           0       -0.038521    1.141745   -0.403225
      8          8           0       -1.059653   -0.857440   -0.220845
      9          6           0       -2.341300   -0.241952   -0.478048
     10          6           0       -2.886712    0.419078    0.771996
     11          1           0       -2.968306   -1.069283   -0.804552
     12          1           0       -2.225853    0.473036   -1.293237
     13          1           0       -3.886521    0.808353    0.570883
     14          1           0       -2.954860   -0.303658    1.586285
     15          1           0       -2.250496    1.249111    1.079529
 ---------------------------------------------------------------------

 SCF Done:  E(UM062X) =  -420.205242316     A.U. after   24 cycles

 The electronic state is 2-A.
 Alpha  occ. eigenvalues --  -19.69593 -19.64859 -19.64548 -10.71921 -10.61548
 Alpha  occ. eigenvalues --  -10.60100 -10.58427 -10.54579  -1.27008  -1.17722
 Alpha  occ. eigenvalues --   -1.10840  -0.91865  -0.88395  -0.79173  -0.71850
 Alpha  occ. eigenvalues --   -0.65734  -0.62288  -0.59797  -0.57738  -0.54540
 Alpha  occ. eigenvalues --   -0.52639  -0.50448  -0.49223  -0.47757  -0.46182
 Alpha  occ. eigenvalues --   -0.43041  -0.41524  -0.40454  -0.39683  -0.37173
 Alpha  occ. eigenvalues --   -0.33463
 Alpha virt. eigenvalues --   -0.02604  -0.00491   0.00841   0.01396   0.01891
 Alpha virt. eigenvalues --    0.02498   0.03930   0.05005   0.05313   0.06118
 Alpha virt. eigenvalues --    0.06620   0.07287   0.07999   0.08828   0.09949

  Beta  occ. eigenvalues --  -19.69579 -19.64495 -19.63493 -10.71946 -10.61545
  Beta  occ. eigenvalues --  -10.60177 -10.58151 -10.54579  -1.26940  -1.17583
  Beta  occ. eigenvalues --   -1.05132  -0.91165  -0.87899  -0.79056  -0.71624
  Beta  occ. eigenvalues --   -0.65653  -0.61905  -0.59626  -0.57584  -0.54431
  Beta  occ. eigenvalues --   -0.50306  -0.50127  -0.47667  -0.46226  -0.42999
  Beta  occ. eigenvalues --   -0.41163  -0.39978  -0.39608  -0.37829  -0.35265
  Beta virt. eigenvalues --   -0.09293  -0.02556  -0.00475   0.01011   0.01388
  Beta virt. eigenvalues --    0.02022   0.02742   0.04235   0.05206   0.05705
  Beta virt. eigenvalues --    0.06580   0.06881   0.07403   0.08280   0.08969

 Mulliken charges and spin densities:
               1          2
     1  O   -0.290610   0.764793
     2  H    0.251844  -0.015947
     3  C   -1.831647  -0.090983
     4  H    0.199906   0.022734
     5  C    1.896903   0.326975
     6  C   -0.255142  -0.026085
     7  O   -0.255405   0.014933
     8  O    0.032172   0.003158
     9  C   -0.264984  -0.001265
    10  C   -0.403914   0.001372
    11  H    0.200590   0.000062
    12  H    0.199902   0.000306
    13  H    0.167488   0.000090
    14  H    0.168511  -0.000014
    15  H    0.184387  -0.000130
 Sum of Mulliken charges =  -0.00000   1.00000

 Dipole moment (field-independent basis, Debye):
    X=             -3.0423    Y=             -1.4804    Z=              0.0851  Tot=              3.3845
 Quadrupole moment (field-independent basis, Debye-Ang):
   XX=            -45.1732   YY=            -48.4613   ZZ=            -47.7115
   XY=             -5.1458   XZ=              1.2158   YZ=             -0.2108

  Exact polarizability: 107.292   6.913  71.734   3.032  -2.196  50.553
 Approx polarizability: 109.201   3.592  87.077   6.070  -4.551  58.508

 ******    1 imaginary frequencies (negative Signs) ******

                      1                      2                      3
                      A                      A                      A
 Frequencies --   -616.9851                28.0673                54.9504
 Red. masses --     11.6196                 6.9711                 6.5997
 Frc consts  --      2.6061                 0.0032                 0.0117
 IR Inten    --     92.9272                 0.3634                 0.0617

                      4                      5                      6
                      A                      A                      A
 Frequencies --     85.9188               119.1314               203.2636
 Red. masses --      3.4062                 3.4340                 1.9817
 Frc consts  --      0.0148                 0.0287                 0.0482
 IR Inten    --      3.4720                 1.4544                 5.0118

                      7                      8                      9
                      A                      A                      A
 Frequencies --    242.8274               269.4779               287.7334
 Red. masses --      1.9560                 3.5771                 1.0828
 Frc consts  --      0.0680                 0.1530                 0.0528
 IR Inten    --      3.7175                 0.2757               111.7854

                     10                     11                     12
                      A                      A                      A
 Frequencies --    340.5768               425.6685               555.0610
 Red. masses --      3.0415                 4.0489                 4.5907
 Frc consts  --      0.2079                 0.4322                 0.8333
 IR Inten    --     14.1758                 1.7305                 6.1653

                     13                     14                     15
                      A                      A                      A
 Frequencies --    622.0067               769.8812               781.5351
 Red. masses --      8.5790                 1.7132                 3.5814
 Frc consts  --      1.9556                 0.5983                 1.2888
 IR Inten    --     12.3782                 6.3827                53.5553

                     16                     17                     18
                      A                      A                      A
 Frequencies --    798.1370               802.4741               847.2701
 Red. masses --      1.1673                 1.1580                 1.0509
 Frc consts  --      0.4381                 0.4393                 0.4445
 IR Inten    --    128.0738                89.4906                14.3315

                     19                     20                     21
                      A                      A                      A
 Frequencies --    894.9168               932.0321              1074.1403
 Red. masses --      3.0489                 2.9120                 4.1277
 Frc consts  --      1.4387                 1.4904                 2.8060
 IR Inten    --     11.2668                 3.5733                24.8128

                     22                     23                     24
                      A                      A                      A
 Frequencies --   1127.9359              1204.0894              1303.9731
 Red. masses --      2.0731                 1.7682                 2.9314
 Frc consts  --      1.5540                 1.5104                 2.9367
 IR Inten    --     23.3435                 2.9181               641.9329

                     25                     26                     27
                      A                      A                      A
 Frequencies --   1350.4307              1403.3950              1432.3445
 Red. masses --      1.3227                 1.3035                 1.4018
 Frc consts  --      1.4212                 1.5126                 1.6945
 IR Inten    --    188.6042                50.4138                17.1111

                     28                     29                     30
                      A                      A                      A
 Frequencies --   1492.9532              1503.2854              1515.3976
 Red. masses --      1.0413                 1.0621                 1.0871
 Frc consts  --      1.3675                 1.4142                 1.4709
 IR Inten    --      9.6779                 3.4856                20.9630

                     31                     32                     33
                      A                      A                      A
 Frequencies --   1813.4487              2117.6138              3076.1564
 Red. masses --     11.7479                 6.3643                 1.0354
 Frc consts  --     22.7626                16.8150                 5.7728
 IR Inten    --    222.9264               103.6826                 9.2444

                     34                     35                     36
                      A                      A                      A
 Frequencies --   3109.6474              3151.7224              3156.2673
 Red. masses --      1.0608                 1.1013                 1.1049
 Frc consts  --      6.0437                 6.4456                 6.4854
 IR Inten    --     17.1893                14.0842                 1.3561

                     37                     38                     39
                      A                      A                      A
 Frequencies --   3177.3068              3454.4698              3773.8771
 Red. masses --      1.1076                 1.1477                 1.0679
 Frc consts  --      6.5880                 8.0692                 8.9610
 IR Inten    --     14.1218                71.0431                33.8535

 - Thermochemistry -
 -------------------
 Temperature   298.150 Kelvin.  Pressure   1.00000 Atm.
 Atom     1 has atomic number  8 and mass  15.99491

 Molecular mass:   115.03952 amu.
 Principal axes and moments of inertia in atomic units:
                           1         2         3
     Eigenvalues --   332.069971901.030282079.61183
           X            0.99993  -0.00992  -0.00586
           Y            0.01001   0.99983   0.01542
           Z            0.00570  -0.01548   0.99986
 This molecule is an asymmetric top.
 Rotational symmetry number  1.
 Rotational temperatures (Kelvin)      0.26083     0.04556     0.04165
 Rotational constants (GHZ):           5.43482     0.94935     0.86783
    1 imaginary frequencies ignored.
 Zero-point vibrational energy     294875.8 (Joules/Mol)
                                   70.47701 (Kcal/Mol)
 Warning -- explicit consideration of  11 degrees of freedom as
           vibrations may cause significant error
 Vibrational temperatures:     40.38    79.06   123.62   171.40   292.45
          (Kelvin)            349.37   387.72   413.98   490.01   612.44
                              798.61   894.93  1107.69  1124.45  1148.34
                             1154.58  1219.03  1287.59  1340.99  1545.45
                             1622.85  1732.42  1876.13  1942.97  2019.17
                             2060.82  2148.03  2162.89  2180.32  2609.15
                             3046.77  4425.90  4474.09  4534.63  4541.16
                             4571.44  4970.21  5429.77

 Zero-point correction=                           0.112312 (Hartree/Particle)
 Thermal correction to Energy=                    0.121864
 Thermal correction to Enthalpy=                  0.122809
 Thermal correction to Gibbs Free Energy=         0.075661
 Sum of electronic and zero-point Energies=           -420.092930
 Sum of electronic and thermal Energies=              -420.083378
 Sum of electronic and thermal Enthalpies=            -420.082434
 Sum of electronic and thermal Free Energies=         -420.129581

                     E (Thermal)             CV                S
                      KCal/Mol        Cal/Mol-Kelvin    Cal/Mol-Kelvin
 Total                   76.471             31.684             99.231
 Electronic               0.000              0.000              1.377
 Translational            0.889              2.981             40.136
 Rotational               0.889              2.981             28.664
 Vibrational             74.694             25.722             29.054
 Vibration     1          0.593              1.984              5.962
 Vibration     2          0.596              1.976              4.631
 Vibration     3          0.601              1.959              3.751
 Vibration     4          0.609              1.933              3.114
 Vibration     5          0.639              1.835              2.103
 Vibration     6          0.659              1.775              1.782
 Vibration     7          0.674              1.729              1.600
 Vibration     8          0.685              1.697              1.487
 Vibration     9          0.720              1.594              1.209
 Vibration    10          0.787              1.414              0.873
 Vibration    11          0.911              1.129              0.534

 Optimization completed.
    -- Stationary point found.

 1\1\GINC-AJ\Freq\UM062X\6-311++G(d,p)\C5H7O3(2)\AAYUSH\16-Aug-2025\0\\
 # freq 6-311++g(d,p) m062x\\Title Card Required\\0,2\O,3.27278243,0.79
 638132,0.12085517\H,2.51543643,1.37336732,-0.07636183\C,2.33619143,-0.
 97665668,0.28474417\H,3.24904843,-1.48912668,0.49076117\C,1.15942843,-
 0.73724368,0.08791317\C,-0.08353357,-0.03633668,-0.19318383\O,-0.11067
 257,1.15062432,-0.39007783\O,-1.13180457,-0.84856068,-0.20769783\C,-2.
 41345157,-0.23307268,-0.46490083\C,-2.95886357,0.42795732,0.78514317\H
 ,-3.04045757,-1.06040368,-0.79140483\H,-2.29800457,0.48191532,-1.28008

 Normal termination of Gaussian 16 at Sat Aug 16 17:27:37 2025.
