 Gaussian 16, Revision A.03,
 Gaussian 16:  ES64L-G16RevA.03 25-Dec-2016

 --------------------------
 # ccsd(t)/6-311++g(d,p) sp
 --------------------------

 -------------------
 Title Card Required
 -------------------
 Symbolic Z-matrix:
 Charge =  0 Multiplicity = 2

                         Standard orientation:
 ---------------------------------------------------------------------
 Center     Atomic      Atomic             Coordinates (Angstroms)
 Number     Number       Type             X           Y           Z
 ---------------------------------------------------------------------
      1          6           0        2.515832    1.235470   -0.678912
      2          1           0        3.144113    2.033974   -0.999720
      3          6           0        1.815360    0.331867   -0.317920
      4          6           0        1.036161   -0.815530    0.143107
      5          8           0        1.539712   -1.843820    0.468008
      6          8           0       -0.303488   -0.649548    0.188083
      7          6           0       -0.902336    0.573936   -0.186827
      8          6           0       -1.060750    1.526209    0.961270
      9          1           0       -0.477433    0.978590   -1.105031
     10          1           0       -2.221090    0.090776   -0.568573
     11          1           0       -1.574643    1.040206    1.791682
     12          1           0       -0.071365    1.854647    1.302638
     13          1           0       -1.630436    2.403812    0.654403
     14          8           0       -3.094489   -0.524484   -0.681772
     15          1           0       -2.728628   -1.370901   -0.394259
 ---------------------------------------------------------------------

 SCF Done:  E(UHF) =  -417.961465897     A.U. after   32 cycles
 E2 =    -0.1298548089D+01 EUMP2 =    -0.41926001398618D+03
 CCSD(T)= -0.41935443687D+03

 The electronic state is 2-A.
 Alpha  occ. eigenvalues --  -20.64115 -20.57992 -20.56127 -11.44001 -11.35009
 Alpha  occ. eigenvalues --  -11.29388 -11.28449 -11.25540  -1.50482  -1.41185
 Alpha  occ. eigenvalues --   -1.34066  -1.09518  -1.08269  -0.94378  -0.89882
 Alpha  occ. eigenvalues --   -0.78691  -0.75323  -0.73841  -0.69623  -0.68938
 Alpha  occ. eigenvalues --   -0.63307  -0.61048  -0.59417  -0.58530  -0.56024
 Alpha  occ. eigenvalues --   -0.50942  -0.50005  -0.49786  -0.45363  -0.44911
 Alpha  occ. eigenvalues --   -0.41688
 Alpha virt. eigenvalues --    0.02612   0.04460   0.05393   0.06268   0.06735
 Alpha virt. eigenvalues --    0.07729   0.08877   0.09158   0.10390   0.11486
 Alpha virt. eigenvalues --    0.12486   0.13020   0.14457   0.14978   0.15405

  Beta  occ. eigenvalues --  -20.64109 -20.58003 -20.54659 -11.43869 -11.32501
  Beta  occ. eigenvalues --  -11.29324 -11.28500 -11.25679  -1.50105  -1.40867
  Beta  occ. eigenvalues --   -1.29455  -1.09406  -1.04972  -0.93177  -0.88019
  Beta  occ. eigenvalues --   -0.77178  -0.74983  -0.70095  -0.68708  -0.65720
  Beta  occ. eigenvalues --   -0.61537  -0.60116  -0.57904  -0.56527  -0.53409
  Beta  occ. eigenvalues --   -0.50349  -0.49469  -0.48109  -0.45022  -0.44827
  Beta virt. eigenvalues --    0.02622   0.04271   0.05231   0.05663   0.06560
  Beta virt. eigenvalues --    0.06855   0.07798   0.08957   0.09379   0.10852
  Beta virt. eigenvalues --    0.11546   0.12618   0.13053   0.14520   0.15045

 Mulliken charges and spin densities:
               1          2
     1  C   -1.637810   0.004496
     2  H    0.234050  -0.002275
     3  C    1.869554  -0.036298
     4  C   -0.079641   0.048475
     5  O   -0.309701  -0.001517
     6  O   -0.114536  -0.059515
     7  C   -0.380314   0.955169
     8  C   -0.395393  -0.094423
     9  H    0.202288  -0.048009
    10  H    0.374144  -0.102848
    11  H    0.202390   0.011949
    12  H    0.139122   0.053846
    13  H    0.151862   0.004493
    14  O   -0.515535   0.275134
    15  H    0.259520  -0.008679
 Sum of Mulliken charges =  -0.00000   1.00000

 Dipole moment (field-independent basis, Debye):
    X=              2.4699    Y=              4.8354    Z=             -0.3277  Tot=              5.4396
 Quadrupole moment (field-independent basis, Debye-Ang):
   XX=            -58.2579   YY=            -46.4110   ZZ=            -47.8802
   XY=              8.1194   XZ=             -7.3576   YZ=              0.0349

 \PMP3-0=-419.2775749\MP4SDQ=-419.3018771\CCSD=-419.2991134\CCSD(T)=-41
 Normal termination of Gaussian 16 at Wed May  7 17:08:28 2025.
