 Gaussian 16, Revision A.03,
 Gaussian 16:  ES64L-G16RevA.03 25-Dec-2016

 --------------------------
 # ccsd(t)/6-311++g(d,p) sp
 --------------------------

 -------------------
 Title Card Required
 -------------------
 Symbolic Z-matrix:
 Charge =  0 Multiplicity = 2

                         Standard orientation:
 ---------------------------------------------------------------------
 Center     Atomic      Atomic             Coordinates (Angstroms)
 Number     Number       Type             X           Y           Z
 ---------------------------------------------------------------------
      1          6           0        2.515033    1.229937   -0.679923
      2          1           0        3.144342    2.027296   -1.000921
      3          6           0        1.813455    0.327545   -0.318262
      4          6           0        1.029580   -0.817713    0.144456
      5          8           0        1.535095   -1.847448    0.469030
      6          8           0       -0.304139   -0.654166    0.188050
      7          6           0       -0.912750    0.577256   -0.195138
      8          6           0       -1.055311    1.529795    0.962768
      9          1           0       -0.421038    1.000054   -1.073032
     10          1           0       -1.956326    0.265899   -0.543438
     11          1           0       -1.577575    1.041767    1.786693
     12          1           0       -0.073752    1.862053    1.310920
     13          1           0       -1.628770    2.404957    0.653273
     14          8           0       -3.119746   -0.537366   -0.685629
     15          1           0       -2.716600   -1.371111   -0.388509
 ---------------------------------------------------------------------

 SCF Done:  E(UHF) =  -417.965059599     A.U. after   36 cycles
 E2 =    -0.1275430217D+01 EUMP2 =    -0.41924048981520D+03
 CCSD(T)= -0.41934236845D+03

 The electronic state is 2-A.
 Alpha  occ. eigenvalues --  -20.64114 -20.62014 -20.56467 -11.42376 -11.30803
 Alpha  occ. eigenvalues --  -11.28055 -11.27273 -11.23447  -1.48531  -1.40621
 Alpha  occ. eigenvalues --   -1.39077  -1.08173  -1.05800  -0.92442  -0.88217
 Alpha  occ. eigenvalues --   -0.77052  -0.74565  -0.73311  -0.69271  -0.67803
 Alpha  occ. eigenvalues --   -0.66956  -0.61216  -0.59106  -0.56891  -0.56304
 Alpha  occ. eigenvalues --   -0.54461  -0.49905  -0.48487  -0.45650  -0.43728
 Alpha  occ. eigenvalues --   -0.43408
 Alpha virt. eigenvalues --    0.03153   0.04736   0.05686   0.06148   0.07350
 Alpha virt. eigenvalues --    0.08172   0.08983   0.09495   0.10362   0.12026
 Alpha virt. eigenvalues --    0.12833   0.13423   0.14940   0.15678   0.15739

  Beta  occ. eigenvalues --  -20.62053 -20.60189 -20.56473 -11.42352 -11.30022
  Beta  occ. eigenvalues --  -11.28032 -11.27294 -11.23491  -1.48486  -1.39189
  Beta  occ. eigenvalues --   -1.26020  -1.08151  -1.04705  -0.92064  -0.87557
  Beta  occ. eigenvalues --   -0.76222  -0.73788  -0.69735  -0.67287  -0.66062
  Beta  occ. eigenvalues --   -0.62286  -0.58976  -0.56265  -0.54952  -0.52089
  Beta  occ. eigenvalues --   -0.50779  -0.48701  -0.46800  -0.43767  -0.43522
  Beta virt. eigenvalues --    0.03155   0.04407   0.05298   0.05911   0.07146
  Beta virt. eigenvalues --    0.07460   0.08236   0.09278   0.09533   0.10927
  Beta virt. eigenvalues --    0.12039   0.12846   0.13610   0.15079   0.15698

 Mulliken charges and spin densities:
               1          2
     1  C   -1.705726   0.008880
     2  H    0.228036  -0.000921
     3  C    1.901875  -0.014278
     4  C   -0.047158   0.008165
     5  O   -0.331861  -0.000926
     6  O   -0.154725  -0.013002
     7  C   -0.387788   0.250353
     8  C   -0.404028  -0.015505
     9  H    0.166349  -0.011366
    10  H    0.272367  -0.100264
    11  H    0.177550   0.003293
    12  H    0.126911   0.010048
    13  H    0.136762   0.001024
    14  O   -0.249415   0.905979
    15  H    0.270852  -0.031481
 Sum of Mulliken charges =  -0.00000   1.00000

 Dipole moment (field-independent basis, Debye):
    X=             -0.0180    Y=              3.6775    Z=             -0.9509  Tot=              3.7985
 Quadrupole moment (field-independent basis, Debye-Ang):
   XX=            -49.5388   YY=            -47.2617   ZZ=            -48.1629
   XY=             11.3444   XZ=             -5.0567   YZ=              0.5060

 PMP3-0=-419.2665786\MP4SDQ=-419.2893501\CCSD=-419.2884617\CCSD(T)=-419
 Normal termination of Gaussian 16 at Wed May  7 06:39:04 2025.
