 Gaussian 16, Revision A.03,
 Gaussian 16:  ES64L-G16RevA.03 25-Dec-2016

 --------------------------
 # ccsd(t)/6-311++g(d,p) sp
 --------------------------

 -------------------
 Title Card Required
 -------------------
 Symbolic Z-matrix:
 Charge =  0 Multiplicity = 2

                         Standard orientation:
 ---------------------------------------------------------------------
 Center     Atomic      Atomic             Coordinates (Angstroms)
 Number     Number       Type             X           Y           Z
 ---------------------------------------------------------------------
      1          6           0        2.515537    1.235617   -0.678699
      2          1           0        3.143775    2.034191   -0.999395
      3          6           0        1.815133    0.331927   -0.317812
      4          6           0        1.035818   -0.815490    0.143146
      5          8           0        1.539629   -1.843838    0.467965
      6          8           0       -0.303403   -0.649976    0.188020
      7          6           0       -0.904436    0.573368   -0.187651
      8          6           0       -1.060858    1.526119    0.961385
      9          1           0       -0.474419    0.979887   -1.102978
     10          1           0       -2.196640    0.103655   -0.564170
     11          1           0       -1.575163    1.039842    1.791312
     12          1           0       -0.071904    1.854748    1.302886
     13          1           0       -1.630912    2.403478    0.654393
     14          8           0       -3.095629   -0.525443   -0.682263
     15          1           0       -2.726674   -1.370996   -0.394039
 ---------------------------------------------------------------------

 SCF Done:  E(UHF) =  -417.957473107     A.U. after   32 cycles
 E2 =    -0.1299240232D+01 EUMP2 =    -0.41925671333902D+03
 CCSD(T)= -0.41935176027D+03

 The electronic state is 2-A.
 Alpha  occ. eigenvalues --  -20.64048 -20.57942 -20.56656 -11.43950 -11.35085
 Alpha  occ. eigenvalues --  -11.29356 -11.28420 -11.25495  -1.50422  -1.41121
 Alpha  occ. eigenvalues --   -1.34158  -1.09487  -1.08233  -0.94339  -0.89855
 Alpha  occ. eigenvalues --   -0.78648  -0.75295  -0.73831  -0.69554  -0.68835
 Alpha  occ. eigenvalues --   -0.63302  -0.60995  -0.59626  -0.58479  -0.55997
 Alpha  occ. eigenvalues --   -0.50914  -0.50144  -0.49906  -0.45341  -0.44881
 Alpha  occ. eigenvalues --   -0.41913
 Alpha virt. eigenvalues --    0.02626   0.04471   0.05410   0.06290   0.06731
 Alpha virt. eigenvalues --    0.07740   0.08884   0.09159   0.10395   0.11503
 Alpha virt. eigenvalues --    0.12496   0.13033   0.14473   0.15000   0.15418

  Beta  occ. eigenvalues --  -20.64047 -20.57952 -20.54931 -11.43826 -11.32661
  Beta  occ. eigenvalues --  -11.29294 -11.28469 -11.25627  -1.50067  -1.40815
  Beta  occ. eigenvalues --   -1.28718  -1.09377  -1.05026  -0.93168  -0.88054
  Beta  occ. eigenvalues --   -0.77193  -0.74966  -0.70076  -0.68684  -0.65283
  Beta  occ. eigenvalues --   -0.61507  -0.60123  -0.57866  -0.56440  -0.52859
  Beta  occ. eigenvalues --   -0.50241  -0.49283  -0.48104  -0.44992  -0.44795
  Beta virt. eigenvalues --    0.02635   0.04216   0.05124   0.05577   0.06539
  Beta virt. eigenvalues --    0.06846   0.07794   0.08964   0.09377   0.10829
  Beta virt. eigenvalues --    0.11557   0.12617   0.13061   0.14540   0.15066

 Mulliken charges and spin densities:
               1          2
     1  C   -1.639684   0.004915
     2  H    0.233932  -0.002183
     3  C    1.869599  -0.035073
     4  C   -0.078099   0.045551
     5  O   -0.310516  -0.001326
     6  O   -0.117323  -0.057030
     7  C   -0.378807   0.917306
     8  C   -0.395928  -0.088970
     9  H    0.201898  -0.045144
    10  H    0.363751  -0.127119
    11  H    0.201847   0.011459
    12  H    0.138836   0.051034
    13  H    0.151573   0.004223
    14  O   -0.500587   0.332989
    15  H    0.259508  -0.010631
 Sum of Mulliken charges =  -0.00000   1.00000

 Dipole moment (field-independent basis, Debye):
    X=              2.4001    Y=              4.8035    Z=             -0.3393  Tot=              5.3804
 Quadrupole moment (field-independent basis, Debye-Ang):
   XX=            -57.9784   YY=            -46.4243   ZZ=            -47.8994
   XY=              8.2500   XZ=             -7.2984   YZ=              0.0621

 3-0=-419.2747389\MP4SDQ=-419.2988739\CCSD=-419.2962188\CCSD(T)=-419.35
 Normal termination of Gaussian 16 at Wed May  7 22:02:26 2025.
