 Gaussian 16, Revision A.03,
 Gaussian 16:  ES64L-G16RevA.03 25-Dec-2016

 --------------------------
 # freq 6-311++g(d,p) m062x
 --------------------------

 -------------------
 Title Card Required
 -------------------
 Symbolic Z-matrix:
 Charge =  0 Multiplicity = 2

                         Standard orientation:
 ---------------------------------------------------------------------
 Center     Atomic      Atomic             Coordinates (Angstroms)
 Number     Number       Type             X           Y           Z
 ---------------------------------------------------------------------
      1          6           0        2.514468    1.235327   -0.678103
      2          1           0        3.142713    2.033957   -0.998435
      3          6           0        1.814119    0.331520   -0.317506
      4          6           0        1.033827   -0.815691    0.143405
      5          8           0        1.538694   -1.844452    0.467923
      6          8           0       -0.303283   -0.651919    0.187789
      7          6           0       -0.912269    0.571933   -0.191165
      8          6           0       -1.060662    1.526150    0.961840
      9          1           0       -0.459318    0.986027   -1.093089
     10          1           0       -2.075993    0.173909   -0.544933
     11          1           0       -1.577273    1.038786    1.789503
     12          1           0       -0.074274    1.855928    1.304681
     13          1           0       -1.632340    2.402471    0.654129
     14          8           0       -3.102964   -0.530434   -0.684444
     15          1           0       -2.719990   -1.372068   -0.392828
 ---------------------------------------------------------------------

 SCF Done:  E(UM062X) =  -420.193894198     A.U. after   20 cycles

 The electronic state is 2-A.
 Alpha  occ. eigenvalues --  -19.70335 -19.64534 -19.64420 -10.72461 -10.64507
 Alpha  occ. eigenvalues --  -10.59245 -10.58762 -10.56137  -1.27192  -1.18749
 Alpha  occ. eigenvalues --   -1.11890  -0.90956  -0.90278  -0.79274  -0.75292
 Alpha  occ. eigenvalues --   -0.66451  -0.63149  -0.61384  -0.58698  -0.56685
 Alpha  occ. eigenvalues --   -0.52990  -0.51586  -0.49948  -0.48956  -0.46405
 Alpha  occ. eigenvalues --   -0.41466  -0.41261  -0.40346  -0.38983  -0.38186
 Alpha  occ. eigenvalues --   -0.33713
 Alpha virt. eigenvalues --   -0.03554  -0.01132   0.00486   0.01154   0.01332
 Alpha virt. eigenvalues --    0.02647   0.03294   0.04337   0.05221   0.05944
 Alpha virt. eigenvalues --    0.06515   0.07333   0.08318   0.09083   0.09795

  Beta  occ. eigenvalues --  -19.70306 -19.64525 -19.63385 -10.72434 -10.63956
  Beta  occ. eigenvalues --  -10.59240 -10.58762 -10.56144  -1.27015  -1.18584
  Beta  occ. eigenvalues --   -1.08008  -0.90807  -0.89200  -0.78751  -0.74807
  Beta  occ. eigenvalues --   -0.65621  -0.63005  -0.59020  -0.58280  -0.54963
  Beta  occ. eigenvalues --   -0.51558  -0.51089  -0.48784  -0.47376  -0.43652
  Beta  occ. eigenvalues --   -0.41232  -0.40271  -0.38885  -0.38116  -0.37877
  Beta virt. eigenvalues --   -0.11094  -0.03457  -0.01100   0.00584   0.01227
  Beta virt. eigenvalues --    0.01494   0.02719   0.03378   0.04509   0.05283
  Beta virt. eigenvalues --    0.06062   0.06633   0.07418   0.08441   0.09117

 Mulliken charges and spin densities:
               1          2
     1  C   -1.290905   0.021728
     2  H    0.205725   0.000098
     3  C    1.512875  -0.017671
     4  C   -0.204031   0.007822
     5  O   -0.232588   0.005304
     6  O   -0.049248  -0.012070
     7  C   -0.509748   0.517024
     8  C   -0.373483  -0.016381
     9  H    0.210595  -0.008924
    10  H    0.337557  -0.053024
    11  H    0.213185   0.005826
    12  H    0.150073   0.030477
    13  H    0.176856   0.001034
    14  O   -0.405289   0.527507
    15  H    0.258427  -0.008747
 Sum of Mulliken charges =  -0.00000   1.00000

 Dipole moment (field-independent basis, Debye):
    X=              1.8074    Y=              4.1784    Z=             -0.2908  Tot=              4.5618
 Quadrupole moment (field-independent basis, Debye-Ang):
   XX=            -55.4912   YY=            -46.0009   ZZ=            -47.9428
   XY=              8.1715   XZ=             -6.4519   YZ=              0.2268

  Exact polarizability:  97.502  13.493  80.383   1.833  -3.436  54.344
 Approx polarizability:  98.376  15.313  99.321   0.542 -10.560  63.699

 ******    1 imaginary frequencies (negative Signs) ******

                      1                      2                      3
                      A                      A                      A
 Frequencies --  -1802.6865                62.2300                71.7516
 Red. masses --      1.0757                 4.9382                 5.6772
 Frc consts  --      2.0596                 0.0113                 0.0172
 IR Inten    --   1189.0422                 0.3039                 1.8906

                      4                      5                      6
                      A                      A                      A
 Frequencies --    128.3905               142.8329               185.9967
 Red. masses --      4.4652                 4.5105                 2.0768
 Frc consts  --      0.0434                 0.0542                 0.0423
 IR Inten    --      1.4402                 6.2456                 1.2430

                      7                      8                      9
                      A                      A                      A
 Frequencies --    204.5884               232.9225               257.0269
 Red. masses --      1.2835                 1.1539                 4.4975
 Frc consts  --      0.0317                 0.0369                 0.1751
 IR Inten    --      1.7524                99.7696                 1.3066

                     10                     11                     12
                      A                      A                      A
 Frequencies --    304.4215               411.4574               531.7130
 Red. masses --      4.9513                 3.3794                 6.2958
 Frc consts  --      0.2703                 0.3371                 1.0487
 IR Inten    --      2.4930                11.3710                 1.3266

                     13                     14                     15
                      A                      A                      A
 Frequencies --    597.6891               662.9999               738.5300
 Red. masses --      4.3247                 3.8703                 1.3164
 Frc consts  --      0.9102                 1.0024                 0.4230
 IR Inten    --     16.9209                 5.4694                37.6738

                     16                     17                     18
                      A                      A                      A
 Frequencies --    753.8344               758.4687               778.0093
 Red. masses --      3.4590                11.5478                 1.2847
 Frc consts  --      1.1581                 3.9140                 0.4582
 IR Inten    --     27.4897                23.7148                38.3903

                     19                     20                     21
                      A                      A                      A
 Frequencies --    830.5829               851.8516               966.2977
 Red. masses --      1.1221                 1.2921                 2.4720
 Frc consts  --      0.4561                 0.5524                 1.3599
 IR Inten    --     27.3280               170.8575                22.8596

                     22                     23                     24
                      A                      A                      A
 Frequencies --   1104.6555              1137.1404              1148.9473
 Red. masses --      1.8440                 2.4585                 2.3747
 Frc consts  --      1.3258                 1.8731                 1.8470
 IR Inten    --     63.5643                52.3629                70.4365

                     25                     26                     27
                      A                      A                      A
 Frequencies --   1226.5100              1246.5066              1369.5761
 Red. masses --      1.2806                 6.1762                 1.2039
 Frc consts  --      1.1350                 5.6540                 1.3305
 IR Inten    --     20.9798               645.0580                 7.9885

                     28                     29                     30
                      A                      A                      A
 Frequencies --   1412.3108              1479.8932              1480.9324
 Red. masses --      1.3208                 1.0436                 1.0439
 Frc consts  --      1.5523                 1.3466                 1.3488
 IR Inten    --     35.4681                 3.4858                 1.8114

                     31                     32                     33
                      A                      A                      A
 Frequencies --   1549.5761              1876.7926              2254.4893
 Red. masses --      1.0556                12.9957                 5.7228
 Frc consts  --      1.4934                26.9701                17.1377
 IR Inten    --     36.2169               481.9887                67.3548

                     34                     35                     36
                      A                      A                      A
 Frequencies --   3055.3065              3127.4097              3136.0379
 Red. masses --      1.0401                 1.0869                 1.0943
 Frc consts  --      5.7203                 6.2631                 6.3409
 IR Inten    --      1.9871                 7.0185                 3.9813

                     37                     38                     39
                      A                      A                      A
 Frequencies --   3165.6543              3485.5379              3819.2137
 Red. masses --      1.1029                 1.1706                 1.0666
 Frc consts  --      6.5120                 8.3792                 9.1663
 IR Inten    --      4.9930                66.4711                60.0929

 - Thermochemistry -
 -------------------
 Temperature   298.150 Kelvin.  Pressure   1.00000 Atm.
 Atom     1 has atomic number  6 and mass  12.00000

 Molecular mass:   115.03952 amu.
 Principal axes and moments of inertia in atomic units:
                           1         2         3
     Eigenvalues --   643.599531464.114851836.64814
           X            0.99981   0.01472  -0.01290
           Y           -0.01433   0.99944   0.03030
           Z            0.01333  -0.03011   0.99946
 This molecule is an asymmetric top.
 Rotational symmetry number  1.
 Warning -- assumption of classical behavior for rotation
           may cause significant error
 Rotational temperatures (Kelvin)      0.13458     0.05916     0.04716
 Rotational constants (GHZ):           2.80414     1.23265     0.98263
    1 imaginary frequencies ignored.
 Zero-point vibrational energy     278419.4 (Joules/Mol)
                                   66.54383 (Kcal/Mol)
 Warning -- explicit consideration of  12 degrees of freedom as
           vibrations may cause significant error
 Vibrational temperatures:     89.54   103.23   184.73   205.50   267.61
          (Kelvin)            294.36   335.12   369.80   437.99   592.00
                              765.02   859.94   953.91  1062.58  1084.60
                             1091.27  1119.38  1195.02  1225.62  1390.29
                             1589.35  1636.09  1653.08  1764.67  1793.44
                             1970.51  2032.00  2129.24  2130.73  2229.49
                             2700.29  3243.71  4395.90  4499.64  4512.06
                             4554.67  5014.91  5495.00

 Zero-point correction=                           0.106044 (Hartree/Particle)
 Thermal correction to Energy=                    0.115813
 Thermal correction to Enthalpy=                  0.116758
 Thermal correction to Gibbs Free Energy=         0.070179
 Sum of electronic and zero-point Energies=           -420.087850
 Sum of electronic and thermal Energies=              -420.078081
 Sum of electronic and thermal Enthalpies=            -420.077137
 Sum of electronic and thermal Free Energies=         -420.123715

                     E (Thermal)             CV                S
                      KCal/Mol        Cal/Mol-Kelvin    Cal/Mol-Kelvin
 Total                   72.674             33.279             98.032
 Electronic               0.000              0.000              1.377
 Translational            0.889              2.981             40.136
 Rotational               0.889              2.981             28.939
 Vibrational             70.897             27.318             27.581
 Vibration     1          0.597              1.972              4.385
 Vibration     2          0.598              1.967              4.105
 Vibration     3          0.611              1.925              2.970
 Vibration     4          0.616              1.910              2.766
 Vibration     5          0.632              1.859              2.267
 Vibration     6          0.640              1.833              2.091
 Vibration     7          0.654              1.791              1.856
 Vibration     8          0.667              1.751              1.682
 Vibration     9          0.695              1.665              1.392
 Vibration    10          0.775              1.445              0.921
 Vibration    11          0.887              1.180              0.583
 Vibration    12          0.956              1.037              0.454

 1\1\GINC-AJ\Freq\UM062X\6-311++G(d,p)\C5H7O3(2)\AAYUSH\29-Mar-2025\0\\
 # freq 6-311++g(d,p) m062x\\Title Card Required\\0,2\C,2.468683,1.2947
 17,-0.672412\H,3.09745,2.092816,-0.993042\C,1.767743,0.391502,-0.31147
 8\C,0.986701,-0.755027,0.149859\O,1.490894,-1.784005,0.474738\O,-0.350
 299,-0.590356,0.194207\C,-0.958483,0.633762,-0.185177\C,-1.106226,1.58
 8491,0.967487\H,-0.505275,1.047232,-1.087258\H,-2.122476,0.23638,-0.53
 8782\H,-1.623144,1.101767,1.795334\H,-0.119614,1.917741,1.310193\H,-1.
 67733,2.465079,0.659471\O,-3.149915,-0.467335,-0.678022\H,-2.767492,-1

 Normal termination of Gaussian 16 at Sat Mar 29 04:17:59 2025.
