 Gaussian 16, Revision A.03,
 Gaussian 16:  ES64L-G16RevA.03 25-Dec-2016

 --------------------------
 # freq 6-311++g(d,p) m062x
 --------------------------

 -------------------
 Title Card Required
 -------------------
 Symbolic Z-matrix:
 Charge =  0 Multiplicity = 2

                         Standard orientation:
 ---------------------------------------------------------------------
 Center     Atomic      Atomic             Coordinates (Angstroms)
 Number     Number       Type             X           Y           Z
 ---------------------------------------------------------------------
      1          6           0        2.516083    1.225982   -0.681592
      2          1           0        3.146254    2.022304   -1.003361
      3          6           0        1.813559    0.324725   -0.318904
      4          6           0        1.027668   -0.819182    0.145124
      5          8           0        1.532800   -1.849287    0.470029
      6          8           0       -0.305185   -0.654340    0.188238
      7          6           0       -0.908460    0.582110   -0.196305
      8          6           0       -1.051495    1.532657    0.963341
      9          1           0       -0.400687    1.007184   -1.063786
     10          1           0       -1.934134    0.291394   -0.554330
     11          1           0       -1.576662    1.044508    1.785419
     12          1           0       -0.071619    1.865468    1.314567
     13          1           0       -1.624870    2.407752    0.652968
     14          8           0       -3.128327   -0.539796   -0.685259
     15          1           0       -2.716722   -1.368969   -0.385521
 ---------------------------------------------------------------------

 SCF Done:  E(UM062X) =  -420.192603344     A.U. after   22 cycles

 The electronic state is 2-A.
 Alpha  occ. eigenvalues --  -19.69378 -19.67869 -19.63771 -10.71706 -10.62424
 Alpha  occ. eigenvalues --  -10.58617 -10.58181 -10.55098  -1.26279  -1.17823
 Alpha  occ. eigenvalues --   -1.14204  -0.90298  -0.89608  -0.78361  -0.74656
 Alpha  occ. eigenvalues --   -0.65768  -0.62623  -0.60990  -0.57822  -0.56560
 Alpha  occ. eigenvalues --   -0.54492  -0.50637  -0.50182  -0.48057  -0.45806
 Alpha  occ. eigenvalues --   -0.43197  -0.41142  -0.40608  -0.38466  -0.37995
 Alpha  occ. eigenvalues --   -0.36626
 Alpha virt. eigenvalues --   -0.02913  -0.00879   0.00415   0.01234   0.01480
 Alpha virt. eigenvalues --    0.02898   0.03525   0.04393   0.05419   0.06008
 Alpha virt. eigenvalues --    0.06703   0.07471   0.08569   0.09384   0.09942

  Beta  occ. eigenvalues --  -19.69379 -19.66423 -19.63769 -10.71697 -10.62151
  Beta  occ. eigenvalues --  -10.58615 -10.58181 -10.55102  -1.26221  -1.17737
  Beta  occ. eigenvalues --   -1.07863  -0.90208  -0.89007  -0.78091  -0.74383
  Beta  occ. eigenvalues --   -0.65227  -0.62471  -0.59001  -0.57622  -0.54789
  Beta  occ. eigenvalues --   -0.52332  -0.50394  -0.48137  -0.46744  -0.43036
  Beta  occ. eigenvalues --   -0.40608  -0.39962  -0.39427  -0.38246  -0.37208
  Beta virt. eigenvalues --   -0.11220  -0.02882  -0.00843   0.00610   0.01377
  Beta virt. eigenvalues --    0.01539   0.02959   0.03620   0.04544   0.05466
  Beta virt. eigenvalues --    0.06111   0.06770   0.07600   0.08692   0.09414

 Mulliken charges and spin densities:
               1          2
     1  C   -1.310323   0.016297
     2  H    0.202982   0.000042
     3  C    1.515824  -0.010097
     4  C   -0.190627  -0.001396
     5  O   -0.243953   0.001817
     6  O   -0.062812  -0.003786
     7  C   -0.503855   0.219537
     8  C   -0.379584   0.001113
     9  H    0.192550  -0.001437
    10  H    0.287264  -0.038125
    11  H    0.200909   0.001417
    12  H    0.145284   0.011312
    13  H    0.169522   0.000027
    14  O   -0.286503   0.820607
    15  H    0.263321  -0.017327
 Sum of Mulliken charges =  -0.00000   1.00000

 Dipole moment (field-independent basis, Debye):
    X=              0.6423    Y=              3.6907    Z=             -0.6235  Tot=              3.7977
 Quadrupole moment (field-independent basis, Debye-Ang):
   XX=            -51.5896   YY=            -46.4957   ZZ=            -48.0560
   XY=              9.5420   XZ=             -5.3618   YZ=              0.3734

  Exact polarizability:  93.685  12.352  79.373   0.754  -4.066  53.838
 Approx polarizability:  92.039  12.733  96.852  -1.364 -11.615  62.761

 ******    3 imaginary frequencies (negative Signs) ******

                      1                      2                      3
                      A                      A                      A
 Frequencies --   -450.3699               -77.7920               -17.5379
 Red. masses --      2.3316                 4.1746                 5.9453
 Frc consts  --      0.2786                 0.0149                 0.0011
 IR Inten    --    257.4078                 0.4138                17.2049

                      4                      5                      6
                      A                      A                      A
 Frequencies --     57.8399                82.2803               155.0988
 Red. masses --      3.0345                 5.6820                 3.2263
 Frc consts  --      0.0060                 0.0227                 0.0457
 IR Inten    --      0.8303                 4.1144                 2.1788

                      7                      8                      9
                      A                      A                      A
 Frequencies --    219.2077               226.0277               259.3435
 Red. masses --      1.1396                 1.1497                 4.6897
 Frc consts  --      0.0323                 0.0346                 0.1858
 IR Inten    --      5.3991               102.5210                 0.6109

                     10                     11                     12
                      A                      A                      A
 Frequencies --    317.1728               401.3809               551.9036
 Red. masses --      3.3406                 3.4151                 5.2731
 Frc consts  --      0.1980                 0.3242                 0.9463
 IR Inten    --      9.1727                 8.8656                 4.2356

                     13                     14                     15
                      A                      A                      A
 Frequencies --    615.3833               687.7496               735.7606
 Red. masses --      3.5964                 1.5287                 1.3225
 Frc consts  --      0.8024                 0.4260                 0.4218
 IR Inten    --      5.4863               155.2154                34.4910

                     16                     17                     18
                      A                      A                      A
 Frequencies --    763.6624               769.5568               776.6637
 Red. masses --     11.0139                 2.0149                 1.2879
 Frc consts  --      3.7844                 0.7031                 0.4577
 IR Inten    --     23.4346                48.2172                41.9250

                     19                     20                     21
                      A                      A                      A
 Frequencies --    787.9726               962.2745              1113.0189
 Red. masses --      1.6602                 2.2472                 3.1473
 Frc consts  --      0.6073                 1.2260                 2.2972
 IR Inten    --      4.0651                26.2672                50.0012

                     22                     23                     24
                      A                      A                      A
 Frequencies --   1126.1081              1162.4551              1248.4419
 Red. masses --      2.0910                 2.2356                 3.5334
 Frc consts  --      1.5623                 1.7799                 3.2447
 IR Inten    --     73.2203                43.8921               430.5133

                     25                     26                     27
                      A                      A                      A
 Frequencies --   1298.8388              1373.4973              1415.8331
 Red. masses --      1.4089                 1.2182                 1.3016
 Frc consts  --      1.4003                 1.3541                 1.5373
 IR Inten    --    408.7198                 9.1864                35.9810

                     28                     29                     30
                      A                      A                      A
 Frequencies --   1448.7775              1485.9947              1496.1390
 Red. masses --      1.1304                 1.0391                 1.0548
 Frc consts  --      1.3979                 1.3519                 1.3911
 IR Inten    --    120.3587                 7.5135                11.4112

                     31                     32                     33
                      A                      A                      A
 Frequencies --   1870.5287              2092.9607              2253.8714
 Red. masses --     11.6365                 1.1392                 5.7208
 Frc consts  --     23.9885                 2.9403                17.1224
 IR Inten    --    511.7765              1235.1805                56.3848

                     34                     35                     36
                      A                      A                      A
 Frequencies --   3067.1373              3118.1313              3143.6124
 Red. masses --      1.0358                 1.0847                 1.1015
 Frc consts  --      5.7412                 6.2138                 6.4133
 IR Inten    --      5.5589                 7.5238                 8.3201

                     37                     38                     39
                      A                      A                      A
 Frequencies --   3159.5849              3486.7198              3776.6518
 Red. masses --      1.1026                 1.1703                 1.0669
 Frc consts  --      6.4854                 8.3829                 8.9661
 IR Inten    --      8.0676                64.3519                42.1283

 - Thermochemistry -
 -------------------
 Temperature   298.150 Kelvin.  Pressure   1.00000 Atm.
 Atom     1 has atomic number  6 and mass  12.00000

 Molecular mass:   115.03952 amu.
 Principal axes and moments of inertia in atomic units:
                           1         2         3
     Eigenvalues --   646.661161469.032801843.60674
           X            0.99981   0.01391  -0.01334
           Y           -0.01351   0.99946   0.02986
           Z            0.01375  -0.02968   0.99946
 This molecule is an asymmetric top.
 Rotational symmetry number  1.
 Warning -- assumption of classical behavior for rotation
           may cause significant error
 Rotational temperatures (Kelvin)      0.13394     0.05896     0.04698
 Rotational constants (GHZ):           2.79086     1.22852     0.97892
    3 imaginary frequencies ignored.
 Zero-point vibrational energy     284158.4 (Joules/Mol)
                                   67.91550 (Kcal/Mol)
 Warning -- explicit consideration of  10 degrees of freedom as
           vibrations may cause significant error
 Vibrational temperatures:     83.22   118.38   223.15   315.39   325.20
          (Kelvin)            373.14   456.34   577.50   794.07   885.40
                              989.52  1058.60  1098.74  1107.22  1117.45
                             1133.72  1384.50  1601.39  1620.22  1672.51
                             1796.23  1868.74  1976.16  2037.07  2084.47
                             2138.01  2152.61  2691.27  3011.30  3242.82
                             4412.93  4486.30  4522.96  4545.94  5016.61
                             5433.76

 Zero-point correction=                           0.108230 (Hartree/Particle)
 Thermal correction to Energy=                    0.116586
 Thermal correction to Enthalpy=                  0.117530
 Thermal correction to Gibbs Free Energy=         0.073750
 Sum of electronic and zero-point Energies=           -420.084373
 Sum of electronic and thermal Energies=              -420.076018
 Sum of electronic and thermal Enthalpies=            -420.075073
 Sum of electronic and thermal Free Energies=         -420.118854

                     E (Thermal)             CV                S
                      KCal/Mol        Cal/Mol-Kelvin    Cal/Mol-Kelvin
 Total                   73.159             28.783             92.144
 Electronic               0.000              0.000              1.377
 Translational            0.889              2.981             40.136
 Rotational               0.889              2.981             28.950
 Vibrational             71.381             22.822             21.680
 Vibration     1          0.596              1.974              4.530
 Vibration     2          0.600              1.961              3.836
 Vibration     3          0.620              1.897              2.609
 Vibration     4          0.647              1.812              1.966
 Vibration     5          0.650              1.801              1.910
 Vibration     6          0.668              1.747              1.666
 Vibration     7          0.704              1.641              1.325
 Vibration     8          0.767              1.467              0.958
 Vibration     9          0.907              1.136              0.540
 Vibration    10          0.975              0.999              0.424

 1\1\GINC-AJ\Freq\UM062X\6-311++G(d,p)\C5H7O3(2)\AAYUSH\29-Mar-2025\0\\
 # freq 6-311++g(d,p) m062x\\Title Card Required\\0,2\C,2.46897,1.29458
 8,-0.672347\H,3.097625,2.092642,-0.992788\C,1.768162,0.391395,-0.31115
 8\C,0.984447,-0.754753,0.151016\O,1.491578,-1.784228,0.474801\O,-0.348
 766,-0.592745,0.19374\C,-0.954443,0.642948,-0.189458\C,-1.099982,1.591
 675,0.971366\H,-0.447165,1.070215,-1.056151\H,-1.979347,0.350565,-0.54
 8329\H,-1.624501,1.101357,1.792566\H,-0.12096,1.926067,1.323472\H,-1.6
 75039,2.46598,0.661878\O,-3.171746,-0.482939,-0.680888\H,-2.758549,-1.

 Normal termination of Gaussian 16 at Sat Mar 29 03:59:37 2025.
