 Gaussian 16, Revision A.03,
 Gaussian 16:  ES64L-G16RevA.03 25-Dec-2016

 --------------------------
 # ccsd(t)/6-311++g(d,p) sp
 --------------------------

 -------------------
 Title Card Required
 -------------------
 Symbolic Z-matrix:
 Charge =  0 Multiplicity = 2

                         Standard orientation:
 ---------------------------------------------------------------------
 Center     Atomic      Atomic             Coordinates (Angstroms)
 Number     Number       Type             X           Y           Z
 ---------------------------------------------------------------------
      1          6           0        2.518841    1.216867   -0.685243
      2          1           0        3.151085    2.010743   -1.008903
      3          6           0        1.814161    0.318239   -0.320132
      4          6           0        1.023855   -0.822532    0.146585
      5          8           0        1.527452   -1.853332    0.472548
      6          8           0       -0.307952   -0.653415    0.188274
      7          6           0       -0.897346    0.593274   -0.198867
      8          6           0       -1.043237    1.539202    0.964602
      9          1           0       -0.359580    1.021487   -1.046156
     10          1           0       -1.901406    0.332091   -0.581384
     11          1           0       -1.574653    1.050584    1.782451
     12          1           0       -0.066023    1.871370    1.322528
     13          1           0       -1.614911    2.415159    0.652841
     14          8           0       -3.146374   -0.544340   -0.683907
     15          1           0       -2.717156   -1.363046   -0.378366
 ---------------------------------------------------------------------

 SCF Done:  E(UHF) =  -417.972757715     A.U. after   36 cycles
 E2 =    -0.1270618608D+01 EUMP2 =    -0.41924337632318D+03
 CCSD(T)= -0.41934432533D+03

 The electronic state is 2-A.
 Alpha  occ. eigenvalues --  -20.64407 -20.62008 -20.56397 -11.42319 -11.30334
 Alpha  occ. eigenvalues --  -11.27975 -11.27234 -11.23366  -1.48421  -1.40576
 Alpha  occ. eigenvalues --   -1.38982  -1.08101  -1.05738  -0.92233  -0.88193
 Alpha  occ. eigenvalues --   -0.76868  -0.74263  -0.73017  -0.69395  -0.67777
 Alpha  occ. eigenvalues --   -0.66921  -0.61520  -0.58999  -0.57104  -0.56221
 Alpha  occ. eigenvalues --   -0.54475  -0.50145  -0.48651  -0.46402  -0.43685
 Alpha  occ. eigenvalues --   -0.43375
 Alpha virt. eigenvalues --    0.03167   0.04739   0.05687   0.06134   0.07399
 Alpha virt. eigenvalues --    0.08196   0.09001   0.09471   0.10349   0.12058
 Alpha virt. eigenvalues --    0.12852   0.13476   0.14912   0.15710   0.15776

  Beta  occ. eigenvalues --  -20.62039 -20.60372 -20.56402 -11.42305 -11.29815
  Beta  occ. eigenvalues --  -11.27956 -11.27251 -11.23395  -1.48400  -1.39076
  Beta  occ. eigenvalues --   -1.25340  -1.08090  -1.04967  -0.91961  -0.87715
  Beta  occ. eigenvalues --   -0.76300  -0.73768  -0.69869  -0.67231  -0.65790
  Beta  occ. eigenvalues --   -0.62715  -0.58911  -0.56236  -0.54963  -0.52133
  Beta  occ. eigenvalues --   -0.50951  -0.48761  -0.46974  -0.43705  -0.43425
  Beta virt. eigenvalues --    0.03170   0.04506   0.05343   0.05900   0.07270
  Beta virt. eigenvalues --    0.07608   0.08278   0.09315   0.09552   0.10887
  Beta virt. eigenvalues --    0.12070   0.12866   0.13699   0.15059   0.15734

 Mulliken charges and spin densities:
               1          2
     1  C   -1.709433   0.009172
     2  H    0.227593  -0.000765
     3  C    1.897468  -0.011408
     4  C   -0.039805   0.004196
     5  O   -0.334284  -0.000889
     6  O   -0.154295  -0.005930
     7  C   -0.387829   0.157404
     8  C   -0.402554  -0.005030
     9  H    0.161704  -0.006086
    10  H    0.264806  -0.066199
    11  H    0.175600   0.001998
    12  H    0.127183   0.005643
    13  H    0.135264   0.000497
    14  O   -0.231844   0.950852
    15  H    0.270427  -0.033456
 Sum of Mulliken charges =  -0.00000   1.00000

 Dipole moment (field-independent basis, Debye):
    X=             -0.0945    Y=              3.6642    Z=             -0.9895  Tot=              3.7966
 Quadrupole moment (field-independent basis, Debye-Ang):
   XX=            -49.2968   YY=            -47.3870   ZZ=            -48.1792
   XY=             11.3920   XZ=             -4.9796   YZ=              0.4930

 2\PMP3-0=-419.2699923\MP4SDQ=-419.2925976\CCSD=-419.291145\CCSD(T)=-41
 Normal termination of Gaussian 16 at Wed May  7 18:49:23 2025.
