 Gaussian 16, Revision A.03,
 Gaussian 16:  ES64L-G16RevA.03 25-Dec-2016

 --------------------------
 # ccsd(t)/6-311++g(d,p) sp
 --------------------------

 -------------------
 Title Card Required
 -------------------
 Symbolic Z-matrix:
 Charge =  0 Multiplicity = 2

                         Standard orientation:
 ---------------------------------------------------------------------
 Center     Atomic      Atomic             Coordinates (Angstroms)
 Number     Number       Type             X           Y           Z
 ---------------------------------------------------------------------
      1          6           0        2.514645    1.231805   -0.678824
      2          1           0        3.143786    2.029488   -0.999349
      3          6           0        1.813466    0.328855   -0.317804
      4          6           0        1.030508   -0.817093    0.144060
      5          8           0        1.536103   -1.846689    0.468359
      6          8           0       -0.303745   -0.653961    0.187811
      7          6           0       -0.914302    0.575202   -0.194475
      8          6           0       -1.057105    1.528366    0.962733
      9          1           0       -0.430668    0.996738   -1.077413
     10          1           0       -1.970295    0.251771   -0.539642
     11          1           0       -1.578073    1.040380    1.787433
     12          1           0       -0.074610    1.860103    1.309514
     13          1           0       -1.630288    2.403772    0.653703
     14          8           0       -3.115662   -0.536005   -0.685946
     15          1           0       -2.716690   -1.371831   -0.390174
 ---------------------------------------------------------------------

 SCF Done:  E(UHF) =  -417.962942235     A.U. after   36 cycles
 E2 =    -0.1276953001D+01 EUMP2 =    -0.41923989523522D+03
 CCSD(T)= -0.41934199611D+03

 The electronic state is 2-A.
 Alpha  occ. eigenvalues --  -20.63972 -20.62048 -20.56509 -11.42413 -11.31007
 Alpha  occ. eigenvalues --  -11.28091 -11.27300 -11.23497  -1.48579  -1.40559
 Alpha  occ. eigenvalues --   -1.39117  -1.08208  -1.05834  -0.92503  -0.88242
 Alpha  occ. eigenvalues --   -0.77092  -0.74624  -0.73378  -0.69203  -0.67815
 Alpha  occ. eigenvalues --   -0.66947  -0.61161  -0.59153  -0.56784  -0.56346
 Alpha  occ. eigenvalues --   -0.54486  -0.49889  -0.48476  -0.45435  -0.43755
 Alpha  occ. eigenvalues --   -0.43407
 Alpha virt. eigenvalues --    0.03142   0.04736   0.05686   0.06154   0.07326
 Alpha virt. eigenvalues --    0.08161   0.08979   0.09491   0.10364   0.12013
 Alpha virt. eigenvalues --    0.12823   0.13408   0.14936   0.15661   0.15728

  Beta  occ. eigenvalues --  -20.62089 -20.60091 -20.56515 -11.42385 -11.30144
  Beta  occ. eigenvalues --  -11.28066 -11.27322 -11.23546  -1.48526  -1.39241
  Beta  occ. eigenvalues --   -1.26175  -1.08184  -1.04643  -0.92094  -0.87530
  Beta  occ. eigenvalues --   -0.76219  -0.73810  -0.69702  -0.67321  -0.66085
  Beta  occ. eigenvalues --   -0.62167  -0.59010  -0.56304  -0.54966  -0.52027
  Beta  occ. eigenvalues --   -0.50747  -0.48705  -0.46765  -0.43799  -0.43559
  Beta virt. eigenvalues --    0.03144   0.04380   0.05280   0.05905   0.07096
  Beta virt. eigenvalues --    0.07418   0.08217   0.09267   0.09527   0.10926
  Beta virt. eigenvalues --    0.12027   0.12838   0.13582   0.15071   0.15683

 Mulliken charges and spin densities:
               1          2
     1  C   -1.703291   0.008845
     2  H    0.228207  -0.000979
     3  C    1.901582  -0.015294
     4  C   -0.048928   0.009556
     5  O   -0.331042  -0.000949
     6  O   -0.153439  -0.015345
     7  C   -0.388338   0.281193
     8  C   -0.403360  -0.018916
     9  H    0.168169  -0.013023
    10  H    0.272625  -0.111660
    11  H    0.178345   0.003709
    12  H    0.126966   0.011549
    13  H    0.137274   0.001179
    14  O   -0.255638   0.890959
    15  H    0.270869  -0.030824
 Sum of Mulliken charges =  -0.00000   1.00000

 Dipole moment (field-independent basis, Debye):
    X=              0.0398    Y=              3.6972    Z=             -0.9327  Tot=              3.8133
 Quadrupole moment (field-independent basis, Debye-Ang):
   XX=            -49.7206   YY=            -47.2276   ZZ=            -48.1560
   XY=             11.2875   XZ=             -5.1097   YZ=              0.5016

 \PMP3-0=-419.2658166\MP4SDQ=-419.2886178\CCSD=-419.2878736\CCSD(T)=-41
 Normal termination of Gaussian 16 at Wed May  7 21:17:31 2025.
