 Gaussian 16, Revision A.03,
 Gaussian 16:  ES64L-G16RevA.03 25-Dec-2016

 --------------------------
 # ccsd(t)/6-311++g(d,p) sp
 --------------------------

 -------------------
 Title Card Required
 -------------------
 Symbolic Z-matrix:
 Charge =  0 Multiplicity = 2

                         Standard orientation:
 ---------------------------------------------------------------------
 Center     Atomic      Atomic             Coordinates (Angstroms)
 Number     Number       Type             X           Y           Z
 ---------------------------------------------------------------------
      1          6           0        2.514468    1.235327   -0.678103
      2          1           0        3.142713    2.033957   -0.998435
      3          6           0        1.814119    0.331520   -0.317506
      4          6           0        1.033827   -0.815691    0.143405
      5          8           0        1.538694   -1.844452    0.467923
      6          8           0       -0.303283   -0.651919    0.187789
      7          6           0       -0.912269    0.571933   -0.191165
      8          6           0       -1.060662    1.526150    0.961840
      9          1           0       -0.459318    0.986027   -1.093089
     10          1           0       -2.075993    0.173909   -0.544933
     11          1           0       -1.577273    1.038786    1.789503
     12          1           0       -0.074274    1.855928    1.304681
     13          1           0       -1.632340    2.402471    0.654129
     14          8           0       -3.102964   -0.530434   -0.684444
     15          1           0       -2.719990   -1.372068   -0.392828
 ---------------------------------------------------------------------

 SCF Done:  E(UHF) =  -417.949861460     A.U. after   33 cycles
 E2 =    -0.1290742944D+01 EUMP2 =    -0.41924060440342D+03
 CCSD(T)= -0.41934189894D+03

 The electronic state is 2-A.
 Alpha  occ. eigenvalues --  -20.62856 -20.61405 -20.57124 -11.43054 -11.33366
 Alpha  occ. eigenvalues --  -11.28645 -11.27778 -11.24354  -1.49351  -1.40182
 Alpha  occ. eigenvalues --   -1.37920  -1.08757  -1.06813  -0.93287  -0.88884
 Alpha  occ. eigenvalues --   -0.77611  -0.74792  -0.73837  -0.68786  -0.68403
 Alpha  occ. eigenvalues --   -0.65324  -0.61052  -0.59927  -0.57353  -0.55212
 Alpha  occ. eigenvalues --   -0.54193  -0.50277  -0.49011  -0.44834  -0.44226
 Alpha  occ. eigenvalues --   -0.42956
 Alpha virt. eigenvalues --    0.02928   0.04671   0.05636   0.06304   0.06958
 Alpha virt. eigenvalues --    0.07985   0.08943   0.09328   0.10386   0.11801
 Alpha virt. eigenvalues --    0.12670   0.13243   0.14755   0.15383   0.15600

  Beta  occ. eigenvalues --  -20.62895 -20.58188 -20.57132 -11.42985 -11.31705
  Beta  occ. eigenvalues --  -11.28602 -11.27814 -11.24447  -1.49184  -1.39936
  Beta  occ. eigenvalues --   -1.26933  -1.08701  -1.04645  -0.92543  -0.87663
  Beta  occ. eigenvalues --   -0.76591  -0.74289  -0.69698  -0.67905  -0.65499
  Beta  occ. eigenvalues --   -0.61538  -0.59576  -0.56995  -0.55487  -0.51002
  Beta  occ. eigenvalues --   -0.50442  -0.49203  -0.47087  -0.44316  -0.44101
  Beta virt. eigenvalues --    0.02931   0.04114   0.05044   0.05742   0.06749
  Beta virt. eigenvalues --    0.07020   0.08001   0.09171   0.09413   0.10842
  Beta virt. eigenvalues --    0.11831   0.12721   0.13308   0.14854   0.15435

 Mulliken charges and spin densities:
               1          2
     1  C   -1.671399   0.007962
     2  H    0.230821  -0.001600
     3  C    1.886480  -0.025829
     4  C   -0.063698   0.025551
     5  O   -0.321924  -0.001154
     6  O   -0.135664  -0.037987
     7  C   -0.384475   0.597933
     8  C   -0.396809  -0.052852
     9  H    0.186237  -0.028614
    10  H    0.285516  -0.200325
    11  H    0.189267   0.007707
    12  H    0.131043   0.028776
    13  H    0.143797   0.002662
    14  O   -0.346411   0.701172
    15  H    0.267219  -0.023404
 Sum of Mulliken charges =  -0.00000   1.00000

 Dipole moment (field-independent basis, Debye):
    X=              1.0411    Y=              4.1419    Z=             -0.6676  Tot=              4.3226
 Quadrupole moment (field-independent basis, Debye-Ang):
   XX=            -53.1094   YY=            -46.8296   ZZ=            -48.0546
   XY=             10.1111   XZ=             -6.0575   YZ=              0.3452

 \PMP3-0=-419.264341\MP4SDQ=-419.2870938\CCSD=-419.286343\CCSD(T)=-419.
 Normal termination of Gaussian 16 at Wed May  7 22:51:05 2025.
