 Gaussian 16, Revision A.03,
 Gaussian 16:  ES64L-G16RevA.03 25-Dec-2016

 --------------------------
 # ccsd(t)/6-311++g(d,p) sp
 --------------------------

 -------------------
 Title Card Required
 -------------------
 Symbolic Z-matrix:
 Charge =  0 Multiplicity = 2

                         Standard orientation:
 ---------------------------------------------------------------------
 Center     Atomic      Atomic             Coordinates (Angstroms)
 Number     Number       Type             X           Y           Z
 ---------------------------------------------------------------------
      1          6           0        2.515030    1.235708   -0.678365
      2          1           0        3.143223    2.034365   -0.998875
      3          6           0        1.814704    0.331906   -0.317644
      4          6           0        1.035089   -0.815493    0.143231
      5          8           0        1.539360   -1.843982    0.467910
      6          8           0       -0.303307   -0.650774    0.187908
      7          6           0       -0.908002    0.572522   -0.189125
      8          6           0       -1.060950    1.526018    0.961580
      9          1           0       -0.468679    0.982295   -1.099104
     10          1           0       -2.147956    0.130842   -0.555931
     11          1           0       -1.576100    1.039251    1.790591
     12          1           0       -0.072940    1.855067    1.303485
     13          1           0       -1.631680    2.402937    0.654329
     14          8           0       -3.098254   -0.527415   -0.683188
     15          1           0       -2.723488   -1.371357   -0.393598
 ---------------------------------------------------------------------

 SCF Done:  E(UHF) =  -417.951125151     A.U. after   33 cycles
 E2 =    -0.1298375617D+01 EUMP2 =    -0.41924950076818D+03
 CCSD(T)= -0.41934667051D+03

 The electronic state is 2-A.
 Alpha  occ. eigenvalues --  -20.63723 -20.58244 -20.57718 -11.43707 -11.34850
 Alpha  occ. eigenvalues --  -11.29173 -11.28254 -11.25205  -1.50133  -1.40849
 Alpha  occ. eigenvalues --   -1.35134  -1.09298  -1.07899  -0.94072  -0.89618
 Alpha  occ. eigenvalues --   -0.78370  -0.75132  -0.73824  -0.69238  -0.68737
 Alpha  occ. eigenvalues --   -0.63575  -0.60717  -0.60299  -0.58195  -0.55819
 Alpha  occ. eigenvalues --   -0.51373  -0.50738  -0.49684  -0.45203  -0.44711
 Alpha  occ. eigenvalues --   -0.42409
 Alpha virt. eigenvalues --    0.02705   0.04531   0.05482   0.06373   0.06723
 Alpha virt. eigenvalues --    0.07804   0.08912   0.09181   0.10400   0.11585
 Alpha virt. eigenvalues --    0.12540   0.13091   0.14550   0.15103   0.15475

  Beta  occ. eigenvalues --  -20.63737 -20.57727 -20.55912 -11.43602 -11.32658
  Beta  occ. eigenvalues --  -11.29118 -11.28299 -11.25324  -1.49842  -1.40578
  Beta  occ. eigenvalues --   -1.27602  -1.09204  -1.04989  -0.93023  -0.87999
  Beta  occ. eigenvalues --   -0.77078  -0.74804  -0.69969  -0.68495  -0.64925
  Beta  occ. eigenvalues --   -0.61448  -0.60036  -0.57649  -0.56159  -0.51886
  Beta  occ. eigenvalues --   -0.49899  -0.48776  -0.48323  -0.44820  -0.44618
  Beta virt. eigenvalues --    0.02712   0.04087   0.04958   0.05576   0.06600
  Beta virt. eigenvalues --    0.06838   0.07835   0.09024   0.09377   0.10809
  Beta virt. eigenvalues --    0.11628   0.12634   0.13119   0.14627   0.15165

 Mulliken charges and spin densities:
               1          2
     1  C   -1.648027   0.006129
     2  H    0.233158  -0.001986
     3  C    1.873083  -0.032249
     4  C   -0.073565   0.038583
     5  O   -0.313751  -0.001152
     6  O   -0.123724  -0.051261
     7  C   -0.376761   0.817593
     8  C   -0.396636  -0.076569
     9  H    0.198282  -0.039116
    10  H    0.332336  -0.177666
    11  H    0.198677   0.010279
    12  H    0.136780   0.043592
    13  H    0.149647   0.003657
    14  O   -0.450853   0.475683
    15  H    0.261354  -0.015516
 Sum of Mulliken charges =  -0.00000   1.00000

 Dipole moment (field-independent basis, Debye):
    X=              2.0403    Y=              4.6274    Z=             -0.4198  Tot=              5.0746
 Quadrupole moment (field-independent basis, Debye-Ang):
   XX=            -56.6453   YY=            -46.5144   ZZ=            -47.9485
   XY=              8.7914   XZ=             -6.9771   YZ=              0.1524

 5\PMP3-0=-419.2695037\MP4SDQ=-419.2929841\CCSD=-419.2908675\CCSD(T)=-4
 Normal termination of Gaussian 16 at Wed May  7 20:25:20 2025.
