 Gaussian 16, Revision A.03,
 Gaussian 16:  ES64L-G16RevA.03 25-Dec-2016

 --------------------------
 # freq 6-311++g(d,p) m062x
 --------------------------

 -------------------
 Title Card Required
 -------------------
 Symbolic Z-matrix:
 Charge =  0 Multiplicity = 2

                         Standard orientation:
 ---------------------------------------------------------------------
 Center     Atomic      Atomic             Coordinates (Angstroms)
 Number     Number       Type             X           Y           Z
 ---------------------------------------------------------------------
      1          6           0        2.515270    1.235696   -0.678517
      2          1           0        3.143478    2.034321   -0.999114
      3          6           0        1.814915    0.331939   -0.317720
      4          6           0        1.035463   -0.815478    0.143186
      5          8           0        1.539512   -1.843893    0.467933
      6          8           0       -0.303345   -0.650381    0.187962
      7          6           0       -0.906306    0.572899   -0.188407
      8          6           0       -1.060928    1.526053    0.961486
      9          1           0       -0.471547    0.981104   -1.101030
     10          1           0       -2.172248    0.117057   -0.559954
     11          1           0       -1.575648    1.039522    1.790950
     12          1           0       -0.072433    1.854887    1.303170
     13          1           0       -1.631327    2.403186    0.654368
     14          8           0       -3.096888   -0.526423   -0.682735
     15          1           0       -2.724982   -1.371158   -0.393822
 ---------------------------------------------------------------------

 SCF Done:  E(UM062X) =  -420.201237505     A.U. after   19 cycles

 The electronic state is 2-A.
 Alpha  occ. eigenvalues --  -19.70723 -19.64820 -19.62746 -10.72742 -10.64847
 Alpha  occ. eigenvalues --  -10.59450 -10.58961 -10.56482  -1.27528  -1.19095
 Alpha  occ. eigenvalues --   -1.11525  -0.91149  -0.90458  -0.79535  -0.75490
 Alpha  occ. eigenvalues --   -0.66674  -0.63324  -0.61386  -0.59045  -0.57070
 Alpha  occ. eigenvalues --   -0.52901  -0.51925  -0.49697  -0.49018  -0.46570
 Alpha  occ. eigenvalues --   -0.41684  -0.41507  -0.39281  -0.39203  -0.38385
 Alpha  occ. eigenvalues --   -0.32084
 Alpha virt. eigenvalues --   -0.03784  -0.01225   0.00456   0.01070   0.01354
 Alpha virt. eigenvalues --    0.02568   0.03231   0.04324   0.05140   0.05927
 Alpha virt. eigenvalues --    0.06468   0.07293   0.08240   0.08975   0.09751

  Beta  occ. eigenvalues --  -19.70677 -19.64808 -19.62046 -10.72703 -10.64130
  Beta  occ. eigenvalues --  -10.59442 -10.58960 -10.56493  -1.27277  -1.18875
  Beta  occ. eigenvalues --   -1.08864  -0.90996  -0.89093  -0.78876  -0.74871
  Beta  occ. eigenvalues --   -0.65646  -0.63169  -0.59040  -0.58476  -0.55577
  Beta  occ. eigenvalues --   -0.51739  -0.51250  -0.48985  -0.47572  -0.44236
  Beta  occ. eigenvalues --   -0.41463  -0.40808  -0.39099  -0.38215  -0.37850
  Beta virt. eigenvalues --   -0.10018  -0.03632  -0.01190   0.00545   0.01132
  Beta virt. eigenvalues --    0.01499   0.02632   0.03311   0.04501   0.05216
  Beta virt. eigenvalues --    0.06017   0.06602   0.07352   0.08358   0.08997

 Mulliken charges and spin densities:
               1          2
     1  C   -1.284731   0.020592
     2  H    0.206564   0.000112
     3  C    1.510610  -0.022314
     4  C   -0.207836   0.017251
     5  O   -0.228395   0.007039
     6  O   -0.043254  -0.020948
     7  C   -0.504174   0.711946
     8  C   -0.369647  -0.030926
     9  H    0.215105  -0.015273
    10  H    0.357157  -0.045680
    11  H    0.217498   0.008352
    12  H    0.152120   0.042789
    13  H    0.179284   0.001927
    14  O   -0.459855   0.328029
    15  H    0.259557  -0.002896
 Sum of Mulliken charges =  -0.00000   1.00000

 Dipole moment (field-independent basis, Debye):
    X=              2.2233    Y=              4.3421    Z=             -0.1828  Tot=              4.8817
 Quadrupole moment (field-independent basis, Debye-Ang):
   XX=            -56.9848   YY=            -45.8462   ZZ=            -47.8848
   XY=              7.6195   XZ=             -6.8427   YZ=              0.1485

  Exact polarizability:  92.431  10.952  79.482   0.376  -3.998  54.092
 Approx polarizability:  94.540  13.399  98.773  -0.483 -10.965  63.574

 ******    1 imaginary frequencies (negative Signs) ******

                      1                      2                      3
                      A                      A                      A
 Frequencies --  -1215.0645                37.1947                70.0370
 Red. masses --      1.1493                 5.1372                 5.5149
 Frc consts  --      0.9997                 0.0042                 0.0159
 IR Inten    --    277.7953                 0.4292                 1.6126

                      4                      5                      6
                      A                      A                      A
 Frequencies --    127.0247               146.5888               182.2460
 Red. masses --      4.3534                 4.7046                 1.3751
 Frc consts  --      0.0414                 0.0596                 0.0269
 IR Inten    --      0.8558                 4.7864                 0.5978

                      7                      8                      9
                      A                      A                      A
 Frequencies --    197.5215               248.1909               257.6940
 Red. masses --      1.9976                 1.3167                 2.7598
 Frc consts  --      0.0459                 0.0478                 0.1080
 IR Inten    --      1.7300                80.3209                16.4672

                     10                     11                     12
                      A                      A                      A
 Frequencies --    313.0873               415.1329               532.0481
 Red. masses --      5.4156                 3.4145                 6.3321
 Frc consts  --      0.3128                 0.3467                 1.0561
 IR Inten    --      1.0736                10.8598                 7.5060

                     13                     14                     15
                      A                      A                      A
 Frequencies --    616.4209               653.6543               738.7375
 Red. masses --      3.9781                 2.5416                 1.3066
 Frc consts  --      0.8906                 0.6398                 0.4201
 IR Inten    --      4.9596                 0.3887                39.5043

                     16                     17                     18
                      A                      A                      A
 Frequencies --    744.3019               756.0525               778.7824
 Red. masses --      2.0742                12.0282                 1.2847
 Frc consts  --      0.6770                 4.0509                 0.4591
 IR Inten    --     38.3375                23.4846                37.3905

                     19                     20                     21
                      A                      A                      A
 Frequencies --    807.0609               837.4587               966.0581
 Red. masses --      1.6342                 1.2446                 2.2565
 Frc consts  --      0.6271                 0.5143                 1.2408
 IR Inten    --     56.0289                19.7088                18.6232

                     22                     23                     24
                      A                      A                      A
 Frequencies --   1034.1262              1115.9743              1142.9381
 Red. masses --      1.1461                 2.9478                 3.2972
 Frc consts  --      0.7221                 2.1630                 2.5377
 IR Inten    --     57.1575                27.9534               121.6629

                     25                     26                     27
                      A                      A                      A
 Frequencies --   1185.2441              1236.9707              1368.6956
 Red. masses --      1.6561                 7.5361                 1.2067
 Frc consts  --      1.3707                 6.7938                 1.3318
 IR Inten    --     11.4916               694.2036                 5.2147

                     28                     29                     30
                      A                      A                      A
 Frequencies --   1410.8247              1475.1893              1478.0783
 Red. masses --      1.3200                 1.0412                 1.0499
 Frc consts  --      1.5480                 1.3350                 1.3515
 IR Inten    --     33.4361                 4.5045                 1.6031

                     31                     32                     33
                      A                      A                      A
 Frequencies --   1651.5795              1878.3175              2254.4203
 Red. masses --      1.0447                12.9195                 5.7226
 Frc consts  --      1.6789                26.8555                17.1360
 IR Inten    --     65.4618               475.9272                68.1526

                     34                     35                     36
                      A                      A                      A
 Frequencies --   3044.8096              3129.0071              3137.9264
 Red. masses --      1.0433                 1.0903                 1.0871
 Frc consts  --      5.6986                 6.2895                 6.3065
 IR Inten    --      1.4586                 4.1889                 6.5154

                     37                     38                     39
                      A                      A                      A
 Frequencies --   3166.7364              3485.0816              3847.2317
 Red. masses --      1.1026                 1.1707                 1.0658
 Frc consts  --      6.5147                 8.3775                 9.2948
 IR Inten    --      4.6771                66.5712                55.0871

 - Thermochemistry -
 -------------------
 Temperature   298.150 Kelvin.  Pressure   1.00000 Atm.
 Atom     1 has atomic number  6 and mass  12.00000

 Molecular mass:   115.03952 amu.
 Principal axes and moments of inertia in atomic units:
                           1         2         3
     Eigenvalues --   643.087781463.636761835.72801
           X            0.99981   0.01517  -0.01257
           Y           -0.01478   0.99942   0.03056
           Z            0.01302  -0.03037   0.99945
 This molecule is an asymmetric top.
 Rotational symmetry number  1.
 Warning -- assumption of classical behavior for rotation
           may cause significant error
 Rotational temperatures (Kelvin)      0.13468     0.05918     0.04718
 Rotational constants (GHZ):           2.80637     1.23305     0.98312
    1 imaginary frequencies ignored.
 Zero-point vibrational energy     277943.0 (Joules/Mol)
                                   66.42998 (Kcal/Mol)
 Warning -- explicit consideration of  12 degrees of freedom as
           vibrations may cause significant error
 Vibrational temperatures:     53.51   100.77   182.76   210.91   262.21
          (Kelvin)            284.19   357.09   370.76   450.46   597.28
                              765.50   886.89   940.46  1062.88  1070.88
                             1087.79  1120.49  1161.18  1204.92  1389.94
                             1487.88  1605.64  1644.43  1705.30  1779.72
                             1969.25  2029.86  2122.47  2126.63  2376.25
                             2702.48  3243.61  4380.80  4501.94  4514.78
                             4556.23  5014.26  5535.31

 Zero-point correction=                           0.105863 (Hartree/Particle)
 Thermal correction to Energy=                    0.115684
 Thermal correction to Enthalpy=                  0.116628
 Thermal correction to Gibbs Free Energy=         0.069569
 Sum of electronic and zero-point Energies=           -420.095375
 Sum of electronic and thermal Energies=              -420.085553
 Sum of electronic and thermal Enthalpies=            -420.084609
 Sum of electronic and thermal Free Energies=         -420.131668

                     E (Thermal)             CV                S
                      KCal/Mol        Cal/Mol-Kelvin    Cal/Mol-Kelvin
 Total                   72.593             33.412             99.044
 Electronic               0.000              0.000              1.377
 Translational            0.889              2.981             40.136
 Rotational               0.889              2.981             28.937
 Vibrational             70.815             27.450             28.594
 Vibration     1          0.594              1.982              5.403
 Vibration     2          0.598              1.968              4.152
 Vibration     3          0.611              1.926              2.991
 Vibration     4          0.617              1.906              2.716
 Vibration     5          0.630              1.864              2.305
 Vibration     6          0.637              1.843              2.156
 Vibration     7          0.662              1.766              1.743
 Vibration     8          0.667              1.750              1.677
 Vibration     9          0.701              1.649              1.346
 Vibration    10          0.779              1.437              0.909
 Vibration    11          0.887              1.179              0.583
 Vibration    12          0.976              0.997              0.422

 1\1\GINC-AJ\Freq\UM062X\6-311++G(d,p)\C5H7O3(2)\AAYUSH\29-Mar-2025\0\\
 # freq 6-311++g(d,p) m062x\\Title Card Required\\0,2\C,2.468645,1.2947
 18,-0.672404\H,3.097412,2.092862,-0.993102\C,1.767657,0.391498,-0.3114
 91\C,0.987401,-0.755305,0.149585\O,1.490747,-1.78394,0.474724\O,-0.351
 313,-0.589364,0.194047\C,-0.95344,0.634183,-0.182789\C,-1.107699,1.587
 759,0.966803\H,-0.518246,1.041859,-1.09544\H,-2.21959,0.179021,-0.5544
 59\H,-1.622886,1.101782,1.796303\H,-0.119069,1.916076,1.308591\H,-1.67
 7493,2.465158,0.659323\O,-3.144605,-0.46392,-0.677242\H,-2.773281,-1.3

 Normal termination of Gaussian 16 at Sat Mar 29 04:27:01 2025.
