 Gaussian 16, Revision A.03,
 Gaussian 16:  ES64L-G16RevA.03 25-Dec-2016

 --------------------------
 # ccsd(t)/6-311++g(d,p) sp
 --------------------------

 -------------------
 Title Card Required
 -------------------
 Symbolic Z-matrix:
 Charge =  0 Multiplicity = 2

                         Standard orientation:
 ---------------------------------------------------------------------
 Center     Atomic      Atomic             Coordinates (Angstroms)
 Number     Number       Type             X           Y           Z
 ---------------------------------------------------------------------
      1          6           0        2.519628    1.214443   -0.686150
      2          1           0        3.152432    2.007661   -1.010318
      3          6           0        1.814391    0.316506   -0.320397
      4          6           0        1.022907   -0.823409    0.146956
      5          8           0        1.525990   -1.854390    0.473254
      6          8           0       -0.308707   -0.652958    0.188187
      7          6           0       -0.894334    0.596220   -0.199602
      8          6           0       -1.041152    1.540906    0.964920
      9          1           0       -0.349557    1.025017   -1.041974
     10          1           0       -1.894031    0.341036   -0.588411
     11          1           0       -1.574221    1.052110    1.781596
     12          1           0       -0.064492    1.872558    1.324621
     13          1           0       -1.612115    2.417286    0.652925
     14          8           0       -3.150958   -0.545442   -0.683489
     15          1           0       -2.717262   -1.361341   -0.376420
 ---------------------------------------------------------------------

 SCF Done:  E(UHF) =  -417.973650455     A.U. after   36 cycles
 E2 =    -0.1270135610D+01 EUMP2 =    -0.41924378606537D+03
 CCSD(T)= -0.41934462424D+03

 The electronic state is 2-A.
 Alpha  occ. eigenvalues --  -20.64421 -20.62018 -20.56398 -11.42320 -11.30306
 Alpha  occ. eigenvalues --  -11.27970 -11.27235 -11.23366  -1.48413  -1.40547
 Alpha  occ. eigenvalues --   -1.38979  -1.08099  -1.05732  -0.92210  -0.88197
 Alpha  occ. eigenvalues --   -0.76845  -0.74223  -0.72969  -0.69393  -0.67775
 Alpha  occ. eigenvalues --   -0.66915  -0.61564  -0.58993  -0.57110  -0.56222
 Alpha  occ. eigenvalues --   -0.54488  -0.50196  -0.48677  -0.46479  -0.43685
 Alpha  occ. eigenvalues --   -0.43371
 Alpha virt. eigenvalues --    0.03166   0.04740   0.05688   0.06133   0.07401
 Alpha virt. eigenvalues --    0.08197   0.09004   0.09465   0.10347   0.12061
 Alpha virt. eigenvalues --    0.12852   0.13483   0.14905   0.15709   0.15781

  Beta  occ. eigenvalues --  -20.62048 -20.60378 -20.56403 -11.42307 -11.29814
  Beta  occ. eigenvalues --  -11.27952 -11.27251 -11.23394  -1.48395  -1.39072
  Beta  occ. eigenvalues --   -1.25250  -1.08088  -1.04997  -0.91950  -0.87739
  Beta  occ. eigenvalues --   -0.76314  -0.73770  -0.69886  -0.67231  -0.65736
  Beta  occ. eigenvalues --   -0.62763  -0.58909  -0.56244  -0.54971  -0.52123
  Beta  occ. eigenvalues --   -0.50977  -0.48774  -0.46999  -0.43704  -0.43417
  Beta virt. eigenvalues --    0.03169   0.04518   0.05347   0.05895   0.07278
  Beta virt. eigenvalues --    0.07625   0.08280   0.09317   0.09557   0.10878
  Beta virt. eigenvalues --    0.12073   0.12867   0.13708   0.15053   0.15735

 Mulliken charges and spin densities:
               1          2
     1  C   -1.709393   0.009227
     2  H    0.227559  -0.000749
     3  C    1.896344  -0.011126
     4  C   -0.038728   0.003802
     5  O   -0.334490  -0.000888
     6  O   -0.153776  -0.005244
     7  C   -0.387771   0.148174
     8  C   -0.401982  -0.003986
     9  H    0.161374  -0.005537
    10  H    0.262918  -0.062779
    11  H    0.175438   0.001867
    12  H    0.127261   0.005218
    13  H    0.135130   0.000433
    14  O   -0.230255   0.955237
    15  H    0.270370  -0.033648
 Sum of Mulliken charges =  -0.00000   1.00000

 Dipole moment (field-independent basis, Debye):
    X=             -0.0893    Y=              3.6678    Z=             -0.9917  Tot=              3.8006
 Quadrupole moment (field-independent basis, Debye-Ang):
   XX=            -49.3113   YY=            -47.4025   ZZ=            -48.1797
   XY=             11.3810   XZ=             -4.9834   YZ=              0.4878

 PMP3-0=-419.2704536\MP4SDQ=-419.2930374\CCSD=-419.2915204\CCSD(T)=-419
 Normal termination of Gaussian 16 at Wed May  7 02:24:13 2025.
