 Gaussian 16, Revision A.03,
 Gaussian 16:  ES64L-G16RevA.03 25-Dec-2016

 --------------------------
 # freq 6-311++g(d,p) m062x
 --------------------------

 -------------------
 Title Card Required
 -------------------
 Symbolic Z-matrix:
 Charge =  0 Multiplicity = 2

                         Standard orientation:
 ---------------------------------------------------------------------
 Center     Atomic      Atomic             Coordinates (Angstroms)
 Number     Number       Type             X           Y           Z
 ---------------------------------------------------------------------
      1          6           0        2.517381    1.221558   -0.683408
      2          1           0        3.148549    2.016704   -1.006086
      3          6           0        1.813801    0.321581   -0.319545
      4          6           0        1.025756   -0.820816    0.145847
      5          8           0        1.530229   -1.851268    0.471222
      6          8           0       -0.306496   -0.654069    0.188326
      7          6           0       -0.903164    0.587545   -0.197528
      8          6           0       -1.047398    1.535858    0.963964
      9          1           0       -0.380045    1.014349   -1.054811
     10          1           0       -1.916679    0.312970   -0.567370
     11          1           0       -1.575622    1.047521    1.784016
     12          1           0       -0.068952    1.868629    1.318451
     13          1           0       -1.620165    2.411212    0.652809
     14          8           0       -3.137280   -0.542104   -0.684659
     15          1           0       -2.716960   -1.366221   -0.382096
 ---------------------------------------------------------------------

 SCF Done:  E(UM062X) =  -420.193096527     A.U. after   22 cycles

 The electronic state is 2-A.
 Alpha  occ. eigenvalues --  -19.69297 -19.68231 -19.63697 -10.71631 -10.62164
 Alpha  occ. eigenvalues --  -10.58547 -10.58121 -10.54983  -1.26177  -1.17723
 Alpha  occ. eigenvalues --   -1.14454  -0.90213  -0.89517  -0.78224  -0.74585
 Alpha  occ. eigenvalues --   -0.65667  -0.62551  -0.60839  -0.57737  -0.56630
 Alpha  occ. eigenvalues --   -0.54604  -0.50544  -0.50175  -0.47972  -0.45761
 Alpha  occ. eigenvalues --   -0.43502  -0.41204  -0.40549  -0.38515  -0.38037
 Alpha  occ. eigenvalues --   -0.36728
 Alpha virt. eigenvalues --   -0.02844  -0.00857   0.00393   0.01239   0.01500
 Alpha virt. eigenvalues --    0.02923   0.03554   0.04401   0.05434   0.06023
 Alpha virt. eigenvalues --    0.06719   0.07482   0.08593   0.09412   0.09962

  Beta  occ. eigenvalues --  -19.69300 -19.66755 -19.63695 -10.71623 -10.61922
  Beta  occ. eigenvalues --  -10.58545 -10.58121 -10.54986  -1.26130  -1.17645
  Beta  occ. eigenvalues --   -1.07781  -0.90139  -0.88977  -0.77988  -0.74339
  Beta  occ. eigenvalues --   -0.65180  -0.62412  -0.58978  -0.57540  -0.54752
  Beta  occ. eigenvalues --   -0.52488  -0.50295  -0.48075  -0.46667  -0.42979
  Beta  occ. eigenvalues --   -0.40558  -0.40170  -0.39404  -0.38181  -0.37128
  Beta virt. eigenvalues --   -0.11070  -0.02819  -0.00819   0.00603   0.01380
  Beta virt. eigenvalues --    0.01556   0.02982   0.03652   0.04552   0.05479
  Beta virt. eigenvalues --    0.06118   0.06783   0.07618   0.08716   0.09441

 Mulliken charges and spin densities:
               1          2
     1  C   -1.310959   0.015373
     2  H    0.202679   0.000036
     3  C    1.514285  -0.009358
     4  C   -0.188904  -0.002086
     5  O   -0.245348   0.001482
     6  O   -0.062701  -0.003207
     7  C   -0.502274   0.192354
     8  C   -0.378559   0.002351
     9  H    0.189926  -0.000886
    10  H    0.278414  -0.037294
    11  H    0.199566   0.000982
    12  H    0.144685   0.009401
    13  H    0.168601  -0.000064
    14  O   -0.273966   0.848508
    15  H    0.264557  -0.017591
 Sum of Mulliken charges =  -0.00000   1.00000

 Dipole moment (field-independent basis, Debye):
    X=              0.5274    Y=              3.6396    Z=             -0.6623  Tot=              3.7368
 Quadrupole moment (field-independent basis, Debye-Ang):
   XX=            -51.2058   YY=            -46.5693   ZZ=            -48.0731
   XY=              9.6743   XZ=             -5.2524   YZ=              0.3799

  Exact polarizability:  91.371  11.252  78.796   0.064  -4.409  53.651
 Approx polarizability:  90.627  12.045  96.361  -1.816 -11.867  62.624

 ******    3 imaginary frequencies (negative Signs) ******

                      1                      2                      3
                      A                      A                      A
 Frequencies --   -337.0684               -97.2911               -29.6931
 Red. masses --      2.5823                 3.8594                 6.0358
 Frc consts  --      0.1729                 0.0215                 0.0031
 IR Inten    --    107.3036                 0.2573                20.2667

                      4                      5                      6
                      A                      A                      A
 Frequencies --     47.9408                83.5001               156.4554
 Red. masses --      3.2934                 5.8341                 3.2539
 Frc consts  --      0.0045                 0.0240                 0.0469
 IR Inten    --      0.8001                 4.2881                 2.2983

                      7                      8                      9
                      A                      A                      A
 Frequencies --    220.5337               227.4703               259.7699
 Red. masses --      1.1474                 1.1382                 4.6678
 Frc consts  --      0.0329                 0.0347                 0.1856
 IR Inten    --      4.1518               104.9988                 0.7079

                     10                     11                     12
                      A                      A                      A
 Frequencies --    322.7460               401.4493               552.5254
 Red. masses --      3.1780                 3.4415                 5.1682
 Frc consts  --      0.1950                 0.3268                 0.9296
 IR Inten    --      8.9579                 8.2440                 5.0019

                     13                     14                     15
                      A                      A                      A
 Frequencies --    612.2581               668.8202               735.2136
 Red. masses --      2.8882                 1.5544                 1.3202
 Frc consts  --      0.6379                 0.4097                 0.4204
 IR Inten    --     19.8052               174.6252                34.8380

                     16                     17                     18
                      A                      A                      A
 Frequencies --    761.4189               764.8430               776.7629
 Red. masses --      2.2110                 7.8552                 1.2905
 Frc consts  --      0.7552                 2.7074                 0.4588
 IR Inten    --     37.5946                14.6836                42.1151

                     19                     20                     21
                      A                      A                      A
 Frequencies --    784.5636               961.8155              1115.1343
 Red. masses --      1.7832                 2.2379                 3.1958
 Frc consts  --      0.6467                 1.2198                 2.3414
 IR Inten    --      5.0554                22.4504                34.6453

                     22                     23                     24
                      A                      A                      A
 Frequencies --   1127.2613              1162.2204              1247.1721
 Red. masses --      2.1104                 2.2061                 3.3141
 Frc consts  --      1.5800                 1.7557                 3.0371
 IR Inten    --     52.3430                43.5983               422.2295

                     25                     26                     27
                      A                      A                      A
 Frequencies --   1310.5138              1376.6796              1418.9836
 Red. masses --      1.3951                 1.2241                 1.3342
 Frc consts  --      1.4117                 1.3669                 1.5828
 IR Inten    --    321.3945                 7.5076                26.1888

                     28                     29                     30
                      A                      A                      A
 Frequencies --   1463.9198              1486.8844              1499.0761
 Red. masses --      1.1042                 1.0387                 1.0620
 Frc consts  --      1.3942                 1.3530                 1.4061
 IR Inten    --     72.0304                 8.6161                14.2853

                     31                     32                     33
                      A                      A                      A
 Frequencies --   1871.5345              2253.4340              2329.3156
 Red. masses --     12.6948                 5.7120                 1.1140
 Frc consts  --     26.1982                17.0894                 3.5612
 IR Inten    --    496.5864                72.4239              1068.7867

                     34                     35                     36
                      A                      A                      A
 Frequencies --   3067.8516              3119.0750              3144.4655
 Red. masses --      1.0356                 1.0848                 1.1019
 Frc consts  --      5.7426                 6.2178                 6.4194
 IR Inten    --      6.0260                 7.5201                 9.5354

                     37                     38                     39
                      A                      A                      A
 Frequencies --   3158.7340              3486.7737              3772.8509
 Red. masses --      1.1025                 1.1703                 1.0670
 Frc consts  --      6.4812                 8.3827                 8.9483
 IR Inten    --      8.6821                64.0475                40.5671

 - Thermochemistry -
 -------------------
 Temperature   298.150 Kelvin.  Pressure   1.00000 Atm.
 Atom     1 has atomic number  6 and mass  12.00000

 Molecular mass:   115.03952 amu.
 Principal axes and moments of inertia in atomic units:
                           1         2         3
     Eigenvalues --   647.797311471.140941846.37898
           X            0.99982   0.01377  -0.01338
           Y           -0.01336   0.99947   0.02979
           Z            0.01379  -0.02960   0.99947
 This molecule is an asymmetric top.
 Rotational symmetry number  1.
 Warning -- assumption of classical behavior for rotation
           may cause significant error
 Rotational temperatures (Kelvin)      0.13371     0.05888     0.04691
 Rotational constants (GHZ):           2.78597     1.22676     0.97745
    3 imaginary frequencies ignored.
 Zero-point vibrational energy     285608.2 (Joules/Mol)
                                   68.26200 (Kcal/Mol)
 Warning -- explicit consideration of  10 degrees of freedom as
           vibrations may cause significant error
 Vibrational temperatures:     68.98   120.14   225.10   317.30   327.28
          (Kelvin)            373.75   464.36   577.60   794.96   880.90
                              962.28  1057.81  1095.51  1100.44  1117.59
                             1128.81  1383.84  1604.43  1621.88  1672.18
                             1794.40  1885.54  1980.73  2041.60  2106.25
                             2139.29  2156.84  2692.72  3242.19  3351.37
                             4413.95  4487.65  4524.18  4544.71  5016.69
                             5428.29

 Zero-point correction=                           0.108782 (Hartree/Particle)
 Thermal correction to Energy=                    0.117154
 Thermal correction to Enthalpy=                  0.118098
 Thermal correction to Gibbs Free Energy=         0.074170
 Sum of electronic and zero-point Energies=           -420.084314
 Sum of electronic and thermal Energies=              -420.075943
 Sum of electronic and thermal Enthalpies=            -420.074999
 Sum of electronic and thermal Free Energies=         -420.118927

                     E (Thermal)             CV                S
                      KCal/Mol        Cal/Mol-Kelvin    Cal/Mol-Kelvin
 Total                   73.515             28.810             92.454
 Electronic               0.000              0.000              1.377
 Translational            0.889              2.981             40.136
 Rotational               0.889              2.981             28.955
 Vibrational             71.738             22.849             21.986
 Vibration     1          0.595              1.978              4.901
 Vibration     2          0.600              1.961              3.807
 Vibration     3          0.620              1.895              2.592
 Vibration     4          0.647              1.810              1.955
 Vibration     5          0.651              1.799              1.899
 Vibration     6          0.668              1.746              1.663
 Vibration     7          0.708              1.630              1.296
 Vibration     8          0.767              1.467              0.957
 Vibration     9          0.908              1.134              0.539
 Vibration    10          0.971              1.006              0.429

 1\1\GINC-AJ\Freq\UM062X\6-311++G(d,p)\C5H7O3(2)\AAYUSH\29-Mar-2025\0\\
 # freq 6-311++g(d,p) m062x\\Title Card Required\\0,2\C,2.469138,1.2944
 66,-0.672263\H,3.097799,2.092495,-0.99271\C,1.768396,0.391266,-0.31091
 8\C,0.983951,-0.754867,0.151359\O,1.491735,-1.784284,0.474854\O,-0.348
 901,-0.592816,0.193186\C,-0.949563,0.647576,-0.190395\C,-1.097952,1.59
 2827,0.973068\H,-0.427273,1.07807,-1.046337\H,-1.961843,0.370317,-0.56
 1614\H,-1.625107,1.100865,1.791641\H,-0.120931,1.928194,1.329034\H,-1.
 673505,2.46688,0.6634\O,-3.179393,-0.488707,-0.681716\H,-2.756457,-1.3

 Normal termination of Gaussian 16 at Sat Mar 29 03:55:00 2025.
