 Gaussian 16, Revision A.03,
 Gaussian 16:  ES64L-G16RevA.03 25-Dec-2016

 --------------------------
 # freq 6-311++g(d,p) m062x
 --------------------------

 -------------------
 Title Card Required
 -------------------
 Symbolic Z-matrix:
 Charge =  0 Multiplicity = 2

                         Standard orientation:
 ---------------------------------------------------------------------
 Center     Atomic      Atomic             Coordinates (Angstroms)
 Number     Number       Type             X           Y           Z
 ---------------------------------------------------------------------
      1          6           0        2.519628    1.214443   -0.686150
      2          1           0        3.152432    2.007661   -1.010318
      3          6           0        1.814391    0.316506   -0.320397
      4          6           0        1.022907   -0.823409    0.146956
      5          8           0        1.525990   -1.854390    0.473254
      6          8           0       -0.308707   -0.652958    0.188187
      7          6           0       -0.894334    0.596220   -0.199602
      8          6           0       -1.041152    1.540906    0.964920
      9          1           0       -0.349557    1.025017   -1.041974
     10          1           0       -1.894031    0.341036   -0.588411
     11          1           0       -1.574221    1.052110    1.781596
     12          1           0       -0.064492    1.872558    1.324621
     13          1           0       -1.612115    2.417286    0.652925
     14          8           0       -3.150958   -0.545442   -0.683489
     15          1           0       -2.717262   -1.361341   -0.376420
 ---------------------------------------------------------------------

 SCF Done:  E(UM062X) =  -420.193927336     A.U. after   22 cycles

 The electronic state is 2-A.
 Alpha  occ. eigenvalues --  -19.69227 -19.68600 -19.63632 -10.71560 -10.61903
 Alpha  occ. eigenvalues --  -10.58478 -10.58063 -10.54869  -1.26073  -1.17627
 Alpha  occ. eigenvalues --   -1.14692  -0.90125  -0.89412  -0.78071  -0.74515
 Alpha  occ. eigenvalues --   -0.65550  -0.62472  -0.60632  -0.57656  -0.56721
 Alpha  occ. eigenvalues --   -0.54674  -0.50469  -0.50153  -0.47901  -0.45736
 Alpha  occ. eigenvalues --   -0.43806  -0.41339  -0.40491  -0.38656  -0.38050
 Alpha  occ. eigenvalues --   -0.36781
 Alpha virt. eigenvalues --   -0.02778  -0.00837   0.00370   0.01244   0.01518
 Alpha virt. eigenvalues --    0.02946   0.03581   0.04410   0.05445   0.06046
 Alpha virt. eigenvalues --    0.06731   0.07490   0.08613   0.09435   0.09985

  Beta  occ. eigenvalues --  -19.69232 -19.67094 -19.63631 -10.71555 -10.61697
  Beta  occ. eigenvalues --  -10.58475 -10.58064 -10.54872  -1.26037  -1.17558
  Beta  occ. eigenvalues --   -1.07655  -0.90071  -0.88943  -0.77872  -0.74302
  Beta  occ. eigenvalues --   -0.65135  -0.62354  -0.58949  -0.57454  -0.54683
  Beta  occ. eigenvalues --   -0.52663  -0.50189  -0.48028  -0.46589  -0.42935
  Beta  occ. eigenvalues --   -0.40543  -0.40361  -0.39375  -0.38122  -0.37045
  Beta virt. eigenvalues --   -0.10885  -0.02757  -0.00798   0.00594   0.01382
  Beta virt. eigenvalues --    0.01571   0.03004   0.03685   0.04561   0.05487
  Beta virt. eigenvalues --    0.06130   0.06790   0.07635   0.08736   0.09461

 Mulliken charges and spin densities:
               1          2
     1  C   -1.311060   0.014363
     2  H    0.202362   0.000029
     3  C    1.511537  -0.008522
     4  C   -0.186528  -0.002862
     5  O   -0.246806   0.001136
     6  O   -0.061946  -0.002533
     7  C   -0.499470   0.162614
     8  C   -0.376656   0.003541
     9  H    0.186948  -0.000257
    10  H    0.266841  -0.035705
    11  H    0.198146   0.000537
    12  H    0.144056   0.007321
    13  H    0.167621  -0.000181
    14  O   -0.261074   0.878290
    15  H    0.266028  -0.017771
 Sum of Mulliken charges =  -0.00000   1.00000

 Dipole moment (field-independent basis, Debye):
    X=              0.4249    Y=              3.5908    Z=             -0.7019  Tot=              3.6833
 Quadrupole moment (field-independent basis, Debye-Ang):
   XX=            -50.8531   YY=            -46.6572   ZZ=            -48.0916
   XY=              9.7923   XZ=             -5.1539   YZ=              0.3788

  Exact polarizability:  88.481   9.807  78.030  -0.799  -4.847  53.429
 Approx polarizability:  89.008  11.208  95.765  -2.345 -12.174  62.494

 ******    2 imaginary frequencies (negative Signs) ******

                      1                      2                      3
                      A                      A                      A
 Frequencies --   -198.3200              -108.7211                32.6606
 Red. masses --      2.7440                 4.0188                 4.0766
 Frc consts  --      0.0636                 0.0280                 0.0026
 IR Inten    --     15.1521                 0.3851                 5.5392

                      4                      5                      6
                      A                      A                      A
 Frequencies --     51.2971                93.2203               161.6039
 Red. masses --      5.1062                 6.4402                 3.0526
 Frc consts  --      0.0079                 0.0330                 0.0470
 IR Inten    --     14.2398                11.0340                 3.2996

                      7                      8                      9
                      A                      A                      A
 Frequencies --    221.9110               230.3538               260.2662
 Red. masses --      1.1753                 1.1276                 4.6149
 Frc consts  --      0.0341                 0.0353                 0.1842
 IR Inten    --      2.5762               107.9221                 0.9443

                     10                     11                     12
                      A                      A                      A
 Frequencies --    334.5530               402.1695               553.2902
 Red. masses --      2.8793                 3.4856                 5.0117
 Frc consts  --      0.1899                 0.3322                 0.9039
 IR Inten    --      8.2913                 7.4595                 5.9386

                     13                     14                     15
                      A                      A                      A
 Frequencies --    603.6136               647.5121               734.4967
 Red. masses --      1.8740                 1.9994                 1.3186
 Frc consts  --      0.4023                 0.4939                 0.4191
 IR Inten    --     77.6875               144.4763                35.2372

                     16                     17                     18
                      A                      A                      A
 Frequencies --    755.3504               765.5033               777.0295
 Red. masses --      2.0912                10.6346                 1.2959
 Frc consts  --      0.7030                 3.6717                 0.4610
 IR Inten    --     20.9257                17.1380                42.4773

                     19                     20                     21
                      A                      A                      A
 Frequencies --    781.7878               961.1803              1115.6173
 Red. masses --      1.8633                 2.2338                 3.3037
 Frc consts  --      0.6710                 1.2159                 2.4226
 IR Inten    --      4.9355                18.7086                33.6817

                     22                     23                     24
                      A                      A                      A
 Frequencies --   1127.6684              1161.6435              1245.5350
 Red. masses --      2.1119                 2.1747                 3.1537
 Frc consts  --      1.5823                 1.7290                 2.8826
 IR Inten    --     37.2606                45.5941               416.5309

                     25                     26                     27
                      A                      A                      A
 Frequencies --   1319.1207              1380.3551              1421.2642
 Red. masses --      1.3837                 1.2313                 1.3488
 Frc consts  --      1.4186                 1.3822                 1.6053
 IR Inten    --    254.9027                 6.9452                23.5925

                     28                     29                     30
                      A                      A                      A
 Frequencies --   1476.7507              1488.0012              1503.1900
 Red. masses --      1.0843                 1.0387                 1.0747
 Frc consts  --      1.3932                 1.3550                 1.4308
 IR Inten    --     30.7186                10.6262                18.0580

                     31                     32                     33
                      A                      A                      A
 Frequencies --   1871.8687              2252.9498              2590.9144
 Red. masses --     12.9067                 5.7250                 1.0971
 Frc consts  --     26.6449                17.1210                 4.3393
 IR Inten    --    492.3131                61.8267               738.9766

                     34                     35                     36
                      A                      A                      A
 Frequencies --   3068.4910              3120.5465              3145.3028
 Red. masses --      1.0354                 1.0850                 1.1023
 Frc consts  --      5.7440                 6.2253                 6.4252
 IR Inten    --      6.5166                 7.3841                11.0494

                     37                     38                     39
                      A                      A                      A
 Frequencies --   3157.9783              3486.8053              3768.7184
 Red. masses --      1.1024                 1.1702                 1.0670
 Frc consts  --      6.4775                 8.3824                 8.9289
 IR Inten    --      9.4755                63.7378                38.8348

 - Thermochemistry -
 -------------------
 Temperature   298.150 Kelvin.  Pressure   1.00000 Atm.
 Atom     1 has atomic number  6 and mass  12.00000

 Molecular mass:   115.03952 amu.
 Principal axes and moments of inertia in atomic units:
                           1         2         3
     Eigenvalues --   649.490151474.452141850.65983
           X            0.99982   0.01358  -0.01343
           Y           -0.01317   0.99947   0.02968
           Z            0.01383  -0.02950   0.99947
 This molecule is an asymmetric top.
 Rotational symmetry number  1.
 Warning -- assumption of classical behavior for rotation
           may cause significant error
 Rotational temperatures (Kelvin)      0.13336     0.05874     0.04680
 Rotational constants (GHZ):           2.77870     1.22401     0.97519
    2 imaginary frequencies ignored.
 Zero-point vibrational energy     287525.6 (Joules/Mol)
                                   68.72026 (Kcal/Mol)
 Warning -- explicit consideration of  11 degrees of freedom as
           vibrations may cause significant error
 Vibrational temperatures:     46.99    73.81   134.12   232.51   319.28
          (Kelvin)            331.43   374.46   481.35   578.63   796.06
                              868.47   931.63  1056.78  1086.78  1101.39
                             1117.97  1124.82  1382.92  1605.12  1622.46
                             1671.35  1792.05  1897.92  1986.02  2044.88
                             2124.71  2140.90  2162.76  2693.20  3241.49
                             3727.75  4414.87  4489.77  4525.39  4543.63
                             5016.74  5422.35

 Zero-point correction=                           0.109513 (Hartree/Particle)
 Thermal correction to Energy=                    0.118715
 Thermal correction to Enthalpy=                  0.119660
 Thermal correction to Gibbs Free Energy=         0.073257
 Sum of electronic and zero-point Energies=           -420.084415
 Sum of electronic and thermal Energies=              -420.075212
 Sum of electronic and thermal Enthalpies=            -420.074268
 Sum of electronic and thermal Free Energies=         -420.120670

                     E (Thermal)             CV                S
                      KCal/Mol        Cal/Mol-Kelvin    Cal/Mol-Kelvin
 Total                   74.495             30.810             97.662
 Electronic               0.000              0.000              1.377
 Translational            0.889              2.981             40.136
 Rotational               0.889              2.981             28.962
 Vibrational             72.718             24.848             27.186
 Vibration     1          0.594              1.983              5.661
 Vibration     2          0.596              1.977              4.767
 Vibration     3          0.602              1.954              3.591
 Vibration     4          0.622              1.889              2.531
 Vibration     5          0.648              1.808              1.943
 Vibration     6          0.652              1.795              1.876
 Vibration     7          0.668              1.745              1.660
 Vibration     8          0.716              1.606              1.238
 Vibration     9          0.768              1.465              0.955
 Vibration    10          0.909              1.132              0.537
 Vibration    11          0.962              1.024              0.443

 1\1\GINC-AJ\Freq\UM062X\6-311++G(d,p)\C5H7O3(2)\AAYUSH\29-Mar-2025\0\\
 # freq 6-311++g(d,p) m062x\\Title Card Required\\0,2\C,2.469489,1.2941
 88,-0.672076\H,3.098187,2.092141,-0.992592\C,1.768901,0.390959,-0.3104
 43\C,0.983314,-0.7551,0.151807\O,1.491827,-1.784398,0.474987\O,-0.3492
 91,-0.592328,0.192021\C,-0.941506,0.654919,-0.19196\C,-1.09507,1.59452
 9,0.975795\H,-0.398147,1.089842,-1.032104\H,-1.939274,0.395501,-0.5829
 17\H,-1.626351,1.099768,1.79004\H,-0.120737,1.930388,1.337892\H,-1.670
 604,2.468794,0.666275\O,-3.191051,-0.497716,-0.682747\H,-2.753118,-1.3

 Normal termination of Gaussian 16 at Sat Mar 29 01:52:28 2025.
