 Gaussian 16, Revision A.03,
 Gaussian 16:  ES64L-G16RevA.03 25-Dec-2016

 --------------------------
 # ccsd(t)/6-311++g(d,p) sp
 --------------------------

 -------------------
 Title Card Required
 -------------------
 Symbolic Z-matrix:
 Charge =  0 Multiplicity = 2

                         Standard orientation:
 ---------------------------------------------------------------------
 Center     Atomic      Atomic             Coordinates (Angstroms)
 Number     Number       Type             X           Y           Z
 ---------------------------------------------------------------------
      1          6           0        2.515270    1.235696   -0.678517
      2          1           0        3.143478    2.034321   -0.999114
      3          6           0        1.814915    0.331939   -0.317720
      4          6           0        1.035463   -0.815478    0.143186
      5          8           0        1.539512   -1.843893    0.467933
      6          8           0       -0.303345   -0.650381    0.187962
      7          6           0       -0.906306    0.572899   -0.188407
      8          6           0       -1.060928    1.526053    0.961486
      9          1           0       -0.471547    0.981104   -1.101030
     10          1           0       -2.172248    0.117057   -0.559954
     11          1           0       -1.575648    1.039522    1.790950
     12          1           0       -0.072433    1.854887    1.303170
     13          1           0       -1.631327    2.403186    0.654368
     14          8           0       -3.096888   -0.526423   -0.682735
     15          1           0       -2.724982   -1.371158   -0.393822
 ---------------------------------------------------------------------

 SCF Done:  E(UHF) =  -417.953905752     A.U. after   33 cycles
 E2 =    -0.1299250058D+01 EUMP2 =    -0.41925315580977D+03
 CCSD(T)= -0.41934910901D+03

 The electronic state is 2-A.
 Alpha  occ. eigenvalues --  -20.63921 -20.57853 -20.57356 -11.43855 -11.35045
 Alpha  occ. eigenvalues --  -11.29286 -11.28358 -11.25388  -1.50310  -1.41012
 Alpha  occ. eigenvalues --   -1.34507  -1.09416  -1.08116  -0.94241  -0.89770
 Alpha  occ. eigenvalues --   -0.78545  -0.75233  -0.73826  -0.69429  -0.68768
 Alpha  occ. eigenvalues --   -0.63373  -0.60888  -0.59925  -0.58372  -0.55934
 Alpha  occ. eigenvalues --   -0.50881  -0.50607  -0.49830  -0.45289  -0.44816
 Alpha  occ. eigenvalues --   -0.42161
 Alpha virt. eigenvalues --    0.02656   0.04495   0.05439   0.06328   0.06724
 Alpha virt. eigenvalues --    0.07764   0.08896   0.09165   0.10398   0.11535
 Alpha virt. eigenvalues --    0.12514   0.13056   0.14503   0.15041   0.15443

  Beta  occ. eigenvalues --  -20.63926 -20.57863 -20.55339 -11.43739 -11.32725
  Beta  occ. eigenvalues --  -11.29228 -11.28404 -11.25513  -1.49983  -1.40722
  Beta  occ. eigenvalues --   -1.28089  -1.09312  -1.05035  -0.93119  -0.88050
  Beta  occ. eigenvalues --   -0.77164  -0.74909  -0.70036  -0.68617  -0.65014
  Beta  occ. eigenvalues --   -0.61471  -0.60100  -0.57785  -0.56322  -0.52336
  Beta  occ. eigenvalues --   -0.50091  -0.48984  -0.48232  -0.44927  -0.44727
  Beta virt. eigenvalues --    0.02664   0.04149   0.05018   0.05555   0.06554
  Beta virt. eigenvalues --    0.06840   0.07806   0.08986   0.09377   0.10814
  Beta virt. eigenvalues --    0.11583   0.12622   0.13082   0.14574   0.15104

 Mulliken charges and spin densities:
               1          2
     1  C   -1.642998   0.005477
     2  H    0.233645  -0.002088
     3  C    1.870695  -0.033758
     4  C   -0.076089   0.042273
     5  O   -0.311833  -0.001206
     6  O   -0.120353  -0.054339
     7  C   -0.377355   0.872068
     8  C   -0.396386  -0.083069
     9  H    0.200619  -0.042192
    10  H    0.349565  -0.153076
    11  H    0.200655   0.010914
    12  H    0.138078   0.047644
    13  H    0.150864   0.003946
    14  O   -0.479205   0.400338
    15  H    0.260098  -0.012930
 Sum of Mulliken charges =  -0.00000   1.00000

 Dipole moment (field-independent basis, Debye):
    X=              2.2614    Y=              4.7361    Z=             -0.3687  Tot=              5.2613
 Quadrupole moment (field-independent basis, Debye-Ang):
   XX=            -57.4549   YY=            -46.4564   ZZ=            -47.9215
   XY=              8.4697   XZ=             -7.1760   YZ=              0.1008

 3-0=-419.272\MP4SDQ=-419.2958489\CCSD=-419.2934004\CCSD(T)=-419.349109
 Normal termination of Gaussian 16 at Fri May  9 09:36:14 2025.
