 Gaussian 16, Revision A.03,
 Gaussian 16:  ES64L-G16RevA.03 25-Dec-2016

 --------------------------
 # freq 6-311++g(d,p) m062x
 --------------------------

 -------------------
 Title Card Required
 -------------------
 Symbolic Z-matrix:
 Charge =  0 Multiplicity = 2

                         Standard orientation:
 ---------------------------------------------------------------------
 Center     Atomic      Atomic             Coordinates (Angstroms)
 Number     Number       Type             X           Y           Z
 ---------------------------------------------------------------------
      1          6           0        2.514645    1.231805   -0.678824
      2          1           0        3.143786    2.029488   -0.999349
      3          6           0        1.813466    0.328855   -0.317804
      4          6           0        1.030508   -0.817093    0.144060
      5          8           0        1.536103   -1.846689    0.468359
      6          8           0       -0.303745   -0.653961    0.187811
      7          6           0       -0.914302    0.575202   -0.194475
      8          6           0       -1.057105    1.528366    0.962733
      9          1           0       -0.430668    0.996738   -1.077413
     10          1           0       -1.970295    0.251771   -0.539642
     11          1           0       -1.578073    1.040380    1.787433
     12          1           0       -0.074610    1.860103    1.309514
     13          1           0       -1.630288    2.403772    0.653703
     14          8           0       -3.115662   -0.536005   -0.685946
     15          1           0       -2.716690   -1.371831   -0.390174
 ---------------------------------------------------------------------

 SCF Done:  E(UM062X) =  -420.192083143     A.U. after   21 cycles

 The electronic state is 2-A.
 Alpha  occ. eigenvalues --  -19.69610 -19.66966 -19.63973 -10.71906 -10.63066
 Alpha  occ. eigenvalues --  -10.58792 -10.58337 -10.55386  -1.26528  -1.18079
 Alpha  occ. eigenvalues --   -1.13557  -0.90497  -0.89808  -0.78654  -0.74835
 Alpha  occ. eigenvalues --   -0.65978  -0.62782  -0.61231  -0.58048  -0.56482
 Alpha  occ. eigenvalues --   -0.54095  -0.50890  -0.50181  -0.48296  -0.45956
 Alpha  occ. eigenvalues --   -0.42438  -0.41130  -0.40768  -0.38546  -0.37923
 Alpha  occ. eigenvalues --   -0.36128
 Alpha virt. eigenvalues --   -0.03088  -0.00941   0.00460   0.01224   0.01423
 Alpha virt. eigenvalues --    0.02830   0.03457   0.04375   0.05373   0.05984
 Alpha virt. eigenvalues --    0.06652   0.07436   0.08503   0.09305   0.09901

  Beta  occ. eigenvalues --  -19.69605 -19.65600 -19.63970 -10.71893 -10.62725
  Beta  occ. eigenvalues --  -10.58788 -10.58337 -10.55390  -1.26442  -1.17976
  Beta  occ. eigenvalues --   -1.07947  -0.90378  -0.89075  -0.78312  -0.74503
  Beta  occ. eigenvalues --   -0.65344  -0.62620  -0.59028  -0.57816  -0.54822
  Beta  occ. eigenvalues --   -0.51994  -0.50622  -0.48317  -0.46931  -0.43190
  Beta  occ. eigenvalues --   -0.40762  -0.39750  -0.39213  -0.38417  -0.37404
  Beta virt. eigenvalues --   -0.11432  -0.03043  -0.00908   0.00621   0.01365
  Beta virt. eigenvalues --    0.01502   0.02895   0.03546   0.04531   0.05423
  Beta virt. eigenvalues --    0.06102   0.06731   0.07553   0.08625   0.09338

 Mulliken charges and spin densities:
               1          2
     1  C   -1.306476   0.018171
     2  H    0.203735   0.000056
     3  C    1.516631  -0.011701
     4  C   -0.194243   0.000310
     5  O   -0.240659   0.002662
     6  O   -0.061121  -0.005152
     7  C   -0.506154   0.285959
     8  C   -0.379785  -0.002231
     9  H    0.198303  -0.002790
    10  H    0.303769  -0.040147
    11  H    0.204194   0.002493
    12  H    0.146653   0.015836
    13  H    0.171649   0.000219
    14  O   -0.317459   0.752405
    15  H    0.260965  -0.016088
 Sum of Mulliken charges =  -0.00000   1.00000

 Dipole moment (field-independent basis, Debye):
    X=              0.9517    Y=              3.8226    Z=             -0.5286  Tot=              3.9746
 Quadrupole moment (field-independent basis, Debye-Ang):
   XX=            -52.6098   YY=            -46.3420   ZZ=            -48.0197
   XY=              9.1861   XZ=             -5.6515   YZ=              0.3436

  Exact polarizability:  97.515  14.017  80.256   1.885  -3.513  54.172
 Approx polarizability:  94.943  14.052  97.833  -0.459 -11.125  63.087

 ******    1 imaginary frequencies (negative Signs) ******

                      1                      2                      3
                      A                      A                      A
 Frequencies --   -756.3858                20.0885                52.2770
 Red. masses --      1.6302                 5.7843                 6.0691
 Frc consts  --      0.5495                 0.0014                 0.0098
 IR Inten    --   1051.6966                 0.0949                10.0537

                      4                      5                      6
                      A                      A                      A
 Frequencies --     87.2391                90.0971               157.5836
 Red. masses --      4.5927                 2.9463                 2.9200
 Frc consts  --      0.0206                 0.0141                 0.0427
 IR Inten    --      6.2075                 1.6621                 2.2057

                      7                      8                      9
                      A                      A                      A
 Frequencies --    215.7531               223.0144               258.4606
 Red. masses --      1.1281                 1.1689                 4.7287
 Frc consts  --      0.0309                 0.0343                 0.1861
 IR Inten    --      8.1399                97.6929                 0.4404

                     10                     11                     12
                      A                      A                      A
 Frequencies --    311.8598               402.5259               550.1960
 Red. masses --      3.6835                 3.3719                 5.5062
 Frc consts  --      0.2111                 0.3219                 0.9821
 IR Inten    --      8.3283                 9.9492                 3.0336

                     13                     14                     15
                      A                      A                      A
 Frequencies --    617.2148               715.5065               736.7701
 Red. masses --      4.4555                 1.8669                 1.3309
 Frc consts  --      1.0000                 0.5631                 0.4257
 IR Inten    --      1.6328                65.4244                33.7977

                     16                     17                     18
                      A                      A                      A
 Frequencies --    762.1123               776.7495               790.8010
 Red. masses --     12.0949                 1.2868                 2.5820
 Frc consts  --      4.1390                 0.4574                 0.9513
 IR Inten    --     20.3372                40.3470                53.2583

                     19                     20                     21
                      A                      A                      A
 Frequencies --    798.5565               963.5162              1080.7520
 Red. masses --      1.1737                 2.2836                 2.6967
 Frc consts  --      0.4410                 1.2491                 1.8558
 IR Inten    --     36.5571                36.4144               507.3172

                     22                     23                     24
                      A                      A                      A
 Frequencies --   1119.6363              1162.0923              1231.0783
 Red. masses --      2.0612                 2.4141                 1.6972
 Frc consts  --      1.5224                 1.9208                 1.5155
 IR Inten    --     84.2809                53.8566               768.9656

                     25                     26                     27
                      A                      A                      A
 Frequencies --   1250.2990              1357.2294              1377.4127
 Red. masses --      3.8369                 1.1198                 1.1822
 Frc consts  --      3.5339                 1.2154                 1.3215
 IR Inten    --    405.8896                73.9862                65.3024

                     28                     29                     30
                      A                      A                      A
 Frequencies --   1420.3006              1484.0634              1490.3011
 Red. masses --      1.3420                 1.0412                 1.0459
 Frc consts  --      1.5950                 1.3511                 1.3686
 IR Inten    --     47.7747                 5.1231                 5.7547

                     31                     32                     33
                      A                      A                      A
 Frequencies --   1653.9956              1876.1221              2254.3586
 Red. masses --      1.1477                12.0965                 5.7244
 Frc consts  --      1.8499                25.0861                17.1406
 IR Inten    --    461.8176               476.5120                62.4607

                     34                     35                     36
                      A                      A                      A
 Frequencies --   3064.9688              3118.6978              3141.5159
 Red. masses --      1.0366                 1.0850                 1.1001
 Frc consts  --      5.7375                 6.2176                 6.3966
 IR Inten    --      4.4315                 7.2934                 6.1865

                     37                     38                     39
                      A                      A                      A
 Frequencies --   3161.7743              3486.5174              3786.8158
 Red. masses --      1.1028                 1.1704                 1.0669
 Frc consts  --      6.4956                 8.3826                 9.0140
 IR Inten    --      6.9348                65.0705                46.7569

 - Thermochemistry -
 -------------------
 Temperature   298.150 Kelvin.  Pressure   1.00000 Atm.
 Atom     1 has atomic number  6 and mass  12.00000

 Molecular mass:   115.03952 amu.
 Principal axes and moments of inertia in atomic units:
                           1         2         3
     Eigenvalues --   645.041871466.221761839.80348
           X            0.99981   0.01418  -0.01329
           Y           -0.01378   0.99946   0.02982
           Z            0.01371  -0.02963   0.99947
 This molecule is an asymmetric top.
 Rotational symmetry number  1.
 Warning -- assumption of classical behavior for rotation
           may cause significant error
 Rotational temperatures (Kelvin)      0.13428     0.05907     0.04708
 Rotational constants (GHZ):           2.79787     1.23088     0.98094
    1 imaginary frequencies ignored.
 Zero-point vibrational energy     281411.0 (Joules/Mol)
                                   67.25885 (Kcal/Mol)
 Warning -- explicit consideration of  12 degrees of freedom as
           vibrations may cause significant error
 Vibrational temperatures:     28.90    75.21   125.52   129.63   226.73
          (Kelvin)            310.42   320.87   371.87   448.70   579.15
                              791.61   888.03  1029.45  1060.05  1096.51
                             1117.57  1137.79  1148.94  1386.28  1554.96
                             1610.91  1671.99  1771.25  1798.90  1952.75
                             1981.79  2043.50  2135.24  2144.21  2379.73
                             2699.32  3243.52  4409.81  4487.11  4519.94
                             4549.09  5016.32  5448.38

 Zero-point correction=                           0.107184 (Hartree/Particle)
 Thermal correction to Energy=                    0.117197
 Thermal correction to Enthalpy=                  0.118142
 Thermal correction to Gibbs Free Energy=         0.069427
 Sum of electronic and zero-point Energies=           -420.084899
 Sum of electronic and thermal Energies=              -420.074886
 Sum of electronic and thermal Enthalpies=            -420.073942
 Sum of electronic and thermal Free Energies=         -420.122656

                     E (Thermal)             CV                S
                      KCal/Mol        Cal/Mol-Kelvin    Cal/Mol-Kelvin
 Total                   73.542             32.768            102.529
 Electronic               0.000              0.000              1.377
 Translational            0.889              2.981             40.136
 Rotational               0.889              2.981             28.944
 Vibrational             71.765             26.807             32.072
 Vibration     1          0.593              1.986              6.625
 Vibration     2          0.596              1.977              4.729
 Vibration     3          0.601              1.958              3.721
 Vibration     4          0.602              1.956              3.658
 Vibration     5          0.621              1.894              2.579
 Vibration     6          0.645              1.817              1.994
 Vibration     7          0.649              1.806              1.934
 Vibration     8          0.667              1.748              1.672
 Vibration     9          0.700              1.651              1.352
 Vibration    10          0.768              1.465              0.953
 Vibration    11          0.905              1.139              0.544
 Vibration    12          0.977              0.996              0.421

 1\1\GINC-AJ\Freq\UM062X\6-311++G(d,p)\C5H7O3(2)\AAYUSH\29-Mar-2025\0\\
 # freq 6-311++g(d,p) m062x\\Title Card Required\\0,2\C,2.46881,1.29464
 8,-0.672408\H,3.097696,2.092532,-0.992933\C,1.767919,0.391474,-0.31138
 8\C,0.985328,-0.754725,0.150476\O,1.491252,-1.784159,0.474775\O,-0.348
 977,-0.592019,0.194227\C,-0.959927,0.636948,-0.188059\C,-1.103035,1.59
 0067,0.969149\H,-0.476428,1.058639,-1.070997\H,-2.015817,0.31318,-0.53
 3226\H,-1.623847,1.101914,1.793849\H,-0.120646,1.922118,1.31593\H,-1.6
 76498,2.465289,0.660119\O,-3.160932,-0.474962,-0.67953\H,-2.761693,-1.

 Normal termination of Gaussian 16 at Sat Mar 29 04:06:32 2025.
