 Gaussian 16, Revision A.03,
 Gaussian 16:  ES64L-G16RevA.03 25-Dec-2016

 --------------------------
 # freq 6-311++g(d,p) m062x
 --------------------------

 -------------------
 Title Card Required
 -------------------
 Symbolic Z-matrix:
 Charge =  0 Multiplicity = 2

                         Standard orientation:
 ---------------------------------------------------------------------
 Center     Atomic      Atomic             Coordinates (Angstroms)
 Number     Number       Type             X           Y           Z
 ---------------------------------------------------------------------
      1          6           0        2.516710    1.223812   -0.682491
      2          1           0        3.147367    2.019560   -1.004703
      3          6           0        1.813665    0.323183   -0.319230
      4          6           0        1.026711   -0.819984    0.145481
      5          8           0        1.531543   -1.850265    0.470605
      6          8           0       -0.305816   -0.654256    0.188298
      7          6           0       -0.905906    0.584778   -0.196907
      8          6           0       -1.049461    1.534231    0.963649
      9          1           0       -0.390394    1.010757   -1.059270
     10          1           0       -1.924960    0.302581   -0.560636
     11          1           0       -1.576140    1.045999    1.784738
     12          1           0       -0.070328    1.867091    1.316477
     13          1           0       -1.622598    2.409412    0.652865
     14          8           0       -3.132780   -0.540962   -0.684982
     15          1           0       -2.716847   -1.367659   -0.383855
 ---------------------------------------------------------------------

 SCF Done:  E(UM062X) =  -420.192840747     A.U. after   23 cycles

 The electronic state is 2-A.
 Alpha  occ. eigenvalues --  -19.69332 -19.68067 -19.63730 -10.71664 -10.62281
 Alpha  occ. eigenvalues --  -10.58579 -10.58148 -10.55035  -1.26224  -1.17768
 Alpha  occ. eigenvalues --   -1.14342  -0.90252  -0.89560  -0.78288  -0.74617
 Alpha  occ. eigenvalues --   -0.65715  -0.62584  -0.60913  -0.57775  -0.56595
 Alpha  occ. eigenvalues --   -0.54558  -0.50585  -0.50180  -0.48009  -0.45780
 Alpha  occ. eigenvalues --   -0.43364  -0.41169  -0.40575  -0.38483  -0.38021
 Alpha  occ. eigenvalues --   -0.36689
 Alpha virt. eigenvalues --   -0.02875  -0.00866   0.00403   0.01237   0.01491
 Alpha virt. eigenvalues --    0.02912   0.03541   0.04397   0.05427   0.06016
 Alpha virt. eigenvalues --    0.06712   0.07477   0.08583   0.09400   0.09953

  Beta  occ. eigenvalues --  -19.69334 -19.66604 -19.63728 -10.71656 -10.62025
  Beta  occ. eigenvalues --  -10.58576 -10.58148 -10.55038  -1.26172  -1.17686
  Beta  occ. eigenvalues --   -1.07823  -0.90171  -0.88991  -0.78036  -0.74358
  Beta  occ. eigenvalues --   -0.65202  -0.62439  -0.58990  -0.57578  -0.54772
  Beta  occ. eigenvalues --   -0.52416  -0.50340  -0.48101  -0.46702  -0.43004
  Beta  occ. eigenvalues --   -0.40579  -0.40074  -0.39416  -0.38210  -0.37164
  Beta virt. eigenvalues --   -0.11142  -0.02847  -0.00829   0.00606   0.01379
  Beta virt. eigenvalues --    0.01548   0.02972   0.03637   0.04548   0.05474
  Beta virt. eigenvalues --    0.06115   0.06778   0.07610   0.08706   0.09429

 Mulliken charges and spin densities:
               1          2
     1  C   -1.310770   0.015802
     2  H    0.202816   0.000039
     3  C    1.515120  -0.009701
     4  C   -0.189725  -0.001768
     5  O   -0.244711   0.001634
     6  O   -0.062838  -0.003475
     7  C   -0.503045   0.204807
     8  C   -0.379131   0.001798
     9  H    0.191145  -0.001141
    10  H    0.282666  -0.037703
    11  H    0.200177   0.001180
    12  H    0.144960   0.010279
    13  H    0.169024  -0.000021
    14  O   -0.279659   0.835758
    15  H    0.263972  -0.017486
 Sum of Mulliken charges =  -0.00000   1.00000

 Dipole moment (field-independent basis, Debye):
    X=              0.5781    Y=              3.6624    Z=             -0.6447  Tot=              3.7634
 Quadrupole moment (field-independent basis, Debye-Ang):
   XX=            -51.3761   YY=            -46.5347   ZZ=            -48.0651
   XY=              9.6159   XZ=             -5.3009   YZ=              0.3776

  Exact polarizability:  92.478  11.786  79.076   0.395  -4.243  53.739
 Approx polarizability:  91.285  12.370  96.592  -1.604 -11.748  62.685

 ******    3 imaginary frequencies (negative Signs) ******

                      1                      2                      3
                      A                      A                      A
 Frequencies --   -390.2641               -89.2106               -27.6652
 Red. masses --      2.4719                 3.9520                 5.9728
 Frc consts  --      0.2218                 0.0185                 0.0027
 IR Inten    --    166.9645                 0.3086                18.8703

                      4                      5                      6
                      A                      A                      A
 Frequencies --     51.9851                82.6058               155.5830
 Red. masses --      3.1795                 5.7627                 3.2545
 Frc consts  --      0.0051                 0.0232                 0.0464
 IR Inten    --      0.7450                 4.0499                 2.2184

                      7                      8                      9
                      A                      A                      A
 Frequencies --    219.9280               226.6838               259.5697
 Red. masses --      1.1429                 1.1438                 4.6801
 Frc consts  --      0.0326                 0.0346                 0.1858
 IR Inten    --      4.8191               103.7511                 0.6538

                     10                     11                     12
                      A                      A                      A
 Frequencies --    319.7015               401.3612               552.2175
 Red. masses --      3.2603                 3.4283                 5.2198
 Frc consts  --      0.1963                 0.3254                 0.9378
 IR Inten    --      9.0731                 8.5386                 4.6288

                     13                     14                     15
                      A                      A                      A
 Frequencies --    613.9731               677.8481               735.4716
 Red. masses --      3.2484                 1.5205                 1.3212
 Frc consts  --      0.7215                 0.4116                 0.4211
 IR Inten    --     11.0236               169.0631                34.6824

                     16                     17                     18
                      A                      A                      A
 Frequencies --    763.5828               765.6039               776.6961
 Red. masses --      4.9731                 2.6119                 1.2893
 Frc consts  --      1.7084                 0.9020                 0.4582
 IR Inten    --     35.6264                24.7422                41.9769

                     19                     20                     21
                      A                      A                      A
 Frequencies --    786.0010               962.0303              1114.4242
 Red. masses --      1.7343                 2.2415                 3.1656
 Frc consts  --      0.6313                 1.2223                 2.3164
 IR Inten    --      4.8065                24.1754                38.7632

                     22                     23                     24
                      A                      A                      A
 Frequencies --   1126.8694              1162.3259              1247.7818
 Red. masses --      2.1057                 2.2188                 3.4024
 Frc consts  --      1.5754                 1.7661                 3.1212
 IR Inten    --     61.2210                43.4871               425.1989

                     25                     26                     27
                      A                      A                      A
 Frequencies --   1305.6503              1375.1559              1417.7397
 Red. masses --      1.4004                 1.2216                 1.3232
 Frc consts  --      1.4065                 1.3611                 1.5669
 IR Inten    --    356.9996                 8.1153                28.9056

                     28                     29                     30
                      A                      A                      A
 Frequencies --   1457.3428              1486.4644              1497.6513
 Red. masses --      1.1138                 1.0388                 1.0582
 Frc consts  --      1.3938                 1.3524                 1.3985
 IR Inten    --     93.8693                 8.0669                12.8593

                     31                     32                     33
                      A                      A                      A
 Frequencies --   1871.2613              2219.7669              2253.7769
 Red. masses --     12.4410                 1.1260                 5.6436
 Frc consts  --     25.6669                 3.2690                16.8899
 IR Inten    --    500.7114              1201.2783                39.4563

                     34                     35                     36
                      A                      A                      A
 Frequencies --   3067.5469              3118.6581              3144.0944
 Red. masses --      1.0357                 1.0847                 1.1017
 Frc consts  --      5.7420                 6.2160                 6.4168
 IR Inten    --      5.8140                 7.5271                 8.9578

                     37                     38                     39
                      A                      A                      A
 Frequencies --   3159.1138              3486.7590              3774.6024
 Red. masses --      1.1026                 1.1703                 1.0670
 Frc consts  --      6.4831                 8.3828                 8.9565
 IR Inten    --      8.3943                64.1854                41.2713

 - Thermochemistry -
 -------------------
 Temperature   298.150 Kelvin.  Pressure   1.00000 Atm.
 Atom     1 has atomic number  6 and mass  12.00000

 Molecular mass:   115.03952 amu.
 Principal axes and moments of inertia in atomic units:
                           1         2         3
     Eigenvalues --   647.228021470.074281844.98193
           X            0.99981   0.01384  -0.01336
           Y           -0.01343   0.99946   0.02982
           Z            0.01377  -0.02964   0.99947
 This molecule is an asymmetric top.
 Rotational symmetry number  1.
 Warning -- assumption of classical behavior for rotation
           may cause significant error
 Rotational temperatures (Kelvin)      0.13382     0.05892     0.04695
 Rotational constants (GHZ):           2.78842     1.22765     0.97819
    3 imaginary frequencies ignored.
 Zero-point vibrational energy     284937.5 (Joules/Mol)
                                   68.10169 (Kcal/Mol)
 Warning -- explicit consideration of  10 degrees of freedom as
           vibrations may cause significant error
 Vibrational temperatures:     74.79   118.85   223.85   316.43   326.15
          (Kelvin)            373.46   459.98   577.47   794.52   883.37
                              975.27  1058.18  1098.63  1101.53  1117.49
                             1130.88  1384.15  1603.41  1621.31  1672.33
                             1795.28  1878.54  1978.54  2039.81  2096.79
                             2138.69  2154.79  2692.33  3193.75  3242.68
                             4413.52  4487.05  4523.65  4545.26  5016.67
                             5430.81

 Zero-point correction=                           0.108527 (Hartree/Particle)
 Thermal correction to Energy=                    0.116894
 Thermal correction to Enthalpy=                  0.117838
 Thermal correction to Gibbs Free Energy=         0.073966
 Sum of electronic and zero-point Energies=           -420.084314
 Sum of electronic and thermal Energies=              -420.075947
 Sum of electronic and thermal Enthalpies=            -420.075003
 Sum of electronic and thermal Free Energies=         -420.118874

                     E (Thermal)             CV                S
                      KCal/Mol        Cal/Mol-Kelvin    Cal/Mol-Kelvin
 Total                   73.352             28.798             92.335
 Electronic               0.000              0.000              1.377
 Translational            0.889              2.981             40.136
 Rotational               0.889              2.981             28.953
 Vibrational             71.574             22.836             21.869
 Vibration     1          0.596              1.977              4.740
 Vibration     2          0.600              1.961              3.828
 Vibration     3          0.620              1.896              2.603
 Vibration     4          0.647              1.811              1.960
 Vibration     5          0.650              1.800              1.905
 Vibration     6          0.668              1.747              1.665
 Vibration     7          0.706              1.636              1.312
 Vibration     8          0.767              1.467              0.958
 Vibration     9          0.908              1.135              0.540
 Vibration    10          0.973              1.002              0.426

 1\1\GINC-AJ\Freq\UM062X\6-311++G(d,p)\C5H7O3(2)\AAYUSH\29-Mar-2025\0\\
 # freq 6-311++g(d,p) m062x\\Title Card Required\\0,2\C,2.46905,1.29453
 4,-0.672308\H,3.097705,2.092578,-0.992747\C,1.768271,0.391338,-0.31104
 6\C,0.984191,-0.754803,0.151191\O,1.491665,-1.784255,0.474824\O,-0.348
 813,-0.592822,0.193486\C,-0.952084,0.645224,-0.189922\C,-1.098957,1.59
 225,0.972201\H,-0.437228,1.074127,-1.051227\H,-1.970137,0.360856,-0.55
 4763\H,-1.624783,1.101135,1.792116\H,-0.120958,1.92719,1.326205\H,-1.6
 74316,2.466389,0.662596\O,-3.175551,-0.485794,-0.681315\H,-2.757523,-1

 Normal termination of Gaussian 16 at Sat Mar 29 03:57:19 2025.
