 Gaussian 16, Revision A.03,
 Gaussian 16:  ES64L-G16RevA.03 25-Dec-2016

 --------------------------
 # ccsd(t)/6-311++g(d,p) sp
 --------------------------

 -------------------
 Title Card Required
 -------------------
 Symbolic Z-matrix:
 Charge =  0 Multiplicity = 2

                         Standard orientation:
 ---------------------------------------------------------------------
 Center     Atomic      Atomic             Coordinates (Angstroms)
 Number     Number       Type             X           Y           Z
 ---------------------------------------------------------------------
      1          6           0        2.515518    1.228041   -0.680724
      2          1           0        3.145245    2.024896   -1.002085
      3          6           0        1.813488    0.326192   -0.318576
      4          6           0        1.028627   -0.818417    0.144780
      5          8           0        1.533993   -1.848341    0.469499
      6          8           0       -0.304616   -0.654312    0.188153
      7          6           0       -0.910798    0.579574   -0.195726
      8          6           0       -1.053463    1.531164    0.963045
      9          1           0       -0.411013    1.003578   -1.068417
     10          1           0       -1.944280    0.279262   -0.548428
     11          1           0       -1.577152    1.043087    1.786074
     12          1           0       -0.072775    1.863767    1.312692
     13          1           0       -1.626941    2.406257    0.653101
     14          8           0       -3.123961   -0.538601   -0.685482
     15          1           0       -2.716635   -1.370136   -0.387085
 ---------------------------------------------------------------------

 SCF Done:  E(UHF) =  -417.966853648     A.U. after   36 cycles
 E2 =    -0.1274199604D+01 EUMP2 =    -0.41924105325254D+03
 CCSD(T)= -0.41934272412D+03

 The electronic state is 2-A.
 Alpha  occ. eigenvalues --  -20.64211 -20.61995 -20.56438 -11.42351 -11.30651
 Alpha  occ. eigenvalues --  -11.28028 -11.27256 -11.23414  -1.48497  -1.40649
 Alpha  occ. eigenvalues --   -1.39046  -1.08148  -1.05781  -0.92393  -0.88203
 Alpha  occ. eigenvalues --   -0.77017  -0.74508  -0.73254  -0.69320  -0.67795
 Alpha  occ. eigenvalues --   -0.66954  -0.61274  -0.59072  -0.56967  -0.56270
 Alpha  occ. eigenvalues --   -0.54449  -0.49933  -0.48509  -0.45835  -0.43711
 Alpha  occ. eigenvalues --   -0.43404
 Alpha virt. eigenvalues --    0.03160   0.04736   0.05685   0.06144   0.07367
 Alpha virt. eigenvalues --    0.08180   0.08986   0.09495   0.10359   0.12036
 Alpha virt. eigenvalues --    0.12841   0.13435   0.14940   0.15690   0.15747

  Beta  occ. eigenvalues --  -20.62033 -20.60254 -20.56444 -11.42330 -11.29936
  Beta  occ. eigenvalues --  -11.28007 -11.27275 -11.23454  -1.48458  -1.39150
  Beta  occ. eigenvalues --   -1.25880  -1.08129  -1.04764  -0.92040  -0.87587
  Beta  occ. eigenvalues --   -0.76232  -0.73777  -0.69766  -0.67265  -0.66028
  Beta  occ. eigenvalues --   -0.62389  -0.58952  -0.56241  -0.54946  -0.52123
  Beta  occ. eigenvalues --   -0.50812  -0.48705  -0.46834  -0.43744  -0.43494
  Beta virt. eigenvalues --    0.03162   0.04429   0.05311   0.05913   0.07184
  Beta virt. eigenvalues --    0.07495   0.08250   0.09287   0.09538   0.10925
  Beta virt. eigenvalues --    0.12048   0.12853   0.13633   0.15081   0.15710

 Mulliken charges and spin densities:
               1          2
     1  C   -1.707533   0.008913
     2  H    0.227895  -0.000877
     3  C    1.901809  -0.013490
     4  C   -0.045571   0.007097
     5  O   -0.332514  -0.000909
     6  O   -0.155438  -0.011149
     7  C   -0.387415   0.226083
     8  C   -0.404334  -0.012796
     9  H    0.164955  -0.010037
    10  H    0.271808  -0.091254
    11  H    0.176968   0.002962
    12  H    0.126910   0.008884
    13  H    0.136362   0.000898
    14  O   -0.244684   0.917673
    15  H    0.270784  -0.031997
 Sum of Mulliken charges =  -0.00000   1.00000

 Dipole moment (field-independent basis, Debye):
    X=             -0.0555    Y=              3.6664    Z=             -0.9634  Tot=              3.7913
 Quadrupole moment (field-independent basis, Debye-Ang):
   XX=            -49.4210   YY=            -47.2903   ZZ=            -48.1679
   XY=             11.3788   XZ=             -5.0209   YZ=              0.5078

 \PMP3-0=-419.2672767\MP4SDQ=-419.2900154\CCSD=-419.2889976\CCSD(T)=-41
 Normal termination of Gaussian 16 at Wed May  7 04:05:01 2025.
