 Gaussian 16, Revision A.03,
 Gaussian 16:  ES64L-G16RevA.03 25-Dec-2016

 --------------------------
 # ccsd(t)/6-311++g(d,p) sp
 --------------------------

 -------------------
 Title Card Required
 -------------------
 Symbolic Z-matrix:
 Charge =  0 Multiplicity = 2

                         Standard orientation:
 ---------------------------------------------------------------------
 Center     Atomic      Atomic             Coordinates (Angstroms)
 Number     Number       Type             X           Y           Z
 ---------------------------------------------------------------------
      1          6           0        2.518095    1.219239   -0.684326
      2          1           0        3.149793    2.013759   -1.007488
      3          6           0        1.813967    0.319932   -0.319847
      4          6           0        1.024802   -0.821666    0.146216
      5          8           0        1.528864   -1.852292    0.471870
      6          8           0       -0.307209   -0.653787    0.188319
      7          6           0       -0.900318    0.590379   -0.198188
      8          6           0       -1.045316    1.537521    0.964282
      9          1           0       -0.369830    1.017901   -1.050466
     10          1           0       -1.908712    0.322811   -0.574215
     11          1           0       -1.575118    1.049057    1.783257
     12          1           0       -0.067508    1.870054    1.320454
     13          1           0       -1.617598    2.413131    0.652797
     14          8           0       -3.141821   -0.543229   -0.684300
     15          1           0       -2.717076   -1.364684   -0.380267
 ---------------------------------------------------------------------

 SCF Done:  E(UHF) =  -417.971822042     A.U. after   36 cycles
 E2 =    -0.1271133798D+01 EUMP2 =    -0.41924295584046D+03
 CCSD(T)= -0.41934401942D+03

 The electronic state is 2-A.
 Alpha  occ. eigenvalues --  -20.64388 -20.61999 -20.56397 -11.42319 -11.30365
 Alpha  occ. eigenvalues --  -11.27980 -11.27234 -11.23367  -1.48429  -1.40604
 Alpha  occ. eigenvalues --   -1.38987  -1.08105  -1.05746  -0.92258  -0.88192
 Alpha  occ. eigenvalues --   -0.76894  -0.74306  -0.73064  -0.69393  -0.67779
 Alpha  occ. eigenvalues --   -0.66927  -0.61477  -0.59007  -0.57094  -0.56221
 Alpha  occ. eigenvalues --   -0.54464  -0.50098  -0.48623  -0.46319  -0.43685
 Alpha  occ. eigenvalues --   -0.43380
 Alpha virt. eigenvalues --    0.03167   0.04738   0.05686   0.06135   0.07396
 Alpha virt. eigenvalues --    0.08194   0.08998   0.09478   0.10350   0.12056
 Alpha virt. eigenvalues --    0.12852   0.13470   0.14919   0.15710   0.15771

  Beta  occ. eigenvalues --  -20.62031 -20.60362 -20.56402 -11.42304 -11.29816
  Beta  occ. eigenvalues --  -11.27961 -11.27251 -11.23398  -1.48406  -1.39081
  Beta  occ. eigenvalues --   -1.25434  -1.08092  -1.04936  -0.91973  -0.87692
  Beta  occ. eigenvalues --   -0.76287  -0.73767  -0.69853  -0.67232  -0.65842
  Beta  occ. eigenvalues --   -0.62666  -0.58914  -0.56229  -0.54957  -0.52141
  Beta  occ. eigenvalues --   -0.50927  -0.48748  -0.46949  -0.43708  -0.43434
  Beta virt. eigenvalues --    0.03170   0.04492   0.05339   0.05904   0.07260
  Beta virt. eigenvalues --    0.07591   0.08276   0.09312   0.09548   0.10896
  Beta virt. eigenvalues --    0.12068   0.12864   0.13690   0.15066   0.15732

 Mulliken charges and spin densities:
               1          2
     1  C   -1.709519   0.009113
     2  H    0.227627  -0.000780
     3  C    1.898586  -0.011697
     4  C   -0.040837   0.004608
     5  O   -0.334051  -0.000890
     6  O   -0.154866  -0.006670
     7  C   -0.387577   0.167268
     8  C   -0.403175  -0.006149
     9  H    0.162063  -0.006673
    10  H    0.266584  -0.069774
    11  H    0.175772   0.002138
    12  H    0.127116   0.006103
    13  H    0.135413   0.000562
    14  O   -0.233622   0.946088
    15  H    0.270486  -0.033248
 Sum of Mulliken charges =  -0.00000   1.00000

 Dipole moment (field-independent basis, Debye):
    X=             -0.0975    Y=              3.6612    Z=             -0.9869  Tot=              3.7931
 Quadrupole moment (field-independent basis, Debye-Ang):
   XX=            -49.2888   YY=            -47.3709   ZZ=            -48.1780
   XY=             11.4007   XZ=             -4.9779   YZ=              0.4977

 -0=-419.2695158\MP4SDQ=-419.2921432\CCSD=-419.2907586\CCSD(T)=-419.344
 Normal termination of Gaussian 16 at Wed May  7 03:12:50 2025.
