 Gaussian 16, Revision A.03,
 Gaussian 16:  ES64L-G16RevA.03 25-Dec-2016

 --------------------------
 # freq 6-311++g(d,p) m062x
 --------------------------

 -------------------
 Title Card Required
 -------------------
 Symbolic Z-matrix:
 Charge =  0 Multiplicity = 2

                         Standard orientation:
 ---------------------------------------------------------------------
 Center     Atomic      Atomic             Coordinates (Angstroms)
 Number     Number       Type             X           Y           Z
 ---------------------------------------------------------------------
      1          6           0        2.518095    1.219239   -0.684326
      2          1           0        3.149793    2.013759   -1.007488
      3          6           0        1.813967    0.319932   -0.319847
      4          6           0        1.024802   -0.821666    0.146216
      5          8           0        1.528864   -1.852292    0.471870
      6          8           0       -0.307209   -0.653787    0.188319
      7          6           0       -0.900318    0.590379   -0.198188
      8          6           0       -1.045316    1.537521    0.964282
      9          1           0       -0.369830    1.017901   -1.050466
     10          1           0       -1.908712    0.322811   -0.574215
     11          1           0       -1.575118    1.049057    1.783257
     12          1           0       -0.067508    1.870054    1.320454
     13          1           0       -1.617598    2.413131    0.652797
     14          8           0       -3.141821   -0.543229   -0.684300
     15          1           0       -2.717076   -1.364684   -0.380267
 ---------------------------------------------------------------------

 SCF Done:  E(UM062X) =  -420.193365507     A.U. after   22 cycles

 The electronic state is 2-A.
 Alpha  occ. eigenvalues --  -19.69268 -19.68373 -19.63670 -10.71602 -10.62062
 Alpha  occ. eigenvalues --  -10.58520 -10.58098 -10.54938  -1.26137  -1.17685
 Alpha  occ. eigenvalues --   -1.14549  -0.90179  -0.89479  -0.78167  -0.74557
 Alpha  occ. eigenvalues --   -0.65624  -0.62521  -0.60768  -0.57705  -0.56663
 Alpha  occ. eigenvalues --   -0.54637  -0.50512  -0.50169  -0.47942  -0.45748
 Alpha  occ. eigenvalues --   -0.43620  -0.41245  -0.40526  -0.38558  -0.38046
 Alpha  occ. eigenvalues --   -0.36754
 Alpha virt. eigenvalues --   -0.02818  -0.00848   0.00384   0.01241   0.01508
 Alpha virt. eigenvalues --    0.02933   0.03565   0.04404   0.05439   0.06031
 Alpha virt. eigenvalues --    0.06725   0.07485   0.08602   0.09422   0.09970

  Beta  occ. eigenvalues --  -19.69272 -19.66886 -19.63669 -10.71596 -10.61833
  Beta  occ. eigenvalues --  -10.58518 -10.58098 -10.54941  -1.26094  -1.17610
  Beta  occ. eigenvalues --   -1.07739  -0.90113  -0.88964  -0.77944  -0.74323
  Beta  occ. eigenvalues --   -0.65162  -0.62390  -0.58967  -0.57507  -0.54731
  Beta  occ. eigenvalues --   -0.52554  -0.50254  -0.48054  -0.46637  -0.42960
  Beta  occ. eigenvalues --   -0.40544  -0.40252  -0.39392  -0.38157  -0.37096
  Beta virt. eigenvalues --   -0.11002  -0.02794  -0.00810   0.00599   0.01380
  Beta virt. eigenvalues --    0.01562   0.02991   0.03664   0.04555   0.05483
  Beta virt. eigenvalues --    0.06122   0.06786   0.07625   0.08725   0.09450

 Mulliken charges and spin densities:
               1          2
     1  C   -1.311075   0.014990
     2  H    0.202557   0.000033
     3  C    1.513405  -0.009046
     4  C   -0.188094  -0.002374
     5  O   -0.245906   0.001349
     6  O   -0.062522  -0.002960
     7  C   -0.501346   0.181218
     8  C   -0.377972   0.002822
     9  H    0.188820  -0.000656
    10  H    0.274349  -0.036804
    11  H    0.199025   0.000810
    12  H    0.144445   0.008617
    13  H    0.168227  -0.000105
    14  O   -0.269009   0.859772
    15  H    0.265097  -0.017667
 Sum of Mulliken charges =  -0.00000   1.00000

 Dipole moment (field-independent basis, Debye):
    X=              0.4853    Y=              3.6201    Z=             -0.6777  Tot=              3.7148
 Quadrupole moment (field-independent basis, Debye-Ang):
   XX=            -51.0630   YY=            -46.6012   ZZ=            -48.0800
   XY=              9.7229   XZ=             -5.2121   YZ=              0.3808

  Exact polarizability:  90.320  10.735  78.523  -0.250  -4.567  53.569
 Approx polarizability:  90.024  11.740  96.144  -2.011 -11.979  62.572

 ******    3 imaginary frequencies (negative Signs) ******

                      1                      2                      3
                      A                      A                      A
 Frequencies --   -286.1900              -103.1451               -24.0425
 Red. masses --      2.6681                 3.8372                 6.1123
 Frc consts  --      0.1288                 0.0241                 0.0021
 IR Inten    --     64.8781                 0.2422                21.1951

                      4                      5                      6
                      A                      A                      A
 Frequencies --     44.8255                85.0209               157.6287
 Red. masses --      3.4037                 5.9236                 3.2238
 Frc consts  --      0.0040                 0.0252                 0.0472
 IR Inten    --      1.2233                 5.0092                 2.4531

                      7                      8                      9
                      A                      A                      A
 Frequencies --    221.0442               228.2929               259.9529
 Red. masses --      1.1536                 1.1338                 4.6542
 Frc consts  --      0.0332                 0.0348                 0.1853
 IR Inten    --      3.5640               106.1062                 0.7680

                     10                     11                     12
                      A                      A                      A
 Frequencies --    326.2417               401.6148               552.8115
 Red. masses --      3.0835                 3.4553                 5.1156
 Frc consts  --      0.1934                 0.3284                 0.9211
 IR Inten    --      8.8070                 7.9672                 5.3677

                     13                     14                     15
                      A                      A                      A
 Frequencies --    610.0261               660.5695               734.9543
 Red. masses --      2.5193                 1.6361                 1.3194
 Frc consts  --      0.5524                 0.4206                 0.4199
 IR Inten    --     33.3852               172.3603                34.9718

                     16                     17                     18
                      A                      A                      A
 Frequencies --    758.9136               765.0250               776.8322
 Red. masses --      2.0969                 9.9183                 1.2921
 Frc consts  --      0.7116                 3.4201                 0.4594
 IR Inten    --     29.9541                16.1494                42.2580

                     19                     20                     21
                      A                      A                      A
 Frequencies --    783.3485               961.5948              1115.4970
 Red. masses --      1.8245                 2.2354                 3.2295
 Frc consts  --      0.6596                 1.2178                 2.3677
 IR Inten    --      5.1440                20.9853                33.1479

                     22                     23                     24
                      A                      A                      A
 Frequencies --   1127.4898              1162.0284              1246.5313
 Red. masses --      2.1113                 2.1960                 3.2366
 Frc consts  --      1.5814                 1.7471                 2.9631
 IR Inten    --     45.6384                44.1083               419.0731

                     25                     26                     27
                      A                      A                      A
 Frequencies --   1314.1160              1378.0171              1419.9123
 Red. masses --      1.3931                 1.2265                 1.3410
 Frc consts  --      1.4174                 1.3722                 1.5930
 IR Inten    --    294.9988                 7.1531                24.8429

                     28                     29                     30
                      A                      A                      A
 Frequencies --   1469.1715              1487.2791              1500.4695
 Red. masses --      1.0967                 1.0386                 1.0661
 Frc consts  --      1.3947                 1.3536                 1.4141
 IR Inten    --     54.5654                 9.2070                15.6134

                     31                     32                     33
                      A                      A                      A
 Frequencies --   1871.6789              2253.2822              2428.9008
 Red. masses --     12.8109                 5.7234                 1.1066
 Frc consts  --     26.4419                17.1213                 3.8466
 IR Inten    --    494.4070                65.0002               959.4464

                     34                     35                     36
                      A                      A                      A
 Frequencies --   3068.1166              3119.6493              3144.8080
 Red. masses --      1.0355                 1.0848                 1.1021
 Frc consts  --      5.7432                 6.2205                 6.4218
 IR Inten    --      6.2121                 7.4860                10.0850

                     37                     38                     39
                      A                      A                      A
 Frequencies --   3158.4259              3486.8009              3771.3110
 Red. masses --      1.1025                 1.1703                 1.0670
 Frc consts  --      6.4797                 8.3827                 8.9411
 IR Inten    --      8.9698                63.9271                39.9383

 - Thermochemistry -
 -------------------
 Temperature   298.150 Kelvin.  Pressure   1.00000 Atm.
 Atom     1 has atomic number  6 and mass  12.00000

 Molecular mass:   115.03952 amu.
 Principal axes and moments of inertia in atomic units:
                           1         2         3
     Eigenvalues --   648.365181472.229711847.79482
           X            0.99982   0.01370  -0.01340
           Y           -0.01330   0.99947   0.02975
           Z            0.01380  -0.02957   0.99947
 This molecule is an asymmetric top.
 Rotational symmetry number  1.
 Warning -- assumption of classical behavior for rotation
           may cause significant error
 Rotational temperatures (Kelvin)      0.13359     0.05883     0.04687
 Rotational constants (GHZ):           2.78353     1.22586     0.97670
    3 imaginary frequencies ignored.
 Zero-point vibrational energy     286219.6 (Joules/Mol)
                                   68.40813 (Kcal/Mol)
 Warning -- explicit consideration of  10 degrees of freedom as
           vibrations may cause significant error
 Vibrational temperatures:     64.49   122.33   226.79   318.03   328.46
          (Kelvin)            374.01   469.39   577.83   795.37   877.69
                              950.41  1057.44  1091.91  1100.70  1117.69
                             1127.06  1383.52  1604.95  1622.21  1671.90
                             1793.48  1890.72  1982.66  2042.94  2113.81
                             2139.86  2158.84  2692.93  3241.97  3494.65
                             4414.34  4488.48  4524.68  4544.27  5016.73
                             5426.08

 Zero-point correction=                           0.109015 (Hartree/Particle)
 Thermal correction to Energy=                    0.117387
 Thermal correction to Enthalpy=                  0.118331
 Thermal correction to Gibbs Free Energy=         0.074369
 Sum of electronic and zero-point Energies=           -420.084350
 Sum of electronic and thermal Energies=              -420.075978
 Sum of electronic and thermal Enthalpies=            -420.075034
 Sum of electronic and thermal Free Energies=         -420.118996

                     E (Thermal)             CV                S
                      KCal/Mol        Cal/Mol-Kelvin    Cal/Mol-Kelvin
 Total                   73.662             28.821             92.527
 Electronic               0.000              0.000              1.377
 Translational            0.889              2.981             40.136
 Rotational               0.889              2.981             28.957
 Vibrational             71.884             22.859             22.056
 Vibration     1          0.595              1.979              5.034
 Vibration     2          0.601              1.960              3.771
 Vibration     3          0.621              1.894              2.578
 Vibration     4          0.648              1.809              1.951
 Vibration     5          0.651              1.798              1.892
 Vibration     6          0.668              1.746              1.662
 Vibration     7          0.710              1.623              1.279
 Vibration     8          0.767              1.467              0.957
 Vibration     9          0.908              1.134              0.538
 Vibration    10          0.969              1.011              0.433

 1\1\GINC-AJ\Freq\UM062X\6-311++G(d,p)\C5H7O3(2)\AAYUSH\29-Mar-2025\0\\
 # freq 6-311++g(d,p) m062x\\Title Card Required\\0,2\C,2.469242,1.2943
 86,-0.672208\H,3.097912,2.092393,-0.99267\C,1.768542,0.39118,-0.310774
 \C,0.983725,-0.754939,0.151518\O,1.491787,-1.784318,0.47489\O,-0.34901
 3,-0.59273,0.192842\C,-0.946958,0.649978,-0.190896\C,-1.096965,1.59340
 2,0.973959\H,-0.417483,1.081981,-1.041543\H,-1.953884,0.37921,-0.56856
 3\H,-1.625469,1.100549,1.791142\H,-0.120878,1.929059,1.331917\H,-1.672
 613,2.467445,0.664281\O,-3.183267,-0.49167,-0.682091\H,-2.755374,-1.31

 Normal termination of Gaussian 16 at Sat Mar 29 03:52:40 2025.
