 Gaussian 16, Revision A.03,
 Gaussian 16:  ES64L-G16RevA.03 25-Dec-2016

 --------------------------
 # ccsd(t)/6-311++g(d,p) sp
 --------------------------

 -------------------
 Title Card Required
 -------------------
 Symbolic Z-matrix:
 Charge =  0 Multiplicity = 2

                         Standard orientation:
 ---------------------------------------------------------------------
 Center     Atomic      Atomic             Coordinates (Angstroms)
 Number     Number       Type             X           Y           Z
 ---------------------------------------------------------------------
      1          6           0        2.516710    1.223812   -0.682491
      2          1           0        3.147367    2.019560   -1.004703
      3          6           0        1.813665    0.323183   -0.319230
      4          6           0        1.026711   -0.819984    0.145481
      5          8           0        1.531543   -1.850265    0.470605
      6          8           0       -0.305816   -0.654256    0.188298
      7          6           0       -0.905906    0.584778   -0.196907
      8          6           0       -1.049461    1.534231    0.963649
      9          1           0       -0.390394    1.010757   -1.059270
     10          1           0       -1.924960    0.302581   -0.560636
     11          1           0       -1.576140    1.045999    1.784738
     12          1           0       -0.070328    1.867091    1.316477
     13          1           0       -1.622598    2.409412    0.652865
     14          8           0       -3.132780   -0.540962   -0.684982
     15          1           0       -2.716847   -1.367659   -0.383855
 ---------------------------------------------------------------------

 SCF Done:  E(UHF) =  -417.969636719     A.U. after   36 cycles
 E2 =    -0.1272418890D+01 EUMP2 =    -0.41924205560957D+03
 CCSD(T)= -0.41934338887D+03

 The electronic state is 2-A.
 Alpha  occ. eigenvalues --  -20.64326 -20.61988 -20.56408 -11.42327 -11.30467
 Alpha  occ. eigenvalues --  -11.27997 -11.27239 -11.23380  -1.48454  -1.40645
 Alpha  occ. eigenvalues --   -1.39006  -1.08119  -1.05760  -0.92317  -0.88192
 Alpha  occ. eigenvalues --   -0.76952  -0.74401  -0.73156  -0.69373  -0.67785
 Alpha  occ. eigenvalues --   -0.66941  -0.61381  -0.59031  -0.57053  -0.56234
 Alpha  occ. eigenvalues --   -0.54448  -0.50008  -0.48565  -0.46114  -0.43692
 Alpha  occ. eigenvalues --   -0.43391
 Alpha virt. eigenvalues --    0.03166   0.04737   0.05685   0.06138   0.07386
 Alpha virt. eigenvalues --    0.08189   0.08992   0.09489   0.10354   0.12049
 Alpha virt. eigenvalues --    0.12849   0.13454   0.14932   0.15704   0.15760

  Beta  occ. eigenvalues --  -20.62023 -20.60327 -20.56413 -11.42310 -11.29848
  Beta  occ. eigenvalues --  -11.27977 -11.27257 -11.23415  -1.48425  -1.39104
  Beta  occ. eigenvalues --   -1.25639  -1.08103  -1.04861  -0.92002  -0.87641
  Beta  occ. eigenvalues --   -0.76259  -0.73767  -0.69814  -0.67241  -0.65941
  Beta  occ. eigenvalues --   -0.62547  -0.58926  -0.56225  -0.54947  -0.52146
  Beta  occ. eigenvalues --   -0.50872  -0.48724  -0.46895  -0.43719  -0.43458
  Beta virt. eigenvalues --    0.03169   0.04464   0.05328   0.05910   0.07232
  Beta virt. eigenvalues --    0.07549   0.08267   0.09302   0.09542   0.10913
  Beta virt. eigenvalues --    0.12060   0.12860   0.13666   0.15076   0.15724

 Mulliken charges and spin densities:
               1          2
     1  C   -1.709148   0.009004
     2  H    0.227727  -0.000819
     3  C    1.900554  -0.012428
     4  C   -0.043034   0.005634
     5  O   -0.333432  -0.000895
     6  O   -0.155558  -0.008526
     7  C   -0.387395   0.191748
     8  C   -0.404043  -0.008927
     9  H    0.163156  -0.008099
    10  H    0.269659  -0.078678
    11  H    0.176236   0.002484
    12  H    0.126987   0.007253
    13  H    0.135800   0.000710
    14  O   -0.238136   0.934268
    15  H    0.270627  -0.032729
 Sum of Mulliken charges =  -0.00000   1.00000

 Dipole moment (field-independent basis, Debye):
    X=             -0.0905    Y=              3.6592    Z=             -0.9785  Tot=              3.7888
 Quadrupole moment (field-independent basis, Debye-Ang):
   XX=            -49.3121   YY=            -47.3348   ZZ=            -48.1744
   XY=             11.4044   XZ=             -4.9865   YZ=              0.5050

 2\PMP3-0=-419.2684748\MP4SDQ=-419.2911535\CCSD=-419.2899299\CCSD(T)=-4
 Normal termination of Gaussian 16 at Wed May  7 04:56:35 2025.
