 Gaussian 16, Revision A.03,
 Gaussian 16:  ES64L-G16RevA.03 25-Dec-2016

 --------------------------
 # freq 6-311++g(d,p) m062x
 --------------------------

 -------------------
 Title Card Required
 -------------------
 Symbolic Z-matrix:
 Charge =  0 Multiplicity = 2

                         Standard orientation:
 ---------------------------------------------------------------------
 Center     Atomic      Atomic             Coordinates (Angstroms)
 Number     Number       Type             X           Y           Z
 ---------------------------------------------------------------------
      1          6           0        2.518841    1.216867   -0.685243
      2          1           0        3.151085    2.010743   -1.008903
      3          6           0        1.814161    0.318239   -0.320132
      4          6           0        1.023855   -0.822532    0.146585
      5          8           0        1.527452   -1.853332    0.472548
      6          8           0       -0.307952   -0.653415    0.188274
      7          6           0       -0.897346    0.593274   -0.198867
      8          6           0       -1.043237    1.539202    0.964602
      9          1           0       -0.359580    1.021487   -1.046156
     10          1           0       -1.901406    0.332091   -0.581384
     11          1           0       -1.574653    1.050584    1.782451
     12          1           0       -0.066023    1.871370    1.322528
     13          1           0       -1.614911    2.415159    0.652841
     14          8           0       -3.146374   -0.544340   -0.683907
     15          1           0       -2.717156   -1.363046   -0.378366
 ---------------------------------------------------------------------

 SCF Done:  E(UM062X) =  -420.193643626     A.U. after   22 cycles

 The electronic state is 2-A.
 Alpha  occ. eigenvalues --  -19.69246 -19.68493 -19.63650 -10.71580 -10.61979
 Alpha  occ. eigenvalues --  -10.58498 -10.58080 -10.54901  -1.26103  -1.17654
 Alpha  occ. eigenvalues --   -1.14625  -0.90150  -0.89444  -0.78117  -0.74535
 Alpha  occ. eigenvalues --   -0.65585  -0.62496  -0.60699  -0.57679  -0.56693
 Alpha  occ. eigenvalues --   -0.54659  -0.50488  -0.50162  -0.47919  -0.45740
 Alpha  occ. eigenvalues --   -0.43718  -0.41289  -0.40508  -0.38605  -0.38050
 Alpha  occ. eigenvalues --   -0.36770
 Alpha virt. eigenvalues --   -0.02797  -0.00842   0.00377   0.01243   0.01513
 Alpha virt. eigenvalues --    0.02940   0.03574   0.04407   0.05442   0.06039
 Alpha virt. eigenvalues --    0.06728   0.07488   0.08608   0.09429   0.09978

  Beta  occ. eigenvalues --  -19.69250 -19.66996 -19.63648 -10.71574 -10.61763
  Beta  occ. eigenvalues --  -10.58495 -10.58080 -10.54904  -1.26064  -1.17582
  Beta  occ. eigenvalues --   -1.07697  -0.90091  -0.88953  -0.77906  -0.74311
  Beta  occ. eigenvalues --   -0.65147  -0.62371  -0.58957  -0.57479  -0.54707
  Beta  occ. eigenvalues --   -0.52610  -0.50220  -0.48039  -0.46611  -0.42945
  Beta  occ. eigenvalues --   -0.40539  -0.40314  -0.39382  -0.38138  -0.37069
  Beta virt. eigenvalues --   -0.10942  -0.02775  -0.00804   0.00597   0.01381
  Beta virt. eigenvalues --    0.01567   0.02998   0.03675   0.04558   0.05485
  Beta virt. eigenvalues --    0.06126   0.06788   0.07630   0.08731   0.09456

 Mulliken charges and spin densities:
               1          2
     1  C   -1.311027   0.014664
     2  H    0.202457   0.000031
     3  C    1.512453  -0.008777
     4  C   -0.187331  -0.002626
     5  O   -0.246379   0.001238
     6  O   -0.062214  -0.002745
     7  C   -0.500542   0.171617
     8  C   -0.377286   0.003203
     9  H    0.187858  -0.000449
    10  H    0.270556  -0.036313
    11  H    0.198569   0.000666
    12  H    0.144239   0.007944
    13  H    0.167909  -0.000143
    14  O   -0.264840   0.869414
    15  H    0.265577  -0.017723
 Sum of Mulliken charges =  -0.00000   1.00000

 Dipole moment (field-independent basis, Debye):
    X=              0.4528    Y=              3.6045    Z=             -0.6904  Tot=              3.6978
 Quadrupole moment (field-independent basis, Debye-Ang):
   XX=            -50.9507   YY=            -46.6299   ZZ=            -48.0862
   XY=              9.7603   XZ=             -5.1806   YZ=              0.3802

  Exact polarizability:  89.384  10.265  78.274  -0.530  -4.710  53.497
 Approx polarizability:  89.503  11.469  95.951  -2.183 -12.079  62.531

 ******    2 imaginary frequencies (negative Signs) ******

                      1                      2                      3
                      A                      A                      A
 Frequencies --   -240.9548              -106.6192                14.4975
 Red. masses --      2.7250                 3.8911                 5.8800
 Frc consts  --      0.0932                 0.0261                 0.0007
 IR Inten    --     36.0114                 0.2717                19.4373

                      4                      5                      6
                      A                      A                      A
 Frequencies --     44.0523                87.6328               159.2621
 Red. masses --      3.6033                 6.0694                 3.1615
 Frc consts  --      0.0041                 0.0275                 0.0472
 IR Inten    --      3.4090                 6.6167                 2.7225

                      7                      8                      9
                      A                      A                      A
 Frequencies --    221.5073               229.3541               260.1190
 Red. masses --      1.1622                 1.1299                 4.6346
 Frc consts  --      0.0336                 0.0350                 0.1848
 IR Inten    --      2.9592               107.1472                 0.8539

                     10                     11                     12
                      A                      A                      A
 Frequencies --    330.1781               401.8602               553.0735
 Red. masses --      2.9867                 3.4698                 5.0654
 Frc consts  --      0.1918                 0.3301                 0.9129
 IR Inten    --      8.5875                 7.7154                 5.6826

                     13                     14                     15
                      A                      A                      A
 Frequencies --    607.3136               653.5984               734.7244
 Red. masses --      2.1791                 1.7756                 1.3190
 Frc consts  --      0.4735                 0.4469                 0.4195
 IR Inten    --     52.2209               162.3610                35.1071

                     16                     17                     18
                      A                      A                      A
 Frequencies --    757.0674               765.2657               776.9305
 Red. masses --      2.0983                10.4309                 1.2935
 Frc consts  --      0.7086                 3.5991                 0.4600
 IR Inten    --     25.0044                16.7675                42.3813

                     19                     20                     21
                      A                      A                      A
 Frequencies --    782.6004               961.4005              1115.6190
 Red. masses --      1.8394                 2.2345                 3.2675
 Frc consts  --      0.6637                 1.2168                 2.3960
 IR Inten    --      4.9795                19.7639                33.1411

                     22                     23                     24
                      A                      A                      A
 Frequencies --   1127.5924              1161.9194              1246.0613
 Red. masses --      2.1111                 2.1851                 3.1974
 Frc consts  --      1.5815                 1.7381                 2.9250
 IR Inten    --     40.9263                44.7482               418.4262

                     25                     26                     27
                      A                      A                      A
 Frequencies --   1316.9923              1379.3068              1420.6744
 Red. masses --      1.3870                 1.2288                 1.3456
 Frc consts  --      1.4174                 1.3774                 1.6002
 IR Inten    --    272.7935                 6.9758                24.0853

                     28                     29                     30
                      A                      A                      A
 Frequencies --   1473.3177              1487.6386              1501.8235
 Red. masses --      1.0902                 1.0386                 1.0703
 Frc consts  --      1.3943                 1.3542                 1.4223
 IR Inten    --     41.4853                 9.8500                16.9164

                     31                     32                     33
                      A                      A                      A
 Frequencies --   1871.7795              2253.1138              2511.6799
 Red. masses --     12.8696                 5.7246                 1.1015
 Frc consts  --     26.5658                17.1224                 4.0941
 IR Inten    --    493.1579                62.9733               847.0892

                     34                     35                     36
                      A                      A                      A
 Frequencies --   3068.2958              3119.9176              3145.0362
 Red. masses --      1.0355                 1.0849                 1.1022
 Frc consts  --      5.7436                 6.2220                 6.4235
 IR Inten    --      6.3685                 7.4565                10.5626

                     37                     38                     39
                      A                      A                      A
 Frequencies --   3158.1701              3486.8016              3769.9290
 Red. masses --      1.1024                 1.1702                 1.0670
 Frc consts  --      6.4785                 8.3825                 8.9346
 IR Inten    --      9.2052                63.8295                39.3799

 - Thermochemistry -
 -------------------
 Temperature   298.150 Kelvin.  Pressure   1.00000 Atm.
 Atom     1 has atomic number  6 and mass  12.00000

 Molecular mass:   115.03952 amu.
 Principal axes and moments of inertia in atomic units:
                           1         2         3
     Eigenvalues --   648.929561473.331671849.21912
           X            0.99982   0.01364  -0.01342
           Y           -0.01323   0.99947   0.02972
           Z            0.01381  -0.02953   0.99947
 This molecule is an asymmetric top.
 Rotational symmetry number  1.
 Warning -- assumption of classical behavior for rotation
           may cause significant error
 Rotational temperatures (Kelvin)      0.13347     0.05879     0.04684
 Rotational constants (GHZ):           2.78110     1.22494     0.97595
    2 imaginary frequencies ignored.
 Zero-point vibrational energy     286841.2 (Joules/Mol)
                                   68.55670 (Kcal/Mol)
 Warning -- explicit consideration of  11 degrees of freedom as
           vibrations may cause significant error
 Vibrational temperatures:     20.86    63.38   126.08   229.14   318.70
          (Kelvin)            329.99   374.25   475.05   578.19   795.75
                              873.79   940.38  1057.10  1089.25  1101.05
                             1117.83  1125.99  1383.24  1605.13  1622.35
                             1671.74  1792.80  1894.86  1984.51  2044.03
                             2119.78  2140.38  2160.79  2693.07  3241.73
                             3613.75  4414.59  4488.87  4525.01  4543.90
                             5016.73  5424.09

 Zero-point correction=                           0.109252 (Hartree/Particle)
 Thermal correction to Energy=                    0.118527
 Thermal correction to Enthalpy=                  0.119471
 Thermal correction to Gibbs Free Energy=         0.072082
 Sum of electronic and zero-point Energies=           -420.084392
 Sum of electronic and thermal Energies=              -420.075117
 Sum of electronic and thermal Enthalpies=            -420.074173
 Sum of electronic and thermal Free Energies=         -420.121562

                     E (Thermal)             CV                S
                      KCal/Mol        Cal/Mol-Kelvin    Cal/Mol-Kelvin
 Total                   74.377             30.813             99.740
 Electronic               0.000              0.000              1.377
 Translational            0.889              2.981             40.136
 Rotational               0.889              2.981             28.960
 Vibrational             72.599             24.851             29.267
 Vibration     1          0.593              1.986              7.273
 Vibration     2          0.595              1.980              5.068
 Vibration     3          0.601              1.958              3.712
 Vibration     4          0.621              1.892              2.559
 Vibration     5          0.648              1.808              1.947
 Vibration     6          0.652              1.796              1.884
 Vibration     7          0.668              1.746              1.661
 Vibration     8          0.713              1.615              1.259
 Vibration     9          0.767              1.466              0.956
 Vibration    10          0.908              1.133              0.538
 Vibration    11          0.966              1.016              0.437

 1\1\GINC-AJ\Freq\UM062X\6-311++G(d,p)\C5H7O3(2)\AAYUSH\29-Mar-2025\0\\
 # freq 6-311++g(d,p) m062x\\Title Card Required\\0,2\C,2.469355,1.2942
 93,-0.672148\H,3.098039,2.092274,-0.992635\C,1.768707,0.391077,-0.3106
 17\C,0.983514,-0.755018,0.151667\O,1.491818,-1.784355,0.474935\O,-0.34
 915,-0.592566,0.192454\C,-0.944244,0.652429,-0.191406\C,-1.096009,1.59
 3968,0.974868\H,-0.407688,1.085935,-1.036768\H,-1.946604,0.387529,-0.5
 75821\H,-1.625887,1.100181,1.790608\H,-0.120816,1.929797,1.334886\H,-1
 .671644,2.468086,0.665243\O,-3.187147,-0.49467,-0.682433\H,-2.75424,-1

 Normal termination of Gaussian 16 at Sat Mar 29 03:50:22 2025.
