 Gaussian 16, Revision A.03,
 Gaussian 16:  ES64L-G16RevA.03 25-Dec-2016

 --------------------------
 # ccsd(t)/6-311++g(d,p) sp
 --------------------------

 -------------------
 Title Card Required
 -------------------
 Symbolic Z-matrix:
 Charge =  0 Multiplicity = 2

                         Standard orientation:
 ---------------------------------------------------------------------
 Center     Atomic      Atomic             Coordinates (Angstroms)
 Number     Number       Type             X           Y           Z
 ---------------------------------------------------------------------
      1          6           0        2.514253    1.234622   -0.678144
      2          1           0        3.142631    2.033116   -0.998448
      3          6           0        1.813770    0.330952   -0.317515
      4          6           0        1.032789   -0.815977    0.143586
      5          8           0        1.538025   -1.844981    0.468028
      6          8           0       -0.303334   -0.652703    0.187758
      7          6           0       -0.914442    0.572133   -0.192531
      8          6           0       -1.060021    1.526542    0.962021
      9          1           0       -0.451349    0.989076   -1.088369
     10          1           0       -2.029156    0.204005   -0.538970
     11          1           0       -1.577882    1.038855    1.788733
     12          1           0       -0.074947    1.856952    1.305871
     13          1           0       -1.632348    2.402472    0.653927
     14          8           0       -3.106788   -0.532517   -0.685180
     15          1           0       -2.718263   -1.372500   -0.392099
 ---------------------------------------------------------------------

 SCF Done:  E(UHF) =  -417.954419302     A.U. after   34 cycles
 E2 =    -0.1284279280D+01 EUMP2 =    -0.41923869858145D+03
 CCSD(T)= -0.41934114841D+03

 The electronic state is 2-A.
 Alpha  occ. eigenvalues --  -20.62935 -20.62375 -20.56783 -11.42685 -11.32186
 Alpha  occ. eigenvalues --  -11.28334 -11.27504 -11.23862  -1.48909  -1.40057
 Alpha  occ. eigenvalues --   -1.39090  -1.08446  -1.06199  -0.92844  -0.88483
 Alpha  occ. eigenvalues --   -0.77277  -0.74749  -0.73667  -0.68896  -0.67992
 Alpha  occ. eigenvalues --   -0.66491  -0.61073  -0.59481  -0.56848  -0.55741
 Alpha  occ. eigenvalues --   -0.54723  -0.50006  -0.48646  -0.44814  -0.43951
 Alpha  occ. eigenvalues --   -0.43245
 Alpha virt. eigenvalues --    0.03052   0.04722   0.05682   0.06206   0.07163
 Alpha virt. eigenvalues --    0.08087   0.08960   0.09427   0.10374   0.11922
 Alpha virt. eigenvalues --    0.12754   0.13331   0.14866   0.15543   0.15668

  Beta  occ. eigenvalues --  -20.62419 -20.59337 -20.56790 -11.42637 -11.30911
  Beta  occ. eigenvalues --  -11.28301 -11.27533 -11.23935  -1.48805  -1.39558
  Beta  occ. eigenvalues --   -1.26679  -1.08408  -1.04524  -0.92278  -0.87516
  Beta  occ. eigenvalues --   -0.76330  -0.73998  -0.69626  -0.67565  -0.65931
  Beta  occ. eigenvalues --   -0.61735  -0.59256  -0.56603  -0.55151  -0.51423
  Beta  occ. eigenvalues --   -0.50756  -0.48869  -0.46751  -0.44023  -0.43796
  Beta virt. eigenvalues --    0.03055   0.04242   0.05165   0.05839   0.06867
  Beta virt. eigenvalues --    0.07221   0.08112   0.09224   0.09472   0.10884
  Beta virt. eigenvalues --    0.11944   0.12784   0.13442   0.14982   0.15581

 Mulliken charges and spin densities:
               1          2
     1  C   -1.687281   0.008597
     2  H    0.229405  -0.001302
     3  C    1.895087  -0.020779
     4  C   -0.056978   0.017375
     5  O   -0.326722  -0.001084
     6  O   -0.144195  -0.027262
     7  C   -0.389508   0.442346
     8  C   -0.398890  -0.036367
     9  H    0.177534  -0.021199
    10  H    0.274000  -0.166723
    11  H    0.183372   0.005791
    12  H    0.128282   0.019832
    13  H    0.140250   0.001955
    14  O   -0.294226   0.806156
    15  H    0.269870  -0.027335
 Sum of Mulliken charges =  -0.00000   1.00000

 Dipole moment (field-independent basis, Debye):
    X=              0.4681    Y=              3.8755    Z=             -0.8165  Tot=              3.9881
 Quadrupole moment (field-independent basis, Debye-Ang):
   XX=            -51.1397   YY=            -47.0401   ZZ=            -48.1134
   XY=             10.8089   XZ=             -5.5184   YZ=              0.4408

 P3-0=-419.2637353\MP4SDQ=-419.2865269\CCSD=-419.2861301\CCSD(T)=-419.3
 Normal termination of Gaussian 16 at Wed May  7 05:47:56 2025.
