 Gaussian 16, Revision A.03,
 Gaussian 16:  ES64L-G16RevA.03 25-Dec-2016

 --------------------------
 # freq 6-311++g(d,p) m062x
 --------------------------

 -------------------
 Title Card Required
 -------------------
 Symbolic Z-matrix:
 Charge =  0 Multiplicity = 2

                         Standard orientation:
 ---------------------------------------------------------------------
 Center     Atomic      Atomic             Coordinates (Angstroms)
 Number     Number       Type             X           Y           Z
 ---------------------------------------------------------------------
      1          6           0        2.515030    1.235708   -0.678365
      2          1           0        3.143223    2.034365   -0.998875
      3          6           0        1.814704    0.331906   -0.317644
      4          6           0        1.035089   -0.815493    0.143231
      5          8           0        1.539360   -1.843982    0.467910
      6          8           0       -0.303307   -0.650774    0.187908
      7          6           0       -0.908002    0.572522   -0.189125
      8          6           0       -1.060950    1.526018    0.961580
      9          1           0       -0.468679    0.982295   -1.099104
     10          1           0       -2.147956    0.130842   -0.555931
     11          1           0       -1.576100    1.039251    1.790591
     12          1           0       -0.072940    1.855067    1.303485
     13          1           0       -1.631680    2.402937    0.654329
     14          8           0       -3.098254   -0.527415   -0.683188
     15          1           0       -2.723488   -1.371357   -0.393598
 ---------------------------------------------------------------------

 SCF Done:  E(UM062X) =  -420.198935785     A.U. after   20 cycles

 The electronic state is 2-A.
 Alpha  occ. eigenvalues --  -19.70649 -19.64765 -19.63130 -10.72689 -10.64820
 Alpha  occ. eigenvalues --  -10.59413 -10.58925 -10.56420  -1.27464  -1.19026
 Alpha  occ. eigenvalues --   -1.11510  -0.91116  -0.90431  -0.79490  -0.75457
 Alpha  occ. eigenvalues --   -0.66635  -0.63292  -0.61380  -0.58977  -0.56960
 Alpha  occ. eigenvalues --   -0.52870  -0.51862  -0.49710  -0.49075  -0.46551
 Alpha  occ. eigenvalues --   -0.41638  -0.41462  -0.39485  -0.39162  -0.38347
 Alpha  occ. eigenvalues --   -0.32401
 Alpha virt. eigenvalues --   -0.03741  -0.01208   0.00463   0.01087   0.01346
 Alpha virt. eigenvalues --    0.02582   0.03241   0.04326   0.05155   0.05929
 Alpha virt. eigenvalues --    0.06475   0.07298   0.08253   0.08995   0.09757

  Beta  occ. eigenvalues --  -19.70607 -19.64753 -19.62348 -10.72653 -10.64140
  Beta  occ. eigenvalues --  -10.59406 -10.58925 -10.56431  -1.27231  -1.18820
  Beta  occ. eigenvalues --   -1.08556  -0.90963  -0.89138  -0.78863  -0.74872
  Beta  occ. eigenvalues --   -0.65655  -0.63142  -0.59033  -0.58439  -0.55360
  Beta  occ. eigenvalues --   -0.51684  -0.51216  -0.48948  -0.47537  -0.44065
  Beta  occ. eigenvalues --   -0.41421  -0.40679  -0.39060  -0.38169  -0.37847
  Beta virt. eigenvalues --   -0.10356  -0.03603  -0.01174   0.00552   0.01150
  Beta virt. eigenvalues --    0.01500   0.02648   0.03323   0.04503   0.05228
  Beta virt. eigenvalues --    0.06027   0.06607   0.07364   0.08373   0.09021

 Mulliken charges and spin densities:
               1          2
     1  C   -1.285379   0.021315
     2  H    0.206429   0.000113
     3  C    1.510777  -0.021474
     4  C   -0.207294   0.014857
     5  O   -0.229227   0.006701
     6  O   -0.044425  -0.018762
     7  C   -0.506779   0.667080
     8  C   -0.370260  -0.027462
     9  H    0.214517  -0.013727
    10  H    0.353775  -0.049744
    11  H    0.216703   0.007777
    12  H    0.151734   0.039965
    13  H    0.178836   0.001707
    14  O   -0.448580   0.375734
    15  H    0.259171  -0.004079
 Sum of Mulliken charges =  -0.00000   1.00000

 Dipole moment (field-independent basis, Debye):
    X=              2.1462    Y=              4.3133    Z=             -0.2018  Tot=              4.8219
 Quadrupole moment (field-independent basis, Debye-Ang):
   XX=            -56.6986   YY=            -45.8755   ZZ=            -47.9002
   XY=              7.7286   XZ=             -6.7698   YZ=              0.1659

  Exact polarizability:  94.065  11.731  79.792   0.837  -3.809  54.188
 Approx polarizability:  95.944  14.060  99.047  -0.109 -10.807  63.653

 ******    1 imaginary frequencies (negative Signs) ******

                      1                      2                      3
                      A                      A                      A
 Frequencies --  -1518.9505                47.5266                71.1761
 Red. masses --      1.0942                 5.0823                 5.4289
 Frc consts  --      1.4874                 0.0068                 0.0162
 IR Inten    --    451.6523                 0.3916                 1.6115

                      4                      5                      6
                      A                      A                      A
 Frequencies --    128.5984               150.6584               185.5896
 Red. masses --      4.3261                 4.7905                 1.3995
 Frc consts  --      0.0422                 0.0641                 0.0284
 IR Inten    --      0.8944                 5.2551                 0.5597

                      7                      8                      9
                      A                      A                      A
 Frequencies --    199.4185               246.0575               257.3519
 Red. masses --      1.9324                 1.2371                 3.2676
 Frc consts  --      0.0453                 0.0441                 0.1275
 IR Inten    --      1.7230                88.2457                10.1211

                     10                     11                     12
                      A                      A                      A
 Frequencies --    307.5154               414.8720               528.2004
 Red. masses --      5.3788                 3.4180                 6.1358
 Frc consts  --      0.2997                 0.3466                 1.0086
 IR Inten    --      1.2440                11.1294                 3.7527

                     13                     14                     15
                      A                      A                      A
 Frequencies --    601.1718               649.7934               738.8006
 Red. masses --      3.7240                 3.5226                 1.3108
 Frc consts  --      0.7930                 0.8763                 0.4215
 IR Inten    --     10.3491                 0.7770                37.4457

                     16                     17                     18
                      A                      A                      A
 Frequencies --    750.1580               756.4765               778.6116
 Red. masses --      2.6005                12.0041                 1.2846
 Frc consts  --      0.8622                 4.0473                 0.4589
 IR Inten    --     28.0129                23.6803                37.6751

                     19                     20                     21
                      A                      A                      A
 Frequencies --    817.5201               839.1413               965.9898
 Red. masses --      1.3581                 1.2212                 2.4165
 Frc consts  --      0.5348                 0.5067                 1.3286
 IR Inten    --     56.8551                49.4990                18.0425

                     22                     23                     24
                      A                      A                      A
 Frequencies --   1066.9497              1117.5467              1141.1343
 Red. masses --      1.1796                 2.8113                 3.3471
 Frc consts  --      0.7912                 2.0687                 2.5680
 IR Inten    --     59.1093                21.3968               123.4115

                     25                     26                     27
                      A                      A                      A
 Frequencies --   1182.6540              1238.2830              1369.0253
 Red. masses --      1.5067                 8.4972                 1.2071
 Frc consts  --      1.2417                 7.6765                 1.3329
 IR Inten    --     16.6130               687.1758                 5.3764

                     28                     29                     30
                      A                      A                      A
 Frequencies --   1411.0723              1476.2168              1478.6557
 Red. masses --      1.3201                 1.0413                 1.0490
 Frc consts  --      1.5487                 1.3370                 1.3513
 IR Inten    --     33.9129                 4.6418                 1.2359

                     31                     32                     33
                      A                      A                      A
 Frequencies --   1619.2630              1877.8501              2254.4365
 Red. masses --      1.0433                12.9587                 5.7225
 Frc consts  --      1.6117                26.9236                17.1361
 IR Inten    --     60.7931               478.0725                68.1428

                     34                     35                     36
                      A                      A                      A
 Frequencies --   3047.5133              3129.7496              3136.4108
 Red. masses --      1.0425                 1.0906                 1.0877
 Frc consts  --      5.7043                 6.2940                 6.3044
 IR Inten    --      1.4810                 4.7028                 6.1042

                     37                     38                     39
                      A                      A                      A
 Frequencies --   3166.5614              3485.1754              3840.0566
 Red. masses --      1.1027                 1.1707                 1.0661
 Frc consts  --      6.5146                 8.3779                 9.2621
 IR Inten    --      4.6675                66.6276                57.2645

 - Thermochemistry -
 -------------------
 Temperature   298.150 Kelvin.  Pressure   1.00000 Atm.
 Atom     1 has atomic number  6 and mass  12.00000

 Molecular mass:   115.03952 amu.
 Principal axes and moments of inertia in atomic units:
                           1         2         3
     Eigenvalues --   643.193191463.709141835.89566
           X            0.99981   0.01506  -0.01265
           Y           -0.01466   0.99943   0.03049
           Z            0.01310  -0.03030   0.99945
 This molecule is an asymmetric top.
 Rotational symmetry number  1.
 Warning -- assumption of classical behavior for rotation
           may cause significant error
 Rotational temperatures (Kelvin)      0.13466     0.05917     0.04718
 Rotational constants (GHZ):           2.80591     1.23299     0.98303
    1 imaginary frequencies ignored.
 Zero-point vibrational energy     277971.4 (Joules/Mol)
                                   66.43675 (Kcal/Mol)
 Warning -- explicit consideration of  12 degrees of freedom as
           vibrations may cause significant error
 Vibrational temperatures:     68.38   102.41   185.02   216.76   267.02
          (Kelvin)            286.92   354.02   370.27   442.45   596.91
                              759.96   864.95   934.91  1062.97  1079.31
                             1088.40  1120.25  1176.23  1207.34  1389.84
                             1535.10  1607.90  1641.84  1701.58  1781.61
                             1969.72  2030.22  2123.95  2127.46  2329.76
                             2701.81  3243.63  4384.69  4503.01  4512.60
                             4555.98  5014.39  5524.99

 Zero-point correction=                           0.105874 (Hartree/Particle)
 Thermal correction to Energy=                    0.115666
 Thermal correction to Enthalpy=                  0.116611
 Thermal correction to Gibbs Free Energy=         0.069828
 Sum of electronic and zero-point Energies=           -420.093062
 Sum of electronic and thermal Energies=              -420.083269
 Sum of electronic and thermal Enthalpies=            -420.082325
 Sum of electronic and thermal Free Energies=         -420.129108

                     E (Thermal)             CV                S
                      KCal/Mol        Cal/Mol-Kelvin    Cal/Mol-Kelvin
 Total                   72.582             33.402             98.463
 Electronic               0.000              0.000              1.377
 Translational            0.889              2.981             40.136
 Rotational               0.889              2.981             28.937
 Vibrational             70.804             27.440             28.013
 Vibration     1          0.595              1.979              4.918
 Vibration     2          0.598              1.968              4.121
 Vibration     3          0.611              1.925              2.967
 Vibration     4          0.618              1.902              2.664
 Vibration     5          0.632              1.860              2.271
 Vibration     6          0.638              1.841              2.138
 Vibration     7          0.661              1.769              1.759
 Vibration     8          0.667              1.750              1.680
 Vibration     9          0.697              1.659              1.376
 Vibration    10          0.778              1.438              0.910
 Vibration    11          0.883              1.188              0.591
 Vibration    12          0.959              1.029              0.448

 1\1\GINC-AJ\Freq\UM062X\6-311++G(d,p)\C5H7O3(2)\AAYUSH\29-Mar-2025\0\\
 # freq 6-311++g(d,p) m062x\\Title Card Required\\0,2\C,2.468653,1.2947
 19,-0.672407\H,3.09742,2.092855,-0.993089\C,1.767677,0.391499,-0.31148
 9\C,0.987237,-0.755233,0.149649\O,1.49078,-1.783953,0.474727\O,-0.3510
 55,-0.58961,0.194093\C,-0.954886,0.633967,-0.183414\C,-1.107354,1.5879
 34,0.966964\H,-0.515168,1.043155,-1.093466\H,-2.195084,0.192994,-0.550
 245\H,-1.622939,1.101777,1.796062\H,-0.119171,1.916436,1.308896\H,-1.6
 77459,2.465134,0.659354\O,-3.145802,-0.464671,-0.677419\H,-2.771637,-1

 Normal termination of Gaussian 16 at Sat Mar 29 04:24:47 2025.
