 Gaussian 16, Revision A.03,
 Gaussian 16:  ES64L-G16RevA.03 25-Dec-2016

 --------------------------
 # ccsd(t)/6-311++g(d,p) sp
 --------------------------

 -------------------
 Title Card Required
 -------------------
 Symbolic Z-matrix:
 Charge =  0 Multiplicity = 2

                         Standard orientation:
 ---------------------------------------------------------------------
 Center     Atomic      Atomic             Coordinates (Angstroms)
 Number     Number       Type             X           Y           Z
 ---------------------------------------------------------------------
      1          6           0        2.520447    1.211969   -0.687053
      2          1           0        3.153820    2.004515   -1.011742
      3          6           0        1.814652    0.314732   -0.320645
      4          6           0        1.021965   -0.824300    0.147326
      5          8           0        1.524480   -1.855464    0.473989
      6          8           0       -0.309484   -0.652414    0.188057
      7          6           0       -0.891184    0.599227   -0.200345
      8          6           0       -1.039078    1.542617    0.965241
      9          1           0       -0.339366    1.028655   -1.037765
     10          1           0       -1.887688    0.349350   -0.595912
     11          1           0       -1.573853    1.053612    1.780679
     12          1           0       -0.062938    1.873637    1.326825
     13          1           0       -1.609196    2.419519    0.653077
     14          8           0       -3.155529   -0.546524   -0.683034
     15          1           0       -2.717332   -1.359546   -0.374394
 ---------------------------------------------------------------------

 SCF Done:  E(UHF) =  -417.974422816     A.U. after   37 cycles
 E2 =    -0.1269750039D+01 EUMP2 =    -0.41924417285476D+03
 CCSD(T)= -0.41934492013D+03

 The electronic state is 2-A.
 Alpha  occ. eigenvalues --  -20.64430 -20.62030 -20.56401 -11.42323 -11.30297
 Alpha  occ. eigenvalues --  -11.27968 -11.27237 -11.23369  -1.48409  -1.40514
 Alpha  occ. eigenvalues --   -1.38980  -1.08099  -1.05723  -0.92189  -0.88199
 Alpha  occ. eigenvalues --   -0.76822  -0.74187  -0.72921  -0.69387  -0.67774
 Alpha  occ. eigenvalues --   -0.66910  -0.61600  -0.58988  -0.57111  -0.56227
 Alpha  occ. eigenvalues --   -0.54501  -0.50242  -0.48701  -0.46542  -0.43687
 Alpha  occ. eigenvalues --   -0.43367
 Alpha virt. eigenvalues --    0.03164   0.04741   0.05689   0.06132   0.07402
 Alpha virt. eigenvalues --    0.08197   0.09006   0.09457   0.10346   0.12062
 Alpha virt. eigenvalues --    0.12851   0.13489   0.14897   0.15707   0.15786

  Beta  occ. eigenvalues --  -20.62059 -20.60380 -20.56407 -11.42311 -11.29827
  Beta  occ. eigenvalues --  -11.27950 -11.27254 -11.23395  -1.48391  -1.39072
  Beta  occ. eigenvalues --   -1.25168  -1.08089  -1.05019  -0.91940  -0.87759
  Beta  occ. eigenvalues --   -0.76325  -0.73773  -0.69898  -0.67234  -0.65683
  Beta  occ. eigenvalues --   -0.62799  -0.58909  -0.56255  -0.54977  -0.52111
  Beta  occ. eigenvalues --   -0.50997  -0.48787  -0.47020  -0.43705  -0.43411
  Beta virt. eigenvalues --    0.03167   0.04530   0.05350   0.05890   0.07284
  Beta virt. eigenvalues --    0.07639   0.08280   0.09317   0.09562   0.10868
  Beta virt. eigenvalues --    0.12075   0.12867   0.13714   0.15046   0.15736

 Mulliken charges and spin densities:
               1          2
     1  C   -1.709084   0.009289
     2  H    0.227535  -0.000738
     3  C    1.895154  -0.010911
     4  C   -0.037758   0.003484
     5  O   -0.334653  -0.000888
     6  O   -0.152961  -0.004690
     7  C   -0.388321   0.140626
     8  C   -0.401132  -0.003137
     9  H    0.161228  -0.005073
    10  H    0.260925  -0.060060
    11  H    0.175321   0.001759
    12  H    0.127321   0.004870
    13  H    0.135030   0.000377
    14  O   -0.228934   0.958903
    15  H    0.270328  -0.033810
 Sum of Mulliken charges =  -0.00000   1.00000

 Dipole moment (field-independent basis, Debye):
    X=             -0.0803    Y=              3.6725    Z=             -0.9928  Tot=              3.8051
 Quadrupole moment (field-independent basis, Debye-Ang):
   XX=            -49.3363   YY=            -47.4171   ZZ=            -48.1806
   XY=             11.3665   XZ=             -4.9908   YZ=              0.4821

 \PMP3-0=-419.2708821\MP4SDQ=-419.2934484\CCSD=-419.2918771\CCSD(T)=-41
 Normal termination of Gaussian 16 at Wed May  7 19:39:58 2025.
