 Gaussian 16, Revision A.03,
 Gaussian 16:  ES64L-G16RevA.03 25-Dec-2016

 --------------------------
 # ccsd(t)/6-311++g(d,p) sp
 --------------------------

 -------------------
 Title Card Required
 -------------------
 Symbolic Z-matrix:
 Charge =  0 Multiplicity = 2

                         Standard orientation:
 ---------------------------------------------------------------------
 Center     Atomic      Atomic             Coordinates (Angstroms)
 Number     Number       Type             X           Y           Z
 ---------------------------------------------------------------------
      1          6           0        2.514626    1.235533   -0.678153
      2          1           0        3.142835    2.034196   -0.998528
      3          6           0        1.814306    0.331703   -0.317534
      4          6           0        1.034279   -0.815597    0.143337
      5          8           0        1.538955   -1.844258    0.467903
      6          8           0       -0.303278   -0.651538    0.187820
      7          6           0       -0.910978    0.572027   -0.190494
      8          6           0       -1.060833    1.526056    0.961753
      9          1           0       -0.462670    0.984716   -1.095184
     10          1           0       -2.099777    0.159286   -0.548346
     11          1           0       -1.576916    1.038874    1.789870
     12          1           0       -0.073867    1.855572    1.304228
     13          1           0       -1.632197    2.402571    0.654210
     14          8           0       -3.101276   -0.529418   -0.684047
     15          1           0       -2.721012   -1.371828   -0.393114
 ---------------------------------------------------------------------

 SCF Done:  E(UHF) =  -417.949022300     A.U. after   33 cycles
 E2 =    -0.1293883892D+01 EUMP2 =    -0.41924290619192D+03
 CCSD(T)= -0.41934298978D+03

 The electronic state is 2-A.
 Alpha  occ. eigenvalues --  -20.63156 -20.60382 -20.57332 -11.43282 -11.33964
 Alpha  occ. eigenvalues --  -11.28832 -11.27946 -11.24654  -1.49624  -1.40401
 Alpha  occ. eigenvalues --   -1.36983  -1.08947  -1.07202  -0.93563  -0.89143
 Alpha  occ. eigenvalues --   -0.77862  -0.74875  -0.73850  -0.68772  -0.68675
 Alpha  occ. eigenvalues --   -0.64594  -0.60937  -0.60202  -0.57655  -0.55425
 Alpha  occ. eigenvalues --   -0.53260  -0.50449  -0.49246  -0.44950  -0.44397
 Alpha  occ. eigenvalues --   -0.42803
 Alpha virt. eigenvalues --    0.02850   0.04628   0.05591   0.06362   0.06844
 Alpha virt. eigenvalues --    0.07922   0.08935   0.09268   0.10393   0.11726
 Alpha virt. eigenvalues --    0.12622   0.13190   0.14684   0.15285   0.15558

  Beta  occ. eigenvalues --  -20.63189 -20.57427 -20.57340 -11.43200 -11.32108
  Beta  occ. eigenvalues --  -11.28785 -11.27985 -11.24757  -1.49416  -1.40162
  Beta  occ. eigenvalues --   -1.27065  -1.08879  -1.04765  -0.92713  -0.87781
  Beta  occ. eigenvalues --   -0.76765  -0.74472  -0.69781  -0.68115  -0.65225
  Beta  occ. eigenvalues --   -0.61483  -0.59758  -0.57230  -0.55715  -0.51226
  Beta  occ. eigenvalues --   -0.49810  -0.49431  -0.47444  -0.44495  -0.44285
  Beta virt. eigenvalues --    0.02855   0.04068   0.04989   0.05682   0.06713
  Beta virt. eigenvalues --    0.06919   0.07939   0.09127   0.09391   0.10825
  Beta virt. eigenvalues --    0.11761   0.12687   0.13237   0.14775   0.15341

 Mulliken charges and spin densities:
               1          2
     1  C   -1.662864   0.007439
     2  H    0.231659  -0.001743
     3  C    1.881499  -0.028270
     4  C   -0.067187   0.030044
     5  O   -0.319071  -0.001154
     6  O   -0.131482  -0.043096
     7  C   -0.380674   0.678056
     8  C   -0.396617  -0.061319
     9  H    0.190736  -0.032335
    10  H    0.297775  -0.204321
    11  H    0.192658   0.008661
    12  H    0.132984   0.033856
    13  H    0.145896   0.003015
    14  O   -0.380572   0.632111
    15  H    0.265260  -0.020943
 Sum of Mulliken charges =  -0.00000   1.00000

 Dipole moment (field-independent basis, Debye):
    X=              1.3920    Y=              4.3104    Z=             -0.5787  Tot=              4.5664
 Quadrupole moment (field-independent basis, Debye-Ang):
   XX=            -54.3362   YY=            -46.7109   ZZ=            -48.0180
   XY=              9.6639   XZ=             -6.3836   YZ=              0.2819

 3-0=-419.2655778\MP4SDQ=-419.2884397\CCSD=-419.2872645\CCSD(T)=-419.34
 Normal termination of Gaussian 16 at Thu May  8 01:11:19 2025.
