 Gaussian 16, Revision A.03,
 Gaussian 16:  ES64L-G16RevA.03 25-Dec-2016

 --------------------------
 # ccsd(t)/6-311++g(d,p) sp
 --------------------------

 -------------------
 Title Card Required
 -------------------
 Symbolic Z-matrix:
 Charge =  0 Multiplicity = 2

                         Standard orientation:
 ---------------------------------------------------------------------
 Center     Atomic      Atomic             Coordinates (Angstroms)
 Number     Number       Type             X           Y           Z
 ---------------------------------------------------------------------
      1          6           0       -1.520964   -1.304845   -0.363158
      2          1           0       -2.028402   -2.230357   -0.521315
      3          6           0       -0.655632   -0.449259   -0.304506
      4          6           0       -0.021618    0.849188   -0.066186
      5          8           0       -0.692138    1.785963    0.265434
      6          8           0        1.292099    0.946145   -0.241154
      7          6           0        2.069319   -0.229914   -0.532719
      8          6           0        2.402062   -0.988791    0.736000
      9          1           0        1.531286   -0.853304   -1.251391
     10          1           0        2.965369    0.157296   -1.014660
     11          1           0        2.917584   -0.336700    1.442091
     12          1           0        1.497786   -1.375772    1.209591
     13          1           0        3.052797   -1.833304    0.501071
     14          8           0       -3.190534   -0.393935    0.276903
     15          1           0       -2.850827    0.508479    0.408573
 ---------------------------------------------------------------------

 SCF Done:  E(UHF) =  -417.974217243     A.U. after   33 cycles
 E2 =    -0.1253202596D+01 EUMP2 =    -0.41922741983915D+03
 CCSD(T)= -0.41934697218D+03

 The electronic state is 2-A.
 Alpha  occ. eigenvalues --  -20.61983 -20.61500 -20.56825 -11.42034 -11.31371
 Alpha  occ. eigenvalues --  -11.27918 -11.27400 -11.24083  -1.48757  -1.39673
 Alpha  occ. eigenvalues --   -1.37162  -1.09186  -1.05876  -0.92028  -0.87940
 Alpha  occ. eigenvalues --   -0.76868  -0.73537  -0.71008  -0.67740  -0.65682
 Alpha  occ. eigenvalues --   -0.64387  -0.64091  -0.59548  -0.56998  -0.55723
 Alpha  occ. eigenvalues --   -0.54483  -0.52028  -0.50311  -0.47829  -0.43918
 Alpha  occ. eigenvalues --   -0.42409
 Alpha virt. eigenvalues --    0.03317   0.04552   0.05216   0.06527   0.07585
 Alpha virt. eigenvalues --    0.07999   0.08142   0.09561   0.11118   0.11758
 Alpha virt. eigenvalues --    0.12826   0.14332   0.14734   0.15432   0.16413

  Beta  occ. eigenvalues --  -20.62047 -20.57750 -20.56192 -11.42433 -11.31337
  Beta  occ. eigenvalues --  -11.29819 -11.25194 -11.24079  -1.48537  -1.38664
  Beta  occ. eigenvalues --   -1.23648  -1.07111  -1.05827  -0.92443  -0.88199
  Beta  occ. eigenvalues --   -0.76604  -0.73350  -0.70107  -0.67562  -0.63767
  Beta  occ. eigenvalues --   -0.62180  -0.59038  -0.56135  -0.55506  -0.51853
  Beta  occ. eigenvalues --   -0.50951  -0.48466  -0.46581  -0.44767  -0.42922
  Beta virt. eigenvalues --    0.03315   0.04390   0.05220   0.06065   0.07009
  Beta virt. eigenvalues --    0.07482   0.08169   0.08920   0.10027   0.11279
  Beta virt. eigenvalues --    0.11831   0.12921   0.14474   0.14751   0.15392

 Mulliken charges and spin densities:
               1          2
     1  C   -0.815116  -0.973273
     2  H    0.249421   0.077129
     3  C    0.919183   1.056512
     4  C   -0.034834  -0.166829
     5  O   -0.370834   0.123539
     6  O   -0.135822   0.010016
     7  C   -0.213378   0.000701
     8  C   -0.410889   0.009412
     9  H    0.146045  -0.003989
    10  H    0.190388   0.000569
    11  H    0.169425  -0.001244
    12  H    0.131784  -0.000902
    13  H    0.128678   0.000888
    14  O   -0.221423   0.899454
    15  H    0.267373  -0.031982
 Sum of Mulliken charges =  -0.00000   1.00000

 Dipole moment (field-independent basis, Debye):
    X=              2.7369    Y=             -3.6064    Z=             -0.9758  Tot=              4.6313
 Quadrupole moment (field-independent basis, Debye-Ang):
   XX=            -47.1996   YY=            -50.3267   ZZ=            -47.3300
   XY=             -1.4346   XZ=              0.0331   YZ=              0.7698

 -419.2925298\CCSD(T)=-419.3469722\S2=1.049943\S2-1=0.9705\S2A=0.810655
 Normal termination of Gaussian 16 at Tue May 13 15:31:52 2025.
