 Gaussian 16, Revision A.03,
 Gaussian 16:  ES64L-G16RevA.03 25-Dec-2016

 --------------------------
 # freq 6-311++g(d,p) m062x
 --------------------------

 -------------------
 Title Card Required
 -------------------
 Symbolic Z-matrix:
 Charge =  0 Multiplicity = 2

                         Standard orientation:
 ---------------------------------------------------------------------
 Center     Atomic      Atomic             Coordinates (Angstroms)
 Number     Number       Type             X           Y           Z
 ---------------------------------------------------------------------
      1          6           0       -1.576669   -1.266705   -0.345264
      2          1           0       -2.014562   -2.226222   -0.532626
      3          6           0       -0.651806   -0.449010   -0.307738
      4          6           0       -0.019161    0.849526   -0.062574
      5          8           0       -0.686609    1.786618    0.273794
      6          8           0        1.294711    0.943185   -0.239216
      7          6           0        2.067477   -0.234167   -0.536817
      8          6           0        2.399678   -0.999581    0.728121
      9          1           0        1.526573   -0.852864   -1.257822
     10          1           0        2.963993    0.151844   -1.018850
     11          1           0        2.918296   -0.352040    1.436096
     12          1           0        1.494965   -1.385355    1.202018
     13          1           0        3.047296   -1.845256    0.488873
     14          8           0       -3.160545   -0.403739    0.267892
     15          1           0       -2.834135    0.501003    0.408186
 ---------------------------------------------------------------------

 SCF Done:  E(UM062X) =  -420.200547215     A.U. after   23 cycles

 The electronic state is 2-A.
 Alpha  occ. eigenvalues --  -19.69493 -19.64492 -19.64353 -10.72093 -10.62552
 Alpha  occ. eigenvalues --  -10.62505 -10.59791 -10.55504  -1.26685  -1.18166
 Alpha  occ. eigenvalues --   -1.10421  -0.91760  -0.89715  -0.78759  -0.75320
 Alpha  occ. eigenvalues --   -0.65873  -0.62728  -0.59836  -0.58223  -0.54314
 Alpha  occ. eigenvalues --   -0.52437  -0.50939  -0.49573  -0.48366  -0.47164
 Alpha  occ. eigenvalues --   -0.43671  -0.42141  -0.40454  -0.39406  -0.37126
 Alpha  occ. eigenvalues --   -0.32828
 Alpha virt. eigenvalues --   -0.03497  -0.01102   0.00435   0.00927   0.01783
 Alpha virt. eigenvalues --    0.02798   0.03464   0.04431   0.05068   0.05625
 Alpha virt. eigenvalues --    0.06841   0.07269   0.08432   0.08758   0.10068

  Beta  occ. eigenvalues --  -19.69496 -19.64242 -19.63393 -10.72128 -10.62643
  Beta  occ. eigenvalues --  -10.62534 -10.59376 -10.55502  -1.26589  -1.17914
  Beta  occ. eigenvalues --   -1.06220  -0.90114  -0.89638  -0.78587  -0.75020
  Beta  occ. eigenvalues --   -0.65635  -0.62333  -0.59430  -0.58063  -0.54135
  Beta  occ. eigenvalues --   -0.50706  -0.50327  -0.48405  -0.47114  -0.43606
  Beta  occ. eigenvalues --   -0.42148  -0.41126  -0.39135  -0.38135  -0.35098
  Beta virt. eigenvalues --   -0.10368  -0.03382  -0.01098   0.00559   0.00924
  Beta virt. eigenvalues --    0.02048   0.03046   0.03805   0.04512   0.05574
  Beta virt. eigenvalues --    0.06090   0.07074   0.07831   0.08617   0.09019

 Mulliken charges and spin densities:
               1          2
     1  C   -0.581776  -0.283111
     2  H    0.236597   0.026220
     3  C    0.711280   0.609403
     4  C   -0.127822  -0.011171
     5  O   -0.276708   0.037092
     6  O   -0.028543   0.012410
     7  C   -0.353561  -0.000380
     8  C   -0.411610   0.013176
     9  H    0.172436  -0.001804
    10  H    0.218865   0.002567
    11  H    0.188959  -0.001226
    12  H    0.144564   0.000744
    13  H    0.159220   0.000736
    14  O   -0.297663   0.608978
    15  H    0.245764  -0.013635
 Sum of Mulliken charges =  -0.00000   1.00000

 Dipole moment (field-independent basis, Debye):
    X=              3.7826    Y=             -3.4123    Z=             -1.1415  Tot=              5.2206
 Quadrupole moment (field-independent basis, Debye-Ang):
   XX=            -51.0744   YY=            -48.9522   ZZ=            -47.3991
   XY=             -1.5712   XZ=              0.7022   YZ=              0.9890

  Exact polarizability: 106.427   0.263  71.611  -6.557   4.127  51.778
 Approx polarizability: 111.225   4.360  90.058  -8.848   7.283  61.071

 ******    1 imaginary frequencies (negative Signs) ******

                      1                      2                      3
                      A                      A                      A
 Frequencies --   -830.0375                70.3713                99.6472
 Red. masses --     10.5624                 3.8062                 5.1160
 Frc consts  --      4.2876                 0.0111                 0.0299
 IR Inten    --     52.0897                 0.1303                 0.7813

                      4                      5                      6
                      A                      A                      A
 Frequencies --    112.3264               128.8249               203.9425
 Red. masses --      5.0339                 5.4921                 1.5994
 Frc consts  --      0.0374                 0.0537                 0.0392
 IR Inten    --      0.5462                 2.2461                 1.2227

                      7                      8                      9
                      A                      A                      A
 Frequencies --    253.4652               271.6453               327.4689
 Red. masses --      1.7834                 3.6471                 1.0918
 Frc consts  --      0.0675                 0.1586                 0.0690
 IR Inten    --      2.5686                 0.0759               109.5552

                     10                     11                     12
                      A                      A                      A
 Frequencies --    383.8834               416.9819               568.7942
 Red. masses --      3.6175                 3.9110                 4.9745
 Frc consts  --      0.3141                 0.4007                 0.9482
 IR Inten    --      6.7314                 5.0134                20.5359

                     13                     14                     15
                      A                      A                      A
 Frequencies --    619.5994               752.3858               767.3063
 Red. masses --      7.3545                 8.8870                 4.4513
 Frc consts  --      1.6635                 2.9641                 1.5441
 IR Inten    --      5.6212                16.4708                 2.3550

                     16                     17                     18
                      A                      A                      A
 Frequencies --    786.3551               810.5274               866.0721
 Red. masses --      1.3916                 1.1823                 1.1129
 Frc consts  --      0.5070                 0.4576                 0.4918
 IR Inten    --     44.5604                 7.4762               141.9209

                     19                     20                     21
                      A                      A                      A
 Frequencies --    949.9111               993.8629              1107.5176
 Red. masses --      2.1686                 1.0997                 3.2463
 Frc consts  --      1.1529                 0.6400                 2.3461
 IR Inten    --     13.6198                68.5072                40.2519

                     22                     23                     24
                      A                      A                      A
 Frequencies --   1132.8744              1180.4496              1273.4324
 Red. masses --      2.7241                 1.8284                 2.5721
 Frc consts  --      2.0599                 1.5011                 2.4575
 IR Inten    --     53.8151                45.6846               414.4526

                     25                     26                     27
                      A                      A                      A
 Frequencies --   1350.5294              1406.8212              1432.6771
 Red. masses --      1.3275                 1.2903                 1.3846
 Frc consts  --      1.4265                 1.5045                 1.6744
 IR Inten    --    173.0820                39.4946                21.1925

                     28                     29                     30
                      A                      A                      A
 Frequencies --   1492.3662              1500.9000              1524.2338
 Red. masses --      1.0399                 1.0489                 1.1038
 Frc consts  --      1.3646                 1.3922                 1.5109
 IR Inten    --      4.0597                 2.7096                25.3379

                     31                     32                     33
                      A                      A                      A
 Frequencies --   1836.0139              1979.1973              3071.5764
 Red. masses --     12.7179                 6.6488                 1.0356
 Frc consts  --     25.2592                15.3452                 5.7567
 IR Inten    --    352.1182                96.1413                 5.2197

                     34                     35                     36
                      A                      A                      A
 Frequencies --   3081.9145              3141.9451              3153.5727
 Red. masses --      1.0667                 1.1020                 1.1006
 Frc consts  --      5.9696                 6.4096                 6.4490
 IR Inten    --     14.4727                 1.0592                14.0443

                     37                     38                     39
                      A                      A                      A
 Frequencies --   3164.9981              3395.3784              3778.4000
 Red. masses --      1.1040                 1.1335                 1.0681
 Frc consts  --      6.5160                 7.6995                 8.9844
 IR Inten    --     25.3922                47.6891                48.3459

 - Thermochemistry -
 -------------------
 Temperature   298.150 Kelvin.  Pressure   1.00000 Atm.
 Atom     1 has atomic number  6 and mass  12.00000

 Molecular mass:   115.03952 amu.
 Principal axes and moments of inertia in atomic units:
                           1         2         3
     Eigenvalues --   515.787421483.179251837.99735
           X            0.99966  -0.02509   0.00683
           Y            0.02514   0.99965  -0.00846
           Z           -0.00662   0.00863   0.99994
 This molecule is an asymmetric top.
 Rotational symmetry number  1.
 Warning -- assumption of classical behavior for rotation
           may cause significant error
 Rotational temperatures (Kelvin)      0.16793     0.05840     0.04712
 Rotational constants (GHZ):           3.49900     1.21681     0.98191
    1 imaginary frequencies ignored.
 Zero-point vibrational energy     295406.9 (Joules/Mol)
                                   70.60393 (Kcal/Mol)
 Warning -- explicit consideration of  12 degrees of freedom as
           vibrations may cause significant error
 Vibrational temperatures:    101.25   143.37   161.61   185.35   293.43
          (Kelvin)            364.68   390.84   471.15   552.32   599.94
                              818.37   891.47  1082.52  1103.98  1131.39
                             1166.17  1246.08  1366.71  1429.95  1593.47
                             1629.95  1698.40  1832.19  1943.11  2024.10
                             2061.30  2147.18  2159.46  2193.03  2641.61
                             2847.62  4419.31  4434.19  4520.56  4537.29
                             4553.73  4885.19  5436.27

 Zero-point correction=                           0.112515 (Hartree/Particle)
 Thermal correction to Energy=                    0.121693
 Thermal correction to Enthalpy=                  0.122637
 Thermal correction to Gibbs Free Energy=         0.077447
 Sum of electronic and zero-point Energies=           -420.088033
 Sum of electronic and thermal Energies=              -420.078855
 Sum of electronic and thermal Enthalpies=            -420.077911
 Sum of electronic and thermal Free Energies=         -420.123100

                     E (Thermal)             CV                S
                      KCal/Mol        Cal/Mol-Kelvin    Cal/Mol-Kelvin
 Total                   76.363             31.306             95.110
 Electronic               0.000              0.000              1.377
 Translational            0.889              2.981             40.136
 Rotational               0.889              2.981             28.732
 Vibrational             74.586             25.344             24.865
 Vibration     1          0.598              1.968              4.143
 Vibration     2          0.604              1.949              3.461
 Vibration     3          0.607              1.939              3.228
 Vibration     4          0.611              1.924              2.964
 Vibration     5          0.640              1.834              2.097
 Vibration     6          0.665              1.757              1.706
 Vibration     7          0.675              1.726              1.586
 Vibration     8          0.711              1.621              1.273
 Vibration     9          0.753              1.505              1.024
 Vibration    10          0.780              1.433              0.902
 Vibration    11          0.925              1.099              0.507
 Vibration    12          0.980              0.991              0.417

 Normal termination of Gaussian 16 at Fri Mar 28 12:18:24 2025.
