 Gaussian 16, Revision A.03,
 Gaussian 16:  ES64L-G16RevA.03 25-Dec-2016

 --------------------------
 # ccsd(t)/6-311++g(d,p) sp
 --------------------------

 -------------------
 Title Card Required
 -------------------
 Symbolic Z-matrix:
 Charge =  0 Multiplicity = 2

                         Standard orientation:
 ---------------------------------------------------------------------
 Center     Atomic      Atomic             Coordinates (Angstroms)
 Number     Number       Type             X           Y           Z
 ---------------------------------------------------------------------
      1          6           0       -1.539390   -1.291968   -0.357325
      2          1           0       -2.025618   -2.228500   -0.524721
      3          6           0       -0.654921   -0.449004   -0.305415
      4          6           0       -0.020669    0.849306   -0.064959
      5          8           0       -0.690163    1.786140    0.268304
      6          8           0        1.293048    0.945105   -0.240482
      7          6           0        2.068684   -0.231412   -0.534141
      8          6           0        2.401264   -0.992554    0.733258
      9          1           0        1.529570   -0.853167   -1.253590
     10          1           0        2.964872    0.155350   -1.016184
     11          1           0        2.917898   -0.342049    1.439989
     12          1           0        1.496845   -1.379130    1.206952
     13          1           0        3.050911   -1.837466    0.496781
     14          8           0       -3.180221   -0.397188    0.273860
     15          1           0       -2.845593    0.506292    0.408802
 ---------------------------------------------------------------------

 SCF Done:  E(UHF) =  -417.973346467     A.U. after   34 cycles
 E2 =    -0.1252277275D+01 EUMP2 =    -0.41922562374201D+03
 CCSD(T)= -0.41934731711D+03

 The electronic state is 2-A.
 Alpha  occ. eigenvalues --  -20.61986 -20.61388 -20.56860 -11.42002 -11.31402
 Alpha  occ. eigenvalues --  -11.28097 -11.27566 -11.24111  -1.48777  -1.39717
 Alpha  occ. eigenvalues --   -1.37025  -1.09308  -1.05902  -0.92031  -0.87953
 Alpha  occ. eigenvalues --   -0.76915  -0.73474  -0.71067  -0.67765  -0.65460
 Alpha  occ. eigenvalues --   -0.64278  -0.64079  -0.59585  -0.57041  -0.55757
 Alpha  occ. eigenvalues --   -0.54382  -0.52058  -0.50433  -0.47875  -0.43982
 Alpha  occ. eigenvalues --   -0.42457
 Alpha virt. eigenvalues --    0.03304   0.04557   0.05198   0.06528   0.07581
 Alpha virt. eigenvalues --    0.08004   0.08143   0.09583   0.11110   0.11765
 Alpha virt. eigenvalues --    0.12817   0.14302   0.14715   0.15468   0.16370

  Beta  occ. eigenvalues --  -20.62055 -20.57729 -20.56186 -11.42421 -11.31365
  Beta  occ. eigenvalues --  -11.30127 -11.25204 -11.24107  -1.48542  -1.38645
  Beta  occ. eigenvalues --   -1.23969  -1.07028  -1.05848  -0.92460  -0.88210
  Beta  occ. eigenvalues --   -0.76617  -0.73280  -0.70095  -0.67573  -0.63768
  Beta  occ. eigenvalues --   -0.62156  -0.59044  -0.56135  -0.55524  -0.51874
  Beta  occ. eigenvalues --   -0.51109  -0.48461  -0.46540  -0.45000  -0.42865
  Beta virt. eigenvalues --    0.03298   0.04384   0.05194   0.06002   0.06971
  Beta virt. eigenvalues --    0.07469   0.08171   0.08886   0.09939   0.11240
  Beta virt. eigenvalues --    0.11819   0.12920   0.14427   0.14728   0.15384

 Mulliken charges and spin densities:
               1          2
     1  C   -0.800600  -1.026814
     2  H    0.248050   0.080573
     3  C    0.911097   1.126629
     4  C   -0.039328  -0.175357
     5  O   -0.368979   0.131333
     6  O   -0.136271   0.010947
     7  C   -0.213502   0.000285
     8  C   -0.411242   0.010313
     9  H    0.146227  -0.003937
    10  H    0.191137   0.000549
    11  H    0.169539  -0.001299
    12  H    0.131978  -0.000942
    13  H    0.128708   0.000874
    14  O   -0.224239   0.878295
    15  H    0.267425  -0.031448
 Sum of Mulliken charges =  -0.00000   1.00000

 Dipole moment (field-independent basis, Debye):
    X=              2.7967    Y=             -3.6198    Z=             -0.9985  Tot=              4.6820
 Quadrupole moment (field-independent basis, Debye-Ang):
   XX=            -47.4784   YY=            -50.3319   ZZ=            -47.3123
   XY=             -1.4856   XZ=              0.0642   YZ=              0.7755

 \PMP3-0=-419.2744858\MP4SDQ=-419.2842482\CCSD=-419.2925723\CCSD(T)=-41
 Normal termination of Gaussian 16 at Tue May 13 06:13:21 2025.
