 Gaussian 16, Revision A.03,
 Gaussian 16:  ES64L-G16RevA.03 25-Dec-2016

 --------------------------
 # ccsd(t)/6-311++g(d,p) sp
 --------------------------

 -------------------
 Title Card Required
 -------------------
 Symbolic Z-matrix:
 Charge =  0 Multiplicity = 2

                         Standard orientation:
 ---------------------------------------------------------------------
 Center     Atomic      Atomic             Coordinates (Angstroms)
 Number     Number       Type             X           Y           Z
 ---------------------------------------------------------------------
      1          6           0       -1.484207   -1.330717   -0.374531
      2          1           0       -2.031539   -2.235068   -0.515124
      3          6           0       -0.656453   -0.450026   -0.302884
      4          6           0       -0.023660    0.848937   -0.068700
      5          8           0       -0.696285    1.785611    0.259549
      6          8           0        1.290091    0.948329   -0.242545
      7          6           0        2.070615   -0.226752   -0.529775
      8          6           0        2.403639   -0.980972    0.741654
      9          1           0        1.534924   -0.853563   -1.246895
     10          1           0        2.966427    0.161383   -1.011415
     11          1           0        2.916750   -0.325604    1.446502
     12          1           0        1.499632   -1.368771    1.215023
     13          1           0        3.056643   -1.824664    0.510073
     14          8           0       -3.211552   -0.387554    0.283024
     15          1           0       -2.860471    0.512378    0.407023
 ---------------------------------------------------------------------

 SCF Done:  E(UHF) =  -417.976597867     A.U. after   34 cycles
 E2 =    -0.1255543969D+01 EUMP2 =    -0.41923214183573D+03
 CCSD(T)= -0.41934721356D+03

 The electronic state is 2-A.
 Alpha  occ. eigenvalues --  -20.61993 -20.61667 -20.56776 -11.42114 -11.31327
 Alpha  occ. eigenvalues --  -11.27698 -11.27150 -11.24042  -1.48734  -1.39598
 Alpha  occ. eigenvalues --   -1.37337  -1.08984  -1.05841  -0.92047  -0.87949
 Alpha  occ. eigenvalues --   -0.76779  -0.73640  -0.70909  -0.67709  -0.66033
 Alpha  occ. eigenvalues --   -0.64578  -0.64067  -0.59488  -0.56923  -0.55671
 Alpha  occ. eigenvalues --   -0.54619  -0.51983  -0.50087  -0.47751  -0.43815
 Alpha  occ. eigenvalues --   -0.42366
 Alpha virt. eigenvalues --    0.03336   0.04543   0.05244   0.06521   0.07586
 Alpha virt. eigenvalues --    0.07978   0.08141   0.09506   0.11130   0.11741
 Alpha virt. eigenvalues --    0.12839   0.14378   0.14755   0.15353   0.16492

  Beta  occ. eigenvalues --  -20.62047 -20.57780 -20.56226 -11.42466 -11.31298
  Beta  occ. eigenvalues --  -11.29330 -11.25252 -11.24039  -1.48543  -1.38719
  Beta  occ. eigenvalues --   -1.23102  -1.07255  -1.05801  -0.92426  -0.88194
  Beta  occ. eigenvalues --   -0.76573  -0.73464  -0.70146  -0.67557  -0.63784
  Beta  occ. eigenvalues --   -0.62196  -0.59044  -0.56154  -0.55485  -0.51832
  Beta  occ. eigenvalues --   -0.50666  -0.48523  -0.46675  -0.44392  -0.43012
  Beta virt. eigenvalues --    0.03339   0.04406   0.05258   0.06165   0.07072
  Beta virt. eigenvalues --    0.07501   0.08149   0.08973   0.10183   0.11360
  Beta virt. eigenvalues --    0.11859   0.12929   0.14560   0.14782   0.15385

 Mulliken charges and spin densities:
               1          2
     1  C   -0.861486  -0.855459
     2  H    0.250737   0.068799
     3  C    0.955982   0.914567
     4  C   -0.025544  -0.147407
     5  O   -0.373824   0.107554
     6  O   -0.134529   0.008117
     7  C   -0.213011   0.001436
     8  C   -0.410207   0.007698
     9  H    0.145388  -0.003900
    10  H    0.189007   0.000615
    11  H    0.169298  -0.001120
    12  H    0.131382  -0.000731
    13  H    0.128705   0.000873
    14  O   -0.218706   0.931757
    15  H    0.266808  -0.032801
 Sum of Mulliken charges =  -0.00000   1.00000

 Dipole moment (field-independent basis, Debye):
    X=              2.6558    Y=             -3.5831    Z=             -0.9406  Tot=              4.5582
 Quadrupole moment (field-independent basis, Debye-Ang):
   XX=            -46.8151   YY=            -50.3086   ZZ=            -47.3660
   XY=             -1.3494   XZ=              0.0004   YZ=              0.7638

 4\PMP3-0=-419.2738288\MP4SDQ=-419.2881192\CCSD=-419.2933332\CCSD(T)=-4
 Normal termination of Gaussian 16 at Tue May 13 05:25:41 2025.
