 Gaussian 16, Revision A.03,
 Gaussian 16:  ES64L-G16RevA.03 25-Dec-2016

 --------------------------
 # ccsd(t)/6-311++g(d,p) sp
 --------------------------

 -------------------
 Title Card Required
 -------------------
 Symbolic Z-matrix:
 Charge =  0 Multiplicity = 2

                         Standard orientation:
 ---------------------------------------------------------------------
 Center     Atomic      Atomic             Coordinates (Angstroms)
 Number     Number       Type             X           Y           Z
 ---------------------------------------------------------------------
      1          6           0       -1.557966   -1.279248   -0.351343
      2          1           0       -2.020796   -2.227420   -0.528628
      3          6           0       -0.653647   -0.448934   -0.306500
      4          6           0       -0.019832    0.849449   -0.063757
      5          8           0       -0.688325    1.786351    0.271091
      6          8           0        1.293913    0.944121   -0.239855
      7          6           0        2.068079   -0.232834   -0.535517
      8          6           0        2.400464   -0.996138    0.730639
      9          1           0        1.528040   -0.853047   -1.255734
     10          1           0        2.964451    0.153520   -1.017535
     11          1           0        2.918076   -0.347137    1.438033
     12          1           0        1.495883   -1.382281    1.204454
     13          1           0        3.049064   -1.841464    0.492825
     14          8           0       -3.170232   -0.400450    0.270879
     15          1           0       -2.840161    0.503888    0.408528
 ---------------------------------------------------------------------

 SCF Done:  E(UHF) =  -417.972834945     A.U. after   33 cycles
 E2 =    -0.1251571516D+01 EUMP2 =    -0.41922440646112D+03
 CCSD(T)= -0.41934813178D+03

 The electronic state is 2-A.
 Alpha  occ. eigenvalues --  -20.61993 -20.61251 -20.56903 -11.41974 -11.31439
 Alpha  occ. eigenvalues --  -11.28339 -11.27768 -11.24144  -1.48802  -1.39767
 Alpha  occ. eigenvalues --   -1.36848  -1.09443  -1.05933  -0.92045  -0.87981
 Alpha  occ. eigenvalues --   -0.76963  -0.73398  -0.71136  -0.67796  -0.65214
 Alpha  occ. eigenvalues --   -0.64232  -0.63971  -0.59628  -0.57088  -0.55795
 Alpha  occ. eigenvalues --   -0.54253  -0.52095  -0.50563  -0.47927  -0.44054
 Alpha  occ. eigenvalues --   -0.42524
 Alpha virt. eigenvalues --    0.03288   0.04561   0.05176   0.06527   0.07575
 Alpha virt. eigenvalues --    0.08004   0.08146   0.09600   0.11099   0.11770
 Alpha virt. eigenvalues --    0.12806   0.14268   0.14690   0.15500   0.16325

  Beta  occ. eigenvalues --  -20.62068 -20.57702 -20.56188 -11.42413 -11.31399
  Beta  occ. eigenvalues --  -11.30493 -11.25248 -11.24140  -1.48553  -1.38632
  Beta  occ. eigenvalues --   -1.24332  -1.06934  -1.05874  -0.92484  -0.88228
  Beta  occ. eigenvalues --   -0.76631  -0.73200  -0.70088  -0.67590  -0.63775
  Beta  occ. eigenvalues --   -0.62123  -0.59053  -0.56143  -0.55548  -0.51904
  Beta  occ. eigenvalues --   -0.51276  -0.48480  -0.46502  -0.45271  -0.42797
  Beta virt. eigenvalues --    0.03277   0.04380   0.05162   0.05930   0.06929
  Beta virt. eigenvalues --    0.07451   0.08165   0.08845   0.09847   0.11202
  Beta virt. eigenvalues --    0.11807   0.12922   0.14376   0.14700   0.15368

 Mulliken charges and spin densities:
               1          2
     1  C   -0.789072  -1.076622
     2  H    0.245996   0.083472
     3  C    0.906956   1.196908
     4  C   -0.042986  -0.183156
     5  O   -0.366900   0.139238
     6  O   -0.136667   0.011857
     7  C   -0.213569  -0.000131
     8  C   -0.411599   0.011219
     9  H    0.146348  -0.003810
    10  H    0.191941   0.000535
    11  H    0.169699  -0.001348
    12  H    0.132179  -0.000941
    13  H    0.128764   0.000841
    14  O   -0.228401   0.852719
    15  H    0.267311  -0.030782
 Sum of Mulliken charges =  -0.00000   1.00000

 Dipole moment (field-independent basis, Debye):
    X=              2.8721    Y=             -3.6354    Z=             -1.0254  Tot=              4.7451
 Quadrupole moment (field-independent basis, Debye-Ang):
   XX=            -47.8299   YY=            -50.3320   ZZ=            -47.2952
   XY=             -1.5445   XZ=              0.1076   YZ=              0.7847

 \PMP3-0=-419.2755982\MP4SDQ=-419.2837905\CCSD=-419.2930819\CCSD(T)=-41
 Normal termination of Gaussian 16 at Tue May 13 20:16:30 2025.
