 Gaussian 16, Revision A.03,
 Gaussian 16:  ES64L-G16RevA.03 25-Dec-2016

 --------------------------
 # ccsd(t)/6-311++g(d,p) sp
 --------------------------

 -------------------
 Title Card Required
 -------------------
 Symbolic Z-matrix:
 Charge =  0 Multiplicity = 2

                         Standard orientation:
 ---------------------------------------------------------------------
 Center     Atomic      Atomic             Coordinates (Angstroms)
 Number     Number       Type             X           Y           Z
 ---------------------------------------------------------------------
      1          6           0       -1.667954   -1.204194   -0.314040
      2          1           0       -1.980515   -2.208281   -0.550486
      3          6           0       -0.640855   -0.452751   -0.315038
      4          6           0       -0.017804    0.848686   -0.056876
      5          8           0       -0.679580    1.788046    0.286894
      6          8           0        1.297875    0.939266   -0.236022
      7          6           0        2.064799   -0.239394   -0.542905
      8          6           0        2.396295   -1.014936    0.716171
      9          1           0        1.520956   -0.851238   -1.267644
     10          1           0        2.962297    0.145610   -1.024100
     11          1           0        2.919243   -0.374192    1.427142
     12          1           0        1.490962   -1.399319    1.190134
     13          1           0        3.039685   -1.861968    0.470296
     14          8           0       -3.112315   -0.422363    0.252144
     15          1           0       -2.807354    0.485332    0.406642
 ---------------------------------------------------------------------

 SCF Done:  E(UHF) =  -417.982631653     A.U. after   30 cycles
 E2 =    -0.1259332335D+01 EUMP2 =    -0.41924196398717D+03
 CCSD(T)= -0.41936606645D+03

 The electronic state is 2-A.
 Alpha  occ. eigenvalues --  -20.62072 -20.59950 -20.57246 -11.41891 -11.31694
 Alpha  occ. eigenvalues --  -11.31276 -11.29301 -11.24390  -1.48930  -1.40015
 Alpha  occ. eigenvalues --   -1.35078  -1.10399  -1.06153  -0.92311  -0.88485
 Alpha  occ. eigenvalues --   -0.77406  -0.73092  -0.71595  -0.67999  -0.64508
 Alpha  occ. eigenvalues --   -0.63766  -0.62132  -0.59903  -0.57364  -0.56008
 Alpha  occ. eigenvalues --   -0.53168  -0.52325  -0.51090  -0.48208  -0.44369
 Alpha  occ. eigenvalues --   -0.42944
 Alpha virt. eigenvalues --    0.03147   0.04568   0.05009   0.06502   0.07507
 Alpha virt. eigenvalues --    0.07902   0.08208   0.09543   0.11015   0.11787
 Alpha virt. eigenvalues --    0.12743   0.13980   0.14489   0.15556   0.16054

  Beta  occ. eigenvalues --  -20.62175 -20.57664 -20.56338 -11.42387 -11.33622
  Beta  occ. eigenvalues --  -11.31638 -11.26015 -11.24384  -1.48598  -1.38585
  Beta  occ. eigenvalues --   -1.27870  -1.06208  -1.05991  -0.92675  -0.88423
  Beta  occ. eigenvalues --   -0.76836  -0.72777  -0.70093  -0.67695  -0.63885
  Beta  occ. eigenvalues --   -0.61913  -0.59146  -0.56291  -0.55746  -0.52867
  Beta  occ. eigenvalues --   -0.52032  -0.50204  -0.47013  -0.46347  -0.41993
  Beta virt. eigenvalues --    0.03029   0.04426   0.04833   0.05453   0.06682
  Beta virt. eigenvalues --    0.07281   0.08002   0.08546   0.09388   0.11046
  Beta virt. eigenvalues --    0.11751   0.12964   0.14052   0.14463   0.15184

 Mulliken charges and spin densities:
               1          2
     1  C   -0.709409  -1.131309
     2  H    0.226191   0.085510
     3  C    0.882033   1.511923
     4  C   -0.031800  -0.200596
     5  O   -0.354587   0.177181
     6  O   -0.138964   0.015474
     7  C   -0.211807  -0.002033
     8  C   -0.413609   0.014937
     9  H    0.146276  -0.001293
    10  H    0.196343   0.000750
    11  H    0.171146  -0.001436
    12  H    0.133478   0.000343
    13  H    0.129204   0.000188
    14  O   -0.290480   0.552450
    15  H    0.265987  -0.022088
 Sum of Mulliken charges =  -0.00000   1.00000

 Dipole moment (field-independent basis, Debye):
    X=              3.4681    Y=             -3.7720    Z=             -1.2314  Tot=              5.2699
 Quadrupole moment (field-independent basis, Debye-Ang):
   XX=            -50.7974   YY=            -50.3379   ZZ=            -47.1977
   XY=             -1.9014   XZ=              0.5205   YZ=              0.8663

 P3-0=-419.2929947\MP4SDQ=-419.3009316\CCSD=-419.3102974\CCSD(T)=-419.3
 Normal termination of Gaussian 16 at Tue May 13 16:19:22 2025.
