 Gaussian 16, Revision A.03,
 Gaussian 16:  ES64L-G16RevA.03 25-Dec-2016

 --------------------------
 # freq 6-311++g(d,p) m062x
 --------------------------

 -------------------
 Title Card Required
 -------------------
 Symbolic Z-matrix:
 Charge =  0 Multiplicity = 2

                         Standard orientation:
 ---------------------------------------------------------------------
 Center     Atomic      Atomic             Coordinates (Angstroms)
 Number     Number       Type             X           Y           Z
 ---------------------------------------------------------------------
      1          6           0       -1.484207   -1.330717   -0.374531
      2          1           0       -2.031539   -2.235068   -0.515124
      3          6           0       -0.656453   -0.450026   -0.302884
      4          6           0       -0.023660    0.848937   -0.068700
      5          8           0       -0.696285    1.785611    0.259549
      6          8           0        1.290091    0.948329   -0.242545
      7          6           0        2.070615   -0.226752   -0.529775
      8          6           0        2.403639   -0.980972    0.741654
      9          1           0        1.534924   -0.853563   -1.246895
     10          1           0        2.966427    0.161383   -1.011415
     11          1           0        2.916750   -0.325604    1.446502
     12          1           0        1.499632   -1.368771    1.215023
     13          1           0        3.056643   -1.824664    0.510073
     14          8           0       -3.211552   -0.387554    0.283024
     15          1           0       -2.860471    0.512378    0.407023
 ---------------------------------------------------------------------

 SCF Done:  E(UM062X) =  -420.198627232     A.U. after   23 cycles

 The electronic state is 2-A.
 Alpha  occ. eigenvalues --  -19.69279 -19.65727 -19.64008 -10.71863 -10.62272
 Alpha  occ. eigenvalues --  -10.60046 -10.58563 -10.55267  -1.26407  -1.17827
 Alpha  occ. eigenvalues --   -1.11674  -0.90909  -0.89458  -0.78383  -0.74839
 Alpha  occ. eigenvalues --   -0.65445  -0.62608  -0.59504  -0.57932  -0.54059
 Alpha  occ. eigenvalues --   -0.53443  -0.50694  -0.49760  -0.48166  -0.46925
 Alpha  occ. eigenvalues --   -0.43405  -0.42172  -0.40190  -0.39315  -0.37746
 Alpha  occ. eigenvalues --   -0.34423
 Alpha virt. eigenvalues --   -0.02979  -0.00932   0.00518   0.01072   0.01834
 Alpha virt. eigenvalues --    0.02967   0.03491   0.04549   0.04904   0.05691
 Alpha virt. eigenvalues --    0.06953   0.07281   0.08552   0.08856   0.10188

  Beta  occ. eigenvalues --  -19.69279 -19.64268 -19.63962 -10.71881 -10.62263
  Beta  occ. eigenvalues --  -10.60099 -10.58353 -10.55265  -1.26364  -1.17716
  Beta  occ. eigenvalues --   -1.05134  -0.90051  -0.89418  -0.78289  -0.74676
  Beta  occ. eigenvalues --   -0.65311  -0.62297  -0.59317  -0.57853  -0.53946
  Beta  occ. eigenvalues --   -0.50810  -0.50456  -0.48198  -0.46890  -0.43382
  Beta  occ. eigenvalues --   -0.41403  -0.40507  -0.38880  -0.37490  -0.36151
  Beta virt. eigenvalues --   -0.09068  -0.02911  -0.00915   0.00666   0.01074
  Beta virt. eigenvalues --    0.02056   0.03118   0.03695   0.04631   0.05651
  Beta virt. eigenvalues --    0.05986   0.07191   0.07565   0.08755   0.09035

 Mulliken charges and spin densities:
               1          2
     1  C   -0.594384  -0.147626
     2  H    0.242625   0.018324
     3  C    0.696023   0.286737
     4  C   -0.129552  -0.007095
     5  O   -0.286586   0.015356
     6  O   -0.032380   0.007035
     7  C   -0.349032   0.000118
     8  C   -0.408964   0.007396
     9  H    0.168929  -0.002137
    10  H    0.215174   0.001637
    11  H    0.187689  -0.000827
    12  H    0.143124   0.000038
    13  H    0.159271   0.000781
    14  O   -0.262656   0.836233
    15  H    0.250721  -0.015969
 Sum of Mulliken charges =  -0.00000   1.00000

 Dipole moment (field-independent basis, Debye):
    X=              3.2254    Y=             -3.2971    Z=             -0.9699  Tot=              4.7133
 Quadrupole moment (field-independent basis, Debye-Ang):
   XX=            -48.6812   YY=            -49.2183   ZZ=            -47.4446
   XY=             -1.4145   XZ=              0.3657   YZ=              0.8726

  Exact polarizability:  99.932   1.145  71.943  -4.947   3.917  51.456
 Approx polarizability: 101.465   7.184  91.583  -5.895   6.898  60.012

 ******    2 imaginary frequencies (negative Signs) ******

                      1                      2                      3
                      A                      A                      A
 Frequencies --   -398.3802               -65.7014                42.4796
 Red. masses --     12.6998                 6.6846                 6.9660
 Frc consts  --      1.1875                 0.0170                 0.0074
 IR Inten    --     37.1683                 1.5863                 2.9605

                      4                      5                      6
                      A                      A                      A
 Frequencies --     79.4719               108.1917               190.5940
 Red. masses --      3.5246                 4.0660                 2.0584
 Frc consts  --      0.0131                 0.0280                 0.0441
 IR Inten    --      0.5010                 0.7882                 2.2013

                      7                      8                      9
                      A                      A                      A
 Frequencies --    239.5869               252.4431               309.1168
 Red. masses --      1.4928                 4.2782                 1.0570
 Frc consts  --      0.0505                 0.1606                 0.0595
 IR Inten    --      1.6187                 1.8711               111.8792

                     10                     11                     12
                      A                      A                      A
 Frequencies --    368.8735               413.5037               567.5279
 Red. masses --      3.3735                 3.7670                 4.7778
 Frc consts  --      0.2705                 0.3795                 0.9067
 IR Inten    --      4.5163                 3.6610                18.1678

                     13                     14                     15
                      A                      A                      A
 Frequencies --    631.0348               757.9766               764.8591
 Red. masses --      7.5563                 6.0747                 1.9409
 Frc consts  --      1.7728                 2.0563                 0.6690
 IR Inten    --      9.6046                36.1915               106.9991

                     16                     17                     18
                      A                      A                      A
 Frequencies --    778.0030               784.9162               808.4638
 Red. masses --      1.6382                 1.3324                 1.0877
 Frc consts  --      0.5842                 0.4837                 0.4189
 IR Inten    --    124.3947                36.1988                13.5421

                     19                     20                     21
                      A                      A                      A
 Frequencies --    813.6575               952.2278              1108.1053
 Red. masses --      1.2226                 2.2553                 3.2299
 Frc consts  --      0.4769                 1.2049                 2.3367
 IR Inten    --      3.3533                 7.9017                40.2251

                     22                     23                     24
                      A                      A                      A
 Frequencies --   1133.9033              1182.1355              1276.7137
 Red. masses --      2.7728                 1.8162                 2.5265
 Frc consts  --      2.1005                 1.4953                 2.4264
 IR Inten    --     55.8563                44.5877               411.8355

                     25                     26                     27
                      A                      A                      A
 Frequencies --   1352.2462              1407.3479              1433.4126
 Red. masses --      1.3395                 1.2945                 1.3890
 Frc consts  --      1.4431                 1.5106                 1.6815
 IR Inten    --    178.1440                42.2907                22.4735

                     28                     29                     30
                      A                      A                      A
 Frequencies --   1492.4857              1501.4481              1524.9420
 Red. masses --      1.0401                 1.0487                 1.1046
 Frc consts  --      1.3651                 1.3929                 1.5134
 IR Inten    --      3.8106                 2.8923                24.6867

                     31                     32                     33
                      A                      A                      A
 Frequencies --   1840.0406              2153.8712              3071.5999
 Red. masses --     12.8716                 6.0872                 1.0355
 Frc consts  --     25.6766                16.6381                 5.7561
 IR Inten    --    402.5537                68.1630                 5.7050

                     34                     35                     36
                      A                      A                      A
 Frequencies --   3088.8687              3142.7768              3152.9596
 Red. masses --      1.0655                 1.1027                 1.1009
 Frc consts  --      5.9896                 6.4171                 6.4479
 IR Inten    --     13.6964                 1.1546                13.2459

                     37                     38                     39
                      A                      A                      A
 Frequencies --   3165.7847              3465.1834              3753.9816
 Red. masses --      1.1047                 1.1554                 1.0678
 Frc consts  --      6.5229                 8.1742                 8.8659
 IR Inten    --     24.8448                72.8934                32.4847

 - Thermochemistry -
 -------------------
 Temperature   298.150 Kelvin.  Pressure   1.00000 Atm.
 Atom     1 has atomic number  6 and mass  12.00000

 Molecular mass:   115.03952 amu.
 Principal axes and moments of inertia in atomic units:
                           1         2         3
     Eigenvalues --   522.101261494.011031852.06687
           X            0.99968  -0.02431   0.00711
           Y            0.02438   0.99966  -0.00881
           Z           -0.00690   0.00898   0.99994
 This molecule is an asymmetric top.
 Rotational symmetry number  1.
 Warning -- assumption of classical behavior for rotation
           may cause significant error
 Rotational temperatures (Kelvin)      0.16589     0.05797     0.04677
 Rotational constants (GHZ):           3.45669     1.20798     0.97445
    2 imaginary frequencies ignored.
 Zero-point vibrational energy     293747.4 (Joules/Mol)
                                   70.20732 (Kcal/Mol)
 Warning -- explicit consideration of  10 degrees of freedom as
           vibrations may cause significant error
 Vibrational temperatures:     61.12   114.34   155.66   274.22   344.71
          (Kelvin)            363.21   444.75   530.73   594.94   816.55
                              907.92  1090.56  1100.46  1119.37  1129.32
                             1163.20  1170.67  1370.04  1594.32  1631.43
                             1700.83  1836.91  1945.58  2024.86  2062.36
                             2147.35  2160.25  2194.05  2647.41  3098.94
                             4419.35  4444.19  4521.75  4536.41  4554.86
                             4985.63  5401.14

 Zero-point correction=                           0.111882 (Hartree/Particle)
 Thermal correction to Energy=                    0.120646
 Thermal correction to Enthalpy=                  0.121590
 Thermal correction to Gibbs Free Energy=         0.076760
 Sum of electronic and zero-point Energies=           -420.086745
 Sum of electronic and thermal Energies=              -420.077981
 Sum of electronic and thermal Enthalpies=            -420.077037
 Sum of electronic and thermal Free Energies=         -420.121867

                     E (Thermal)             CV                S
                      KCal/Mol        Cal/Mol-Kelvin    Cal/Mol-Kelvin
 Total                   75.707             29.908             94.353
 Electronic               0.000              0.000              1.377
 Translational            0.889              2.981             40.136
 Rotational               0.889              2.981             28.759
 Vibrational             73.929             23.947             24.081
 Vibration     1          0.595              1.980              5.140
 Vibration     2          0.600              1.963              3.904
 Vibration     3          0.606              1.943              3.301
 Vibration     4          0.634              1.853              2.222
 Vibration     5          0.657              1.780              1.806
 Vibration     6          0.664              1.759              1.713
 Vibration     7          0.698              1.656              1.367
 Vibration     8          0.741              1.536              1.084
 Vibration     9          0.777              1.441              0.914
 Vibration    10          0.923              1.101              0.509

 Normal termination of Gaussian 16 at Fri Mar 28 11:18:01 2025.
