 Gaussian 16, Revision A.03,
 Gaussian 16:  ES64L-G16RevA.03 25-Dec-2016

 --------------------------
 # ccsd(t)/6-311++g(d,p) sp
 --------------------------

 -------------------
 Title Card Required
 -------------------
 Symbolic Z-matrix:
 Charge =  0 Multiplicity = 2

                         Standard orientation:
 ---------------------------------------------------------------------
 Center     Atomic      Atomic             Coordinates (Angstroms)
 Number     Number       Type             X           Y           Z
 ---------------------------------------------------------------------
      1          6           0       -1.466227   -1.343903   -0.379917
      2          1           0       -2.028903   -2.239300   -0.512976
      3          6           0       -0.656030   -0.450709   -0.302321
      4          6           0       -0.024836    0.848873   -0.070008
      5          8           0       -0.698574    1.785489    0.256421
      6          8           0        1.288951    0.949511   -0.243275
      7          6           0        2.071271   -0.225037   -0.528183
      8          6           0        2.404420   -0.976787    0.744676
      9          1           0        1.536895   -0.853634   -1.244584
     10          1           0        2.966913    0.163655   -1.009689
     11          1           0        2.916287   -0.319675    1.448808
     12          1           0        1.500592   -1.365054    1.217942
     13          1           0        3.058656   -1.819994    0.514777
     14          8           0       -3.222574   -0.384297    0.286159
     15          1           0       -2.864467    0.513762    0.405802
 ---------------------------------------------------------------------

 SCF Done:  E(UHF) =  -417.977967029     A.U. after   35 cycles
 E2 =    -0.1256600697D+01 EUMP2 =    -0.41923456772643D+03
 CCSD(T)= -0.41934766943D+03

 The electronic state is 2-A.
 Alpha  occ. eigenvalues --  -20.62004 -20.61725 -20.56766 -11.42157 -11.31315
 Alpha  occ. eigenvalues --  -11.27648 -11.27082 -11.24030  -1.48731  -1.39571
 Alpha  occ. eigenvalues --   -1.37382  -1.08900  -1.05832  -0.92067  -0.87968
 Alpha  occ. eigenvalues --   -0.76742  -0.73675  -0.70874  -0.67704  -0.66167
 Alpha  occ. eigenvalues --   -0.64644  -0.64061  -0.59469  -0.56896  -0.55654
 Alpha  occ. eigenvalues --   -0.54654  -0.51971  -0.49997  -0.47723  -0.43778
 Alpha  occ. eigenvalues --   -0.42377
 Alpha virt. eigenvalues --    0.03343   0.04539   0.05253   0.06518   0.07584
 Alpha virt. eigenvalues --    0.07961   0.08141   0.09476   0.11133   0.11730
 Alpha virt. eigenvalues --    0.12843   0.14393   0.14754   0.15315   0.16523

  Beta  occ. eigenvalues --  -20.62054 -20.57789 -20.56253 -11.42487 -11.31288
  Beta  occ. eigenvalues --  -11.29157 -11.25323 -11.24027  -1.48553  -1.38751
  Beta  occ. eigenvalues --   -1.22874  -1.07314  -1.05796  -0.92430  -0.88205
  Beta  occ. eigenvalues --   -0.76562  -0.73512  -0.70172  -0.67561  -0.63801
  Beta  occ. eigenvalues --   -0.62198  -0.59052  -0.56170  -0.55482  -0.51830
  Beta  occ. eigenvalues --   -0.50538  -0.48563  -0.46722  -0.44258  -0.43050
  Beta virt. eigenvalues --    0.03347   0.04416   0.05270   0.06203   0.07096
  Beta virt. eigenvalues --    0.07503   0.08131   0.08990   0.10245   0.11396
  Beta virt. eigenvalues --    0.11875   0.12937   0.14593   0.14791   0.15368

 Mulliken charges and spin densities:
               1          2
     1  C   -0.892986  -0.800947
     2  H    0.250474   0.064448
     3  C    0.985118   0.851271
     4  C   -0.021812  -0.137977
     5  O   -0.374742   0.100417
     6  O   -0.133723   0.007255
     7  C   -0.212862   0.001769
     8  C   -0.409931   0.006940
     9  H    0.144952  -0.003808
    10  H    0.188462   0.000633
    11  H    0.169290  -0.001058
    12  H    0.131176  -0.000632
    13  H    0.128751   0.000851
    14  O   -0.218396   0.943950
    15  H    0.266229  -0.033115
 Sum of Mulliken charges =  -0.00000   1.00000

 Dipole moment (field-independent basis, Debye):
    X=              2.6382    Y=             -3.5743    Z=             -0.9279  Tot=              4.5384
 Quadrupole moment (field-independent basis, Debye-Ang):
   XX=            -46.7280   YY=            -50.2922   ZZ=            -47.3831
   XY=             -1.3207   XZ=             -0.0030   YZ=              0.7664

 4\PMP3-0=-419.2742595\MP4SDQ=-419.2897211\CCSD=-419.2940206\CCSD(T)=-4
 Normal termination of Gaussian 16 at Tue May 13 03:47:12 2025.
