 Gaussian 16, Revision A.03,
 Gaussian 16:  ES64L-G16RevA.03 25-Dec-2016

 --------------------------
 # ccsd(t)/6-311++g(d,p) sp
 --------------------------

 -------------------
 Title Card Required
 -------------------
 Symbolic Z-matrix:
 Charge =  0 Multiplicity = 2

                         Standard orientation:
 ---------------------------------------------------------------------
 Center     Atomic      Atomic             Coordinates (Angstroms)
 Number     Number       Type             X           Y           Z
 ---------------------------------------------------------------------
      1          6           0       -1.650213   -1.216857   -0.320350
      2          1           0       -1.986603   -2.213867   -0.547627
      3          6           0       -0.642877   -0.451519   -0.313493
      4          6           0       -0.017865    0.849050   -0.057990
      5          8           0       -0.680798    1.787793    0.284277
      6          8           0        1.297346    0.939951   -0.236681
      7          6           0        2.065285   -0.238543   -0.541716
      8          6           0        2.396887   -1.012072    0.718528
      9          1           0        1.521896   -0.851700   -1.265727
     10          1           0        2.962563    0.146545   -1.023196
     11          1           0        2.919039   -0.370008    1.428884
     12          1           0        1.491674   -1.396659    1.192551
     13          1           0        3.041037   -1.858894    0.473963
     14          8           0       -3.122143   -0.418283    0.255464
     15          1           0       -2.812138    0.488544    0.406790
 ---------------------------------------------------------------------

 SCF Done:  E(UHF) =  -417.979057497     A.U. after   32 cycles
 E2 =    -0.1256406044D+01 EUMP2 =    -0.41923546354193D+03
 CCSD(T)= -0.41936156569D+03

 The electronic state is 2-A.
 Alpha  occ. eigenvalues --  -20.62063 -20.60205 -20.57200 -11.41901 -11.31660
 Alpha  occ. eigenvalues --  -11.30645 -11.29066 -11.24354  -1.48925  -1.39998
 Alpha  occ. eigenvalues --   -1.35413  -1.10251  -1.06124  -0.92256  -0.88378
 Alpha  occ. eigenvalues --   -0.77319  -0.73111  -0.71531  -0.67978  -0.64483
 Alpha  occ. eigenvalues --   -0.63925  -0.62474  -0.59871  -0.57334  -0.55992
 Alpha  occ. eigenvalues --   -0.53330  -0.52303  -0.51075  -0.48182  -0.44378
 Alpha  occ. eigenvalues --   -0.42926
 Alpha virt. eigenvalues --    0.03171   0.04568   0.05035   0.06507   0.07520
 Alpha virt. eigenvalues --    0.07922   0.08199   0.09567   0.11028   0.11783
 Alpha virt. eigenvalues --    0.12750   0.14032   0.14523   0.15563   0.16093

  Beta  occ. eigenvalues --  -20.62162 -20.57618 -20.56313 -11.42397 -11.33057
  Beta  occ. eigenvalues --  -11.31606 -11.25874 -11.24349  -1.48603  -1.38599
  Beta  occ. eigenvalues --   -1.27062  -1.06329  -1.06012  -0.92660  -0.88404
  Beta  occ. eigenvalues --   -0.76794  -0.72836  -0.70097  -0.67689  -0.63872
  Beta  occ. eigenvalues --   -0.61923  -0.59137  -0.56260  -0.55717  -0.52549
  Beta  occ. eigenvalues --   -0.51987  -0.49562  -0.46820  -0.46357  -0.42189
  Beta virt. eigenvalues --    0.03080   0.04408   0.04896   0.05512   0.06714
  Beta virt. eigenvalues --    0.07311   0.08030   0.08589   0.09445   0.11063
  Beta virt. eigenvalues --    0.11756   0.12953   0.14104   0.14501   0.15216

 Mulliken charges and spin densities:
               1          2
     1  C   -0.728172  -1.162083
     2  H    0.229374   0.086739
     3  C    0.891607   1.478152
     4  C   -0.037612  -0.201835
     5  O   -0.355994   0.173249
     6  O   -0.138631   0.015099
     7  C   -0.212414  -0.001791
     8  C   -0.413190   0.014609
     9  H    0.146277  -0.001886
    10  H    0.195794   0.000675
    11  H    0.170908  -0.001446
    12  H    0.133186  -0.000024
    13  H    0.129168   0.000342
    14  O   -0.276279   0.624452
    15  H    0.265977  -0.024252
 Sum of Mulliken charges =  -0.00000   1.00000

 Dipole moment (field-independent basis, Debye):
    X=              3.3784    Y=             -3.7466    Z=             -1.1976  Tot=              5.1850
 Quadrupole moment (field-independent basis, Debye-Ang):
   XX=            -50.3128   YY=            -50.3253   ZZ=            -47.2114
   XY=             -1.8520   XZ=              0.4484   YZ=              0.8556

 1\PMP3-0=-419.2890166\MP4SDQ=-419.2953391\CCSD=-419.305732\CCSD(T)=-41
 Normal termination of Gaussian 16 at Tue May 13 08:36:23 2025.
