 Gaussian 16, Revision A.03,
 Gaussian 16:  ES64L-G16RevA.03 25-Dec-2016

 --------------------------
 # freq 6-311++g(d,p) m062x
 --------------------------

 -------------------
 Title Card Required
 -------------------
 Symbolic Z-matrix:
 Charge =  0 Multiplicity = 2

                         Standard orientation:
 ---------------------------------------------------------------------
 Center     Atomic      Atomic             Coordinates (Angstroms)
 Number     Number       Type             X           Y           Z
 ---------------------------------------------------------------------
      1          6           0       -1.539390   -1.291968   -0.357325
      2          1           0       -2.025618   -2.228500   -0.524721
      3          6           0       -0.654921   -0.449004   -0.305415
      4          6           0       -0.020669    0.849306   -0.064959
      5          8           0       -0.690163    1.786140    0.268304
      6          8           0        1.293048    0.945105   -0.240482
      7          6           0        2.068684   -0.231412   -0.534141
      8          6           0        2.401264   -0.992554    0.733258
      9          1           0        1.529570   -0.853167   -1.253590
     10          1           0        2.964872    0.155350   -1.016184
     11          1           0        2.917898   -0.342049    1.439989
     12          1           0        1.496845   -1.379130    1.206952
     13          1           0        3.050911   -1.837466    0.496781
     14          8           0       -3.180221   -0.397188    0.273860
     15          1           0       -2.845593    0.506292    0.408802
 ---------------------------------------------------------------------

 SCF Done:  E(UM062X) =  -420.198179821     A.U. after   23 cycles

 The electronic state is 2-A.
 Alpha  occ. eigenvalues --  -19.69418 -19.64969 -19.64215 -10.72019 -10.62443
 Alpha  occ. eigenvalues --  -10.61362 -10.59268 -10.55409  -1.26583  -1.18035
 Alpha  occ. eigenvalues --   -1.10925  -0.91409  -0.89616  -0.78604  -0.75121
 Alpha  occ. eigenvalues --   -0.65707  -0.62716  -0.59699  -0.58111  -0.54201
 Alpha  occ. eigenvalues --   -0.52772  -0.50847  -0.49686  -0.48293  -0.47075
 Alpha  occ. eigenvalues --   -0.43563  -0.42070  -0.40331  -0.39360  -0.37478
 Alpha  occ. eigenvalues --   -0.33473
 Alpha virt. eigenvalues --   -0.03255  -0.01029   0.00467   0.00988   0.01812
 Alpha virt. eigenvalues --    0.02863   0.03476   0.04484   0.04932   0.05642
 Alpha virt. eigenvalues --    0.06855   0.07268   0.08488   0.08797   0.10126

  Beta  occ. eigenvalues --  -19.69419 -19.64134 -19.63678 -10.72046 -10.62430
  Beta  occ. eigenvalues --  -10.61464 -10.58949 -10.55407  -1.26511  -1.17848
  Beta  occ. eigenvalues --   -1.05672  -0.90129  -0.89560  -0.78466  -0.74883
  Beta  occ. eigenvalues --   -0.65519  -0.62355  -0.59399  -0.57988  -0.54063
  Beta  occ. eigenvalues --   -0.50656  -0.50364  -0.48328  -0.47028  -0.43519
  Beta  occ. eigenvalues --   -0.41773  -0.40826  -0.39022  -0.37816  -0.35488
  Beta virt. eigenvalues --   -0.10051  -0.03168  -0.01019   0.00610   0.00987
  Beta virt. eigenvalues --    0.02056   0.03075   0.03752   0.04561   0.05610
  Beta virt. eigenvalues --    0.06059   0.07115   0.07728   0.08675   0.09024

 Mulliken charges and spin densities:
               1          2
     1  C   -0.581581  -0.227956
     2  H    0.240397   0.023753
     3  C    0.698196   0.457590
     4  C   -0.130737  -0.008907
     5  O   -0.280810   0.027144
     6  O   -0.030133   0.010246
     7  C   -0.352168  -0.000851
     8  C   -0.410260   0.011029
     9  H    0.171208  -0.002056
    10  H    0.217467   0.002103
    11  H    0.188385  -0.001058
    12  H    0.143902   0.000228
    13  H    0.159278   0.000814
    14  O   -0.280701   0.723069
    15  H    0.247556  -0.015148
 Sum of Mulliken charges =  -0.00000   1.00000

 Dipole moment (field-independent basis, Debye):
    X=              3.5532    Y=             -3.3651    Z=             -1.0700  Tot=              5.0094
 Quadrupole moment (field-independent basis, Debye-Ang):
   XX=            -50.0279   YY=            -49.0376   ZZ=            -47.4118
   XY=             -1.4792   XZ=              0.5556   YZ=              0.9397

  Exact polarizability: 106.634   0.363  71.685  -6.525   4.077  51.781
 Approx polarizability: 108.550   5.720  90.592  -7.865   7.067  60.658

 ******    1 imaginary frequencies (negative Signs) ******

                      1                      2                      3
                      A                      A                      A
 Frequencies --   -730.9375                59.3724                83.8851
 Red. masses --     11.0068                 5.3198                 5.6151
 Frc consts  --      3.4647                 0.0110                 0.0233
 IR Inten    --     97.4114                 0.9093                 1.0665

                      4                      5                      6
                      A                      A                      A
 Frequencies --     87.3586               110.8129               198.2895
 Red. masses --      4.5556                 3.9684                 1.7764
 Frc consts  --      0.0205                 0.0287                 0.0412
 IR Inten    --      1.1622                 1.1045                 1.6739

                      7                      8                      9
                      A                      A                      A
 Frequencies --    246.7613               259.1265               316.5719
 Red. masses --      1.6240                 4.2239                 1.0665
 Frc consts  --      0.0583                 0.1671                 0.0630
 IR Inten    --      2.1183                 0.6292               110.1048

                     10                     11                     12
                      A                      A                      A
 Frequencies --    375.9748               414.7067               568.2168
 Red. masses --      3.5527                 3.8141                 4.8619
 Frc consts  --      0.2959                 0.3865                 0.9249
 IR Inten    --      5.7253                 4.0217                19.7571

                     13                     14                     15
                      A                      A                      A
 Frequencies --    624.5904               755.4481               769.0590
 Red. masses --      7.5647                 9.8133                 4.4819
 Frc consts  --      1.7387                 3.2997                 1.5618
 IR Inten    --      9.0183                19.7570                 3.6178

                     16                     17                     18
                      A                      A                      A
 Frequencies --    781.7581               810.8205               825.4803
 Red. masses --      1.3506                 1.1778                 1.1129
 Frc consts  --      0.4863                 0.4562                 0.4468
 IR Inten    --     41.5617                18.1410               161.8363

                     19                     20                     21
                      A                      A                      A
 Frequencies --    901.5081               952.2986              1107.6479
 Red. masses --      1.0736                 2.2284                 3.2505
 Frc consts  --      0.5141                 1.1907                 2.3496
 IR Inten    --     65.6874                 6.2246                40.9650

                     22                     23                     24
                      A                      A                      A
 Frequencies --   1133.2808              1181.1547              1274.7731
 Red. masses --      2.7369                 1.8257                 2.5569
 Frc consts  --      2.0710                 1.5007                 2.4481
 IR Inten    --     53.7975                47.2397               426.0686

                     25                     26                     27
                      A                      A                      A
 Frequencies --   1351.3664              1407.0578              1433.0198
 Red. masses --      1.3329                 1.2918                 1.3865
 Frc consts  --      1.4342                 1.5069                 1.6775
 IR Inten    --    178.7329                41.7840                22.0049

                     28                     29                     30
                      A                      A                      A
 Frequencies --   1492.4381              1501.0743              1524.3105
 Red. masses --      1.0400                 1.0489                 1.1040
 Frc consts  --      1.3648                 1.3925                 1.5114
 IR Inten    --      3.9194                 2.9558                26.1461

                     31                     32                     33
                      A                      A                      A
 Frequencies --   1838.1029              2057.9076              3071.6302
 Red. masses --     12.8176                 6.3981                 1.0356
 Frc consts  --     25.5150                15.9644                 5.7566
 IR Inten    --    370.1985                82.3403                 5.4150

                     34                     35                     36
                      A                      A                      A
 Frequencies --   3084.6523              3142.3357              3153.3465
 Red. masses --      1.0663                 1.1023                 1.1007
 Frc consts  --      5.9777                 6.4129                 6.4486
 IR Inten    --     14.0620                 1.0371                13.7356

                     37                     38                     39
                      A                      A                      A
 Frequencies --   3165.3372              3435.0306              3767.7400
 Red. masses --      1.1043                 1.1426                 1.0680
 Frc consts  --      6.5187                 7.9437                 8.9324
 IR Inten    --     25.6184                63.2424                40.9656

 - Thermochemistry -
 -------------------
 Temperature   298.150 Kelvin.  Pressure   1.00000 Atm.
 Atom     1 has atomic number  6 and mass  12.00000

 Molecular mass:   115.03952 amu.
 Principal axes and moments of inertia in atomic units:
                           1         2         3
     Eigenvalues --   518.177571487.194721843.23465
           X            0.99967  -0.02478   0.00693
           Y            0.02484   0.99965  -0.00862
           Z           -0.00672   0.00879   0.99994
 This molecule is an asymmetric top.
 Rotational symmetry number  1.
 Warning -- assumption of classical behavior for rotation
           may cause significant error
 Rotational temperatures (Kelvin)      0.16715     0.05824     0.04699
 Rotational constants (GHZ):           3.48286     1.21352     0.97912
    1 imaginary frequencies ignored.
 Zero-point vibrational energy     294665.6 (Joules/Mol)
                                   70.42678 (Kcal/Mol)
 Warning -- explicit consideration of  11 degrees of freedom as
           vibrations may cause significant error
 Vibrational temperatures:     85.42   120.69   125.69   159.44   285.29
          (Kelvin)            355.03   372.83   455.48   540.94   596.67
                              817.54   898.65  1086.92  1106.50  1124.78
                             1166.59  1187.68  1297.07  1370.15  1593.66
                             1630.54  1699.42  1834.11  1944.31  2024.44
                             2061.80  2147.29  2159.71  2193.14  2644.62
                             2960.87  4419.39  4438.13  4521.12  4536.96
                             4554.21  4942.24  5420.94

 Zero-point correction=                           0.112232 (Hartree/Particle)
 Thermal correction to Energy=                    0.121625
 Thermal correction to Enthalpy=                  0.122570
 Thermal correction to Gibbs Free Energy=         0.076525
 Sum of electronic and zero-point Energies=           -420.085948
 Sum of electronic and thermal Energies=              -420.076554
 Sum of electronic and thermal Enthalpies=            -420.075610
 Sum of electronic and thermal Free Energies=         -420.121655

                     E (Thermal)             CV                S
                      KCal/Mol        Cal/Mol-Kelvin    Cal/Mol-Kelvin
 Total                   76.321             31.598             96.910
 Electronic               0.000              0.000              1.377
 Translational            0.889              2.981             40.136
 Rotational               0.889              2.981             28.742
 Vibrational             74.544             25.636             26.654
 Vibration     1          0.597              1.974              4.478
 Vibration     2          0.601              1.960              3.798
 Vibration     3          0.601              1.958              3.718
 Vibration     4          0.607              1.941              3.255
 Vibration     5          0.637              1.842              2.149
 Vibration     6          0.661              1.768              1.754
 Vibration     7          0.668              1.747              1.668
 Vibration     8          0.703              1.642              1.328
 Vibration     9          0.747              1.521              1.055
 Vibration    10          0.778              1.438              0.910
 Vibration    11          0.924              1.100              0.508

 Normal termination of Gaussian 16 at Fri Mar 28 11:54:18 2025.
