 Gaussian 16, Revision A.03,
 Gaussian 16:  ES64L-G16RevA.03 25-Dec-2016

 --------------------------
 # freq 6-311++g(d,p) m062x
 --------------------------

 -------------------
 Title Card Required
 -------------------
 Symbolic Z-matrix:
 Charge =  0 Multiplicity = 2

                         Standard orientation:
 ---------------------------------------------------------------------
 Center     Atomic      Atomic             Coordinates (Angstroms)
 Number     Number       Type             X           Y           Z
 ---------------------------------------------------------------------
      1          6           0       -1.702426   -1.178520   -0.301430
      2          1           0       -1.971046   -2.194054   -0.554428
      3          6           0       -0.637535   -0.455755   -0.318119
      4          6           0       -0.017906    0.847604   -0.054699
      5          8           0       -0.677378    1.788407    0.292187
      6          8           0        1.298797    0.938033   -0.234651
      7          6           0        2.063901   -0.240804   -0.545270
      8          6           0        2.395247   -1.020423    0.711429
      9          1           0        1.519278   -0.850075   -1.271476
     10          1           0        2.961860    0.144195   -1.025747
     11          1           0        2.919703   -0.382300    1.423677
     12          1           0        1.489678   -1.404518    1.185149
     13          1           0        3.037230   -1.867784    0.462905
     14          8           0       -3.092111   -0.431056    0.245177
     15          1           0       -2.798850    0.478857    0.406746
 ---------------------------------------------------------------------

 SCF Done:  E(UM062X) =  -420.229612056     A.U. after   20 cycles

 The electronic state is 2-A.
 Alpha  occ. eigenvalues --  -19.69094 -19.65069 -19.64071 -10.71530 -10.64870
 Alpha  occ. eigenvalues --  -10.62326 -10.60152 -10.55362  -1.26251  -1.17821
 Alpha  occ. eigenvalues --   -1.11840  -0.91480  -0.89467  -0.78572  -0.75256
 Alpha  occ. eigenvalues --   -0.65869  -0.62222  -0.59709  -0.57892  -0.54111
 Alpha  occ. eigenvalues --   -0.53706  -0.50652  -0.49785  -0.48222  -0.46927
 Alpha  occ. eigenvalues --   -0.43821  -0.43244  -0.40580  -0.39186  -0.35887
 Alpha  occ. eigenvalues --   -0.32110
 Alpha virt. eigenvalues --   -0.03739  -0.01101   0.00510   0.00942   0.01783
 Alpha virt. eigenvalues --    0.02895   0.03631   0.04407   0.05597   0.06238
 Alpha virt. eigenvalues --    0.07339   0.08043   0.08324   0.08950   0.09997

  Beta  occ. eigenvalues --  -19.69104 -19.64671 -19.63893 -10.71562 -10.65007
  Beta  occ. eigenvalues --  -10.62299 -10.59439 -10.55358  -1.26097  -1.17423
  Beta  occ. eigenvalues --   -1.10365  -0.89485  -0.88841  -0.78293  -0.74740
  Beta  occ. eigenvalues --   -0.65493  -0.61692  -0.58986  -0.57648  -0.53799
  Beta  occ. eigenvalues --   -0.52428  -0.50368  -0.48126  -0.46901  -0.45604
  Beta  occ. eigenvalues --   -0.43453  -0.43000  -0.39052  -0.38415  -0.34380
  Beta virt. eigenvalues --   -0.08747  -0.03396  -0.01118   0.00543   0.00952
  Beta virt. eigenvalues --    0.02025   0.03066   0.03943   0.04480   0.05638
  Beta virt. eigenvalues --    0.06308   0.07276   0.08370   0.08522   0.09239

 Mulliken charges and spin densities:
               1          2
     1  C   -0.528829  -0.244715
     2  H    0.214884   0.027613
     3  C    0.638241   0.925224
     4  C   -0.093811  -0.014920
     5  O   -0.279850   0.058508
     6  O   -0.030188   0.015058
     7  C   -0.349685   0.005340
     8  C   -0.418713   0.012963
     9  H    0.176899   0.002321
    10  H    0.219246   0.003876
    11  H    0.188974  -0.001243
    12  H    0.148800   0.004104
    13  H    0.157137  -0.000441
    14  O   -0.297503   0.212689
    15  H    0.254397  -0.006378
 Sum of Mulliken charges =  -0.00000   1.00000

 Dipole moment (field-independent basis, Debye):
    X=              3.5000    Y=             -3.4545    Z=             -1.1468  Tot=              5.0496
 Quadrupole moment (field-independent basis, Debye-Ang):
   XX=            -51.0578   YY=            -49.6156   ZZ=            -47.4286
   XY=             -1.9367   XZ=              0.6103   YZ=              0.9145

  Exact polarizability:  95.972   1.629  71.255  -4.159   3.923  51.322
 Approx polarizability: 104.347   3.144  87.996  -7.597   7.145  61.374

 ******    1 imaginary frequencies (negative Signs) ******

                      1                      2                      3
                      A                      A                      A
 Frequencies --   -389.0525                77.0389               106.7545
 Red. masses --     11.7111                 3.4851                 4.3307
 Frc consts  --      1.0444                 0.0122                 0.0291
 IR Inten    --    111.1046                 0.0961                 0.3506

                      4                      5                      6
                      A                      A                      A
 Frequencies --    146.7113               172.3017               213.0648
 Red. masses --      4.9593                 7.6397                 1.3554
 Frc consts  --      0.0629                 0.1336                 0.0363
 IR Inten    --      6.3979                 0.7955                 0.7621

                      7                      8                      9
                      A                      A                      A
 Frequencies --    275.3365               344.0649               402.1862
 Red. masses --      2.2151                 1.9760                 3.2796
 Frc consts  --      0.0989                 0.1378                 0.3126
 IR Inten    --      2.2204                 5.3520                14.2083

                     10                     11                     12
                      A                      A                      A
 Frequencies --    424.6913               445.2135               574.1174
 Red. masses --      1.3644                 4.5325                 4.6656
 Frc consts  --      0.1450                 0.5293                 0.9061
 IR Inten    --     98.7452                10.3066                19.0105

                     13                     14                     15
                      A                      A                      A
 Frequencies --    654.0670               747.9221               771.0009
 Red. masses --      6.5356                 9.4726                 4.3618
 Frc consts  --      1.6473                 3.1220                 1.5276
 IR Inten    --      5.8119                19.5993                 3.8782

                     16                     17                     18
                      A                      A                      A
 Frequencies --    809.0771               831.4235               949.6327
 Red. masses --      1.1926                 1.4568                 2.2381
 Frc consts  --      0.4599                 0.5933                 1.1892
 IR Inten    --      2.7032                37.8638                 5.3592

                     19                     20                     21
                      A                      A                      A
 Frequencies --   1062.3523              1105.1601              1130.8684
 Red. masses --      1.1117                 3.2762                 2.5090
 Frc consts  --      0.7392                 2.3576                 1.8905
 IR Inten    --     40.2597                39.4809                38.8007

                     22                     23                     24
                      A                      A                      A
 Frequencies --   1172.7407              1229.0557              1280.5600
 Red. masses --      1.9219                 1.3933                 1.8504
 Frc consts  --      1.5574                 1.2401                 1.7878
 IR Inten    --    101.2181               222.8613               174.7474

                     25                     26                     27
                      A                      A                      A
 Frequencies --   1346.6372              1405.5140              1431.3259
 Red. masses --      1.3048                 1.2839                 1.3816
 Frc consts  --      1.3942                 1.4944                 1.6676
 IR Inten    --    138.3748                28.0995                19.0156

                     28                     29                     30
                      A                      A                      A
 Frequencies --   1491.8638              1500.7682              1522.0116
 Red. masses --      1.0397                 1.0493                 1.1035
 Frc consts  --      1.3634                 1.3924                 1.5061
 IR Inten    --      4.4355                 1.9312                18.0501

                     31                     32                     33
                      A                      A                      A
 Frequencies --   1784.7547              1831.2717              3071.2453
 Red. masses --      8.2255                12.4285                 1.0356
 Frc consts  --     15.4372                24.5569                 5.7554
 IR Inten    --    191.9637               370.1561                 5.4763

                     34                     35                     36
                      A                      A                      A
 Frequencies --   3078.6613              3140.6085              3152.8735
 Red. masses --      1.0671                 1.1016                 1.1005
 Frc consts  --      5.9592                 6.4016                 6.4452
 IR Inten    --     15.2065                 0.9487                15.9565

                     37                     38                     39
                      A                      A                      A
 Frequencies --   3163.5383              3273.8807              3802.0786
 Red. masses --      1.1040                 1.1071                 1.0680
 Frc consts  --      6.5098                 6.9913                 9.0962
 IR Inten    --     23.8660                 8.9275                51.7618

 - Thermochemistry -
 -------------------
 Temperature   298.150 Kelvin.  Pressure   1.00000 Atm.
 Atom     1 has atomic number  6 and mass  12.00000

 Molecular mass:   115.03952 amu.
 Principal axes and moments of inertia in atomic units:
                           1         2         3
     Eigenvalues --   507.701881470.367731820.90281
           X            0.99964  -0.02617   0.00649
           Y            0.02623   0.99962  -0.00815
           Z           -0.00627   0.00831   0.99995
 This molecule is an asymmetric top.
 Rotational symmetry number  1.
 Warning -- assumption of classical behavior for rotation
           may cause significant error
 Rotational temperatures (Kelvin)      0.17060     0.05891     0.04757
 Rotational constants (GHZ):           3.55473     1.22741     0.99112
    1 imaginary frequencies ignored.
 Zero-point vibrational energy     298602.1 (Joules/Mol)
                                   71.36762 (Kcal/Mol)
 Warning -- explicit consideration of  11 degrees of freedom as
           vibrations may cause significant error
 Vibrational temperatures:    110.84   153.60   211.08   247.90   306.55
          (Kelvin)            396.15   495.03   578.66   611.04   640.56
                              826.03   941.06  1076.09  1109.30  1164.08
                             1196.23  1366.31  1528.49  1590.08  1627.07
                             1687.31  1768.34  1842.44  1937.51  2022.22
                             2059.36  2146.46  2159.27  2189.84  2567.86
                             2634.79  4418.84  4429.51  4518.64  4536.28
                             4551.63  4710.38  5470.34

 Zero-point correction=                           0.113732 (Hartree/Particle)
 Thermal correction to Energy=                    0.122383
 Thermal correction to Enthalpy=                  0.123327
 Thermal correction to Gibbs Free Energy=         0.079478
 Sum of electronic and zero-point Energies=           -420.115881
 Sum of electronic and thermal Energies=              -420.107230
 Sum of electronic and thermal Enthalpies=            -420.106285
 Sum of electronic and thermal Free Energies=         -420.150134

                     E (Thermal)             CV                S
                      KCal/Mol        Cal/Mol-Kelvin    Cal/Mol-Kelvin
 Total                   76.796             30.161             92.286
 Electronic               0.000              0.000              1.377
 Translational            0.889              2.981             40.136
 Rotational               0.889              2.981             28.699
 Vibrational             75.019             24.199             22.075
 Vibration     1          0.599              1.964              3.965
 Vibration     2          0.606              1.944              3.327
 Vibration     3          0.617              1.906              2.714
 Vibration     4          0.626              1.877              2.410
 Vibration     5          0.644              1.821              2.017
 Vibration     6          0.677              1.719              1.562
 Vibration     7          0.723              1.587              1.193
 Vibration     8          0.768              1.465              0.955
 Vibration     9          0.787              1.417              0.876
 Vibration    10          0.805              1.371              0.810
 Vibration    11          0.930              1.087              0.496

 Normal termination of Gaussian 16 at Fri Mar 28 13:41:40 2025.
