 Gaussian 16, Revision A.03,
 Gaussian 16:  ES64L-G16RevA.03 25-Dec-2016

 --------------------------
 # freq 6-311++g(d,p) m062x
 --------------------------

 -------------------
 Title Card Required
 -------------------
 Symbolic Z-matrix:
 Charge =  0 Multiplicity = 2

                         Standard orientation:
 ---------------------------------------------------------------------
 Center     Atomic      Atomic             Coordinates (Angstroms)
 Number     Number       Type             X           Y           Z
 ---------------------------------------------------------------------
      1          6           0       -1.632171   -1.229413   -0.326646
      2          1           0       -1.993339   -2.218400   -0.544271
      3          6           0       -0.645076   -0.450508   -0.311970
      4          6           0       -0.018014    0.849307   -0.059117
      5          8           0       -0.682103    1.787510    0.281672
      6          8           0        1.296768    0.940684   -0.237324
      7          6           0        2.065797   -0.237596   -0.540520
      8          6           0        2.397523   -1.009117    0.720887
      9          1           0        1.522913   -0.852086   -1.263797
     10          1           0        2.962864    0.147637   -1.022227
     11          1           0        2.918848   -0.365724    1.430641
     12          1           0        1.492431   -1.393947    1.194929
     13          1           0        3.042471   -1.855697    0.477629
     14          8           0       -3.131828   -0.414388    0.258683
     15          1           0       -2.817239    0.491739    0.407048
 ---------------------------------------------------------------------

 SCF Done:  E(UM062X) =  -420.209609222     A.U. after   20 cycles

 The electronic state is 2-A.
 Alpha  occ. eigenvalues --  -19.69443 -19.64372 -19.64287 -10.71993 -10.63965
 Alpha  occ. eigenvalues --  -10.62572 -10.60266 -10.55538  -1.26645  -1.18170
 Alpha  occ. eigenvalues --   -1.10309  -0.91955  -0.89725  -0.78832  -0.75446
 Alpha  occ. eigenvalues --   -0.65972  -0.62555  -0.59894  -0.58221  -0.54342
 Alpha  occ. eigenvalues --   -0.52580  -0.50931  -0.49469  -0.48382  -0.47163
 Alpha  occ. eigenvalues --   -0.43716  -0.42520  -0.40557  -0.39405  -0.36535
 Alpha  occ. eigenvalues --   -0.32227
 Alpha virt. eigenvalues --   -0.03772  -0.01160   0.00432   0.00886   0.01762
 Alpha virt. eigenvalues --    0.02793   0.03503   0.04385   0.05397   0.05752
 Alpha virt. eigenvalues --    0.07026   0.07342   0.08368   0.08767   0.10006

  Beta  occ. eigenvalues --  -19.69450 -19.64222 -19.63524 -10.72032 -10.64126
  Beta  occ. eigenvalues --  -10.62549 -10.59706 -10.55535  -1.26517  -1.17835
  Beta  occ. eigenvalues --   -1.07522  -0.89874  -0.89546  -0.78610  -0.75054
  Beta  occ. eigenvalues --   -0.65660  -0.62108  -0.59330  -0.58012  -0.54102
  Beta  occ. eigenvalues --   -0.50901  -0.50668  -0.48389  -0.47118  -0.43655
  Beta  occ. eigenvalues --   -0.43130  -0.41723  -0.39210  -0.38487  -0.34799
  Beta virt. eigenvalues --   -0.09936  -0.03566  -0.01163   0.00515   0.00886
  Beta virt. eigenvalues --    0.02037   0.03030   0.03882   0.04471   0.05565
  Beta virt. eigenvalues --    0.06163   0.07105   0.08021   0.08566   0.09063

 Mulliken charges and spin densities:
               1          2
     1  C   -0.563017  -0.304566
     2  H    0.227996   0.027441
     3  C    0.698622   0.799290
     4  C   -0.114970  -0.015056
     5  O   -0.274628   0.049329
     6  O   -0.028297   0.014215
     7  C   -0.352896   0.002755
     8  C   -0.414698   0.014036
     9  H    0.174046  -0.000758
    10  H    0.219905   0.003284
    11  H    0.189412  -0.001370
    12  H    0.146059   0.002139
    13  H    0.158670   0.000369
    14  O   -0.313261   0.419047
    15  H    0.247055  -0.010156
 Sum of Mulliken charges =  -0.00000   1.00000

 Dipole moment (field-independent basis, Debye):
    X=              3.8832    Y=             -3.4589    Z=             -1.1958  Tot=              5.3360
 Quadrupole moment (field-independent basis, Debye-Ang):
   XX=            -51.8739   YY=            -49.0660   ZZ=            -47.4000
   XY=             -1.7441   XZ=              0.7915   YZ=              1.0116

  Exact polarizability: 101.527   0.687  71.496  -5.519   4.088  51.560
 Approx polarizability: 109.802   2.954  89.211  -8.923   7.443  61.374

 ******    1 imaginary frequencies (negative Signs) ******

                      1                      2                      3
                      A                      A                      A
 Frequencies --   -749.0743                72.4276               103.7460
 Red. masses --     11.3671                 3.6176                 4.4357
 Frc consts  --      3.7580                 0.0112                 0.0281
 IR Inten    --      5.5585                 0.0439                 0.4557

                      4                      5                      6
                      A                      A                      A
 Frequencies --    129.1734               157.0356               209.5257
 Red. masses --      5.1652                 6.9976                 1.4404
 Frc consts  --      0.0508                 0.1017                 0.0373
 IR Inten    --      1.6497                 1.5819                 0.6633

                      7                      8                      9
                      A                      A                      A
 Frequencies --    264.0481               303.9383               357.4407
 Red. masses --      2.0207                 2.4949                 1.2054
 Frc consts  --      0.0830                 0.1358                 0.0907
 IR Inten    --      2.6765                 1.4543               109.6637

                     10                     11                     12
                      A                      A                      A
 Frequencies --    395.4828               425.7542               570.4602
 Red. masses --      3.5457                 4.2220                 4.9886
 Frc consts  --      0.3267                 0.4509                 0.9565
 IR Inten    --      6.0244                 8.1714                19.9890

                     13                     14                     15
                      A                      A                      A
 Frequencies --    621.4184               747.4569               766.8527
 Red. masses --      7.0779                 7.5987                 4.3451
 Frc consts  --      1.6104                 2.5013                 1.5055
 IR Inten    --      2.9478                13.2990                 2.0650

                     16                     17                     18
                      A                      A                      A
 Frequencies --    794.9608               809.9260               942.5882
 Red. masses --      1.4739                 1.1871                 1.1044
 Frc consts  --      0.5488                 0.4588                 0.5781
 IR Inten    --     46.0775                 4.5656                84.1190

                     19                     20                     21
                      A                      A                      A
 Frequencies --    950.1177              1099.6301              1117.5114
 Red. masses --      2.2391                 1.9505                 1.5093
 Frc consts  --      1.1909                 1.3896                 1.1106
 IR Inten    --      8.6321                64.9248                47.6060

                     22                     23                     24
                      A                      A                      A
 Frequencies --   1134.8207              1180.0867              1271.9653
 Red. masses --      2.6042                 1.7829                 2.5662
 Frc consts  --      1.9760                 1.4628                 2.4462
 IR Inten    --     87.1747                29.1321               372.4557

                     25                     26                     27
                      A                      A                      A
 Frequencies --   1348.6226              1406.3238              1432.0834
 Red. masses --      1.3159                 1.2875                 1.3827
 Frc consts  --      1.4102                 1.5003                 1.6707
 IR Inten    --    158.5325                34.4073                20.0051

                     28                     29                     30
                      A                      A                      A
 Frequencies --   1492.1856              1500.7477              1523.4773
 Red. masses --      1.0398                 1.0491                 1.1036
 Frc consts  --      1.3641                 1.3921                 1.5091
 IR Inten    --      4.3067                 2.2376                22.2755

                     31                     32                     33
                      A                      A                      A
 Frequencies --   1830.6966              1884.0808              3071.4351
 Red. masses --     12.0696                 7.4163                 1.0357
 Frc consts  --     23.8328                15.5108                 5.7565
 IR Inten    --    326.0501               148.5747                 5.1456

                     34                     35                     36
                      A                      A                      A
 Frequencies --   3079.0914              3141.3319              3153.5423
 Red. masses --      1.0672                 1.1017                 1.1005
 Frc consts  --      5.9611                 6.4053                 6.4481
 IR Inten    --     14.9447                 1.0887                14.7216

                     37                     38                     39
                      A                      A                      A
 Frequencies --   3164.3990              3343.1584              3793.9071
 Red. masses --      1.1039                 1.1206                 1.0682
 Frc consts  --      6.5126                 7.3794                 9.0588
 IR Inten    --     24.3974                24.5648                51.1116

 - Thermochemistry -
 -------------------
 Temperature   298.150 Kelvin.  Pressure   1.00000 Atm.
 Atom     1 has atomic number  6 and mass  12.00000

 Molecular mass:   115.03952 amu.
 Principal axes and moments of inertia in atomic units:
                           1         2         3
     Eigenvalues --   512.368751477.669451830.72538
           X            0.99965  -0.02556   0.00669
           Y            0.02561   0.99964  -0.00824
           Z           -0.00648   0.00841   0.99994
 This molecule is an asymmetric top.
 Rotational symmetry number  1.
 Warning -- assumption of classical behavior for rotation
           may cause significant error
 Rotational temperatures (Kelvin)      0.16905     0.05862     0.04731
 Rotational constants (GHZ):           3.52235     1.22134     0.98581
    1 imaginary frequencies ignored.
 Zero-point vibrational energy     296622.7 (Joules/Mol)
                                   70.89454 (Kcal/Mol)
 Warning -- explicit consideration of  11 degrees of freedom as
           vibrations may cause significant error
 Vibrational temperatures:    104.21   149.27   185.85   225.94   301.46
          (Kelvin)            379.91   437.30   514.28   569.01   612.57
                              820.77   894.08  1075.42  1103.33  1143.77
                             1165.30  1356.17  1367.01  1582.12  1607.85
                             1632.75  1697.88  1830.07  1940.37  2023.39
                             2060.45  2146.92  2159.24  2191.94  2633.96
                             2710.77  4419.11  4430.13  4519.68  4537.24
                             4552.86  4810.06  5458.59

 Zero-point correction=                           0.112978 (Hartree/Particle)
 Thermal correction to Energy=                    0.121913
 Thermal correction to Enthalpy=                  0.122858
 Thermal correction to Gibbs Free Energy=         0.078336
 Sum of electronic and zero-point Energies=           -420.096632
 Sum of electronic and thermal Energies=              -420.087696
 Sum of electronic and thermal Enthalpies=            -420.086752
 Sum of electronic and thermal Free Energies=         -420.131273

                     E (Thermal)             CV                S
                      KCal/Mol        Cal/Mol-Kelvin    Cal/Mol-Kelvin
 Total                   76.502             30.847             93.703
 Electronic               0.000              0.000              1.377
 Translational            0.889              2.981             40.136
 Rotational               0.889              2.981             28.718
 Vibrational             74.724             24.885             23.472
 Vibration     1          0.599              1.967              4.086
 Vibration     2          0.605              1.946              3.383
 Vibration     3          0.612              1.924              2.958
 Vibration     4          0.621              1.895              2.585
 Vibration     5          0.642              1.826              2.048
 Vibration     6          0.671              1.739              1.635
 Vibration     7          0.695              1.666              1.395
 Vibration     8          0.733              1.560              1.133
 Vibration     9          0.762              1.480              0.979
 Vibration    10          0.788              1.414              0.873
 Vibration    11          0.927              1.095              0.503

 Normal termination of Gaussian 16 at Fri Mar 28 12:54:07 2025.
