 Gaussian 16, Revision A.03,
 Gaussian 16:  ES64L-G16RevA.03 25-Dec-2016

 --------------------------
 # freq 6-311++g(d,p) m062x
 --------------------------

 -------------------
 Title Card Required
 -------------------
 Symbolic Z-matrix:
 Charge =  0 Multiplicity = 2

                         Standard orientation:
 ---------------------------------------------------------------------
 Center     Atomic      Atomic             Coordinates (Angstroms)
 Number     Number       Type             X           Y           Z
 ---------------------------------------------------------------------
      1          6           0       -1.685371   -1.191417   -0.307730
      2          1           0       -1.975266   -2.201677   -0.552768
      3          6           0       -0.639058   -0.454170   -0.316586
      4          6           0       -0.017818    0.848206   -0.055778
      5          8           0       -0.678441    1.788256    0.289529
      6          8           0        1.298359    0.938627   -0.235346
      7          6           0        2.064337   -0.240149   -0.544089
      8          6           0        2.395747   -1.017718    0.713808
      9          1           0        1.520084   -0.850697   -1.269556
     10          1           0        2.962064    0.144825   -1.024948
     11          1           0        2.919463   -0.378285    1.425408
     12          1           0        1.490296   -1.401936    1.187668
     13          1           0        3.038416   -1.864931    0.466614
     14          8           0       -3.102313   -0.426621    0.248718
     15          1           0       -2.802915    0.482105    0.406619
 ---------------------------------------------------------------------

 SCF Done:  E(UM062X) =  -420.224079668     A.U. after   20 cycles

 The electronic state is 2-A.
 Alpha  occ. eigenvalues --  -19.69201 -19.64801 -19.64170 -10.71667 -10.64742
 Alpha  occ. eigenvalues --  -10.62407 -10.60236 -10.55422  -1.26375  -1.17935
 Alpha  occ. eigenvalues --   -1.11293  -0.91656  -0.89551  -0.78664  -0.75327
 Alpha  occ. eigenvalues --   -0.65900  -0.62276  -0.59771  -0.57998  -0.54180
 Alpha  occ. eigenvalues --   -0.53385  -0.50742  -0.49659  -0.48281  -0.47003
 Alpha  occ. eigenvalues --   -0.43693  -0.43118  -0.40579  -0.39261  -0.36052
 Alpha  occ. eigenvalues --   -0.32087
 Alpha virt. eigenvalues --   -0.03790  -0.01127   0.00485   0.00919   0.01778
 Alpha virt. eigenvalues --    0.02867   0.03599   0.04396   0.05561   0.06135
 Alpha virt. eigenvalues --    0.07295   0.07813   0.08334   0.08887   0.09991

  Beta  occ. eigenvalues --  -19.69211 -19.64327 -19.63997 -10.71702 -10.64887
  Beta  occ. eigenvalues --  -10.62380 -10.59556 -10.55419  -1.26225  -1.17549
  Beta  occ. eigenvalues --   -1.09554  -0.89583  -0.89059  -0.78396  -0.74840
  Beta  occ. eigenvalues --   -0.65536  -0.61763  -0.59081  -0.57760  -0.53891
  Beta  occ. eigenvalues --   -0.52030  -0.50461  -0.48208  -0.46964  -0.44967
  Beta  occ. eigenvalues --   -0.43433  -0.42656  -0.39118  -0.38478  -0.34529
  Beta virt. eigenvalues --   -0.09065  -0.03475  -0.01140   0.00529   0.00927
  Beta virt. eigenvalues --    0.02029   0.03054   0.03931   0.04473   0.05614
  Beta virt. eigenvalues --    0.06270   0.07232   0.08279   0.08535   0.09188

 Mulliken charges and spin densities:
               1          2
     1  C   -0.537209  -0.262448
     2  H    0.218037   0.027693
     3  C    0.655372   0.904124
     4  C   -0.098574  -0.015534
     5  O   -0.277848   0.056861
     6  O   -0.029603   0.014934
     7  C   -0.350563   0.004918
     8  C   -0.417816   0.013366
     9  H    0.176155   0.001477
    10  H    0.219545   0.003768
    11  H    0.189165  -0.001300
    12  H    0.148089   0.003655
    13  H    0.157572  -0.000229
    14  O   -0.304539   0.255851
    15  H    0.252217  -0.007136
 Sum of Mulliken charges =  -0.00000   1.00000

 Dipole moment (field-independent basis, Debye):
    X=              3.6348    Y=             -3.4602    Z=             -1.1685  Tot=              5.1526
 Quadrupole moment (field-independent basis, Debye-Ang):
   XX=            -51.4122   YY=            -49.4510   ZZ=            -47.4199
   XY=             -1.8967   XZ=              0.6791   YZ=              0.9497

  Exact polarizability:  97.090   1.387  71.316  -4.452   3.968  51.365
 Approx polarizability: 105.674   2.938  88.302  -7.969   7.258  61.390

 ******    1 imaginary frequencies (negative Signs) ******

                      1                      2                      3
                      A                      A                      A
 Frequencies --   -509.7324                75.5012               105.8525
 Red. masses --     11.8434                 3.5209                 4.3323
 Frc consts  --      1.8131                 0.0118                 0.0286
 IR Inten    --     86.6236                 0.0591                 0.3611

                      4                      5                      6
                      A                      A                      A
 Frequencies --    141.9068               168.5702               212.2306
 Red. masses --      5.0601                 7.5307                 1.3702
 Frc consts  --      0.0600                 0.1261                 0.0364
 IR Inten    --      4.1240                 0.9633                 0.5364

                      7                      8                      9
                      A                      A                      A
 Frequencies --    272.6256               335.0976               399.9784
 Red. masses --      2.1695                 2.0210                 2.4997
 Frc consts  --      0.0950                 0.1337                 0.2356
 IR Inten    --      2.1718                 4.9682                41.7127

                     10                     11                     12
                      A                      A                      A
 Frequencies --    407.0487               440.2967               573.1896
 Red. masses --      1.5498                 4.4871                 4.7408
 Frc consts  --      0.1513                 0.5125                 0.9177
 IR Inten    --     71.1391                10.1975                18.9948

                     13                     14                     15
                      A                      A                      A
 Frequencies --    643.3625               746.9921               769.2783
 Red. masses --      6.7771                 8.8658                 4.3384
 Frc consts  --      1.6527                 2.9147                 1.5127
 IR Inten    --      4.6307                17.4871                 3.1625

                     16                     17                     18
                      A                      A                      A
 Frequencies --    809.2204               820.3478               949.7293
 Red. masses --      1.1910                 1.4644                 2.2364
 Frc consts  --      0.4595                 0.5807                 1.1885
 IR Inten    --      2.9818                40.3950                 5.7639

                     19                     20                     21
                      A                      A                      A
 Frequencies --   1032.4852              1105.0264              1130.7616
 Red. masses --      1.1067                 3.2710                 2.4735
 Frc consts  --      0.6951                 2.3533                 1.8634
 IR Inten    --     45.9162                40.8105                37.6856

                     22                     23                     24
                      A                      A                      A
 Frequencies --   1171.9597              1210.9056              1275.2133
 Red. masses --      1.8816                 1.2597                 2.2117
 Frc consts  --      1.5227                 1.0882                 2.1190
 IR Inten    --    120.5526               123.3120               260.1676

                     25                     26                     27
                      A                      A                      A
 Frequencies --   1346.9430              1405.7190              1431.5061
 Red. masses --      1.3059                 1.2847                 1.3818
 Frc consts  --      1.3959                 1.4957                 1.6683
 IR Inten    --    142.9438                29.4456                19.1820

                     28                     29                     30
                      A                      A                      A
 Frequencies --   1491.9458              1500.7321              1522.2064
 Red. masses --      1.0397                 1.0493                 1.1035
 Frc consts  --      1.3636                 1.3924                 1.5065
 IR Inten    --      4.4391                 1.9951                19.0692

                     31                     32                     33
                      A                      A                      A
 Frequencies --   1802.5293              1835.6379              3071.2898
 Red. masses --      8.3253                11.7340                 1.0356
 Frc consts  --     15.9373                23.2955                 5.7557
 IR Inten    --    189.3955               350.2466                 5.3649

                     34                     35                     36
                      A                      A                      A
 Frequencies --   3078.5339              3140.7751              3153.0813
 Red. masses --      1.0672                 1.1016                 1.1004
 Frc consts  --      5.9590                 6.4023                 6.4460
 IR Inten    --     15.1532                 0.9966                15.6401

                     37                     38                     39
                      A                      A                      A
 Frequencies --   3163.7499              3290.7410              3801.4263
 Red. masses --      1.1039                 1.1100                 1.0681
 Frc consts  --      6.5103                 7.0823                 9.0937
 IR Inten    --     23.8959                11.5857                51.0228

 - Thermochemistry -
 -------------------
 Temperature   298.150 Kelvin.  Pressure   1.00000 Atm.
 Atom     1 has atomic number  6 and mass  12.00000

 Molecular mass:   115.03952 amu.
 Principal axes and moments of inertia in atomic units:
                           1         2         3
     Eigenvalues --   508.897331472.228781823.42340
           X            0.99964  -0.02602   0.00654
           Y            0.02608   0.99963  -0.00814
           Z           -0.00633   0.00831   0.99995
 This molecule is an asymmetric top.
 Rotational symmetry number  1.
 Warning -- assumption of classical behavior for rotation
           may cause significant error
 Rotational temperatures (Kelvin)      0.17020     0.05883     0.04750
 Rotational constants (GHZ):           3.54638     1.22586     0.98975
    1 imaginary frequencies ignored.
 Zero-point vibrational energy     298075.9 (Joules/Mol)
                                   71.24185 (Kcal/Mol)
 Warning -- explicit consideration of  11 degrees of freedom as
           vibrations may cause significant error
 Vibrational temperatures:    108.63   152.30   204.17   242.53   305.35
          (Kelvin)            392.25   482.13   575.48   585.65   633.49
                              824.69   925.66  1074.75  1106.82  1164.29
                             1180.30  1366.45  1485.52  1589.89  1626.91
                             1686.19  1742.22  1834.75  1937.95  2022.52
                             2059.62  2146.58  2159.22  2190.12  2593.44
                             2641.07  4418.90  4429.32  4518.87  4536.58
                             4551.93  4734.64  5469.40

 Zero-point correction=                           0.113531 (Hartree/Particle)
 Thermal correction to Energy=                    0.122254
 Thermal correction to Enthalpy=                  0.123198
 Thermal correction to Gibbs Free Energy=         0.079180
 Sum of electronic and zero-point Energies=           -420.110549
 Sum of electronic and thermal Energies=              -420.101826
 Sum of electronic and thermal Enthalpies=            -420.100882
 Sum of electronic and thermal Free Energies=         -420.144900

                     E (Thermal)             CV                S
                      KCal/Mol        Cal/Mol-Kelvin    Cal/Mol-Kelvin
 Total                   76.715             30.337             92.643
 Electronic               0.000              0.000              1.377
 Translational            0.889              2.981             40.136
 Rotational               0.889              2.981             28.704
 Vibrational             74.938             24.376             22.427
 Vibration     1          0.599              1.965              4.005
 Vibration     2          0.605              1.945              3.344
 Vibration     3          0.615              1.911              2.778
 Vibration     4          0.625              1.881              2.451
 Vibration     5          0.643              1.822              2.024
 Vibration     6          0.676              1.724              1.580
 Vibration     7          0.716              1.605              1.235
 Vibration     8          0.766              1.470              0.963
 Vibration     9          0.772              1.455              0.937
 Vibration    10          0.800              1.382              0.826
 Vibration    11          0.929              1.089              0.498

 Normal termination of Gaussian 16 at Fri Mar 28 13:29:48 2025.
