 Gaussian 16, Revision A.03,
 Gaussian 16:  ES64L-G16RevA.03 25-Dec-2016

 --------------------------
 # ccsd(t)/6-311++g(d,p) sp
 --------------------------

 -------------------
 Title Card Required
 -------------------
 Symbolic Z-matrix:
 Charge =  0 Multiplicity = 2

                         Standard orientation:
 ---------------------------------------------------------------------
 Center     Atomic      Atomic             Coordinates (Angstroms)
 Number     Number       Type             X           Y           Z
 ---------------------------------------------------------------------
      1          6           0       -1.702426   -1.178520   -0.301430
      2          1           0       -1.971046   -2.194054   -0.554428
      3          6           0       -0.637535   -0.455755   -0.318119
      4          6           0       -0.017906    0.847604   -0.054699
      5          8           0       -0.677378    1.788407    0.292187
      6          8           0        1.298797    0.938033   -0.234651
      7          6           0        2.063901   -0.240804   -0.545270
      8          6           0        2.395247   -1.020423    0.711429
      9          1           0        1.519278   -0.850075   -1.271476
     10          1           0        2.961860    0.144195   -1.025747
     11          1           0        2.919703   -0.382300    1.423677
     12          1           0        1.489678   -1.404518    1.185149
     13          1           0        3.037230   -1.867784    0.462905
     14          8           0       -3.092111   -0.431056    0.245177
     15          1           0       -2.798850    0.478857    0.406746
 ---------------------------------------------------------------------

 SCF Done:  E(UHF) =  -417.992339811     A.U. after   31 cycles
 E2 =    -0.1264936672D+01 EUMP2 =    -0.41925727648318D+03
 CCSD(T)= -0.41937614173D+03

 The electronic state is 2-A.
 Alpha  occ. eigenvalues --  -20.62041 -20.59547 -20.57264 -11.41828 -11.32430
 Alpha  occ. eigenvalues --  -11.31710 -11.29621 -11.24417  -1.48873  -1.39974
 Alpha  occ. eigenvalues --   -1.34665  -1.10545  -1.06159  -0.92376  -0.88649
 Alpha  occ. eigenvalues --   -0.77560  -0.73087  -0.71662  -0.67981  -0.64529
 Alpha  occ. eigenvalues --   -0.63661  -0.61632  -0.59912  -0.57370  -0.55986
 Alpha  occ. eigenvalues --   -0.53051  -0.52318  -0.51030  -0.48199  -0.44176
 Alpha  occ. eigenvalues --   -0.42890
 Alpha virt. eigenvalues --    0.03119   0.04577   0.04981   0.06498   0.07494
 Alpha virt. eigenvalues --    0.07885   0.08208   0.09513   0.11003   0.11810
 Alpha virt. eigenvalues --    0.12741   0.13885   0.14440   0.15542   0.16005

  Beta  occ. eigenvalues --  -20.62150 -20.57943 -20.56331 -11.42312 -11.34540
  Beta  occ. eigenvalues --  -11.31649 -11.26185 -11.24411  -1.48527  -1.38505
  Beta  occ. eigenvalues --   -1.29838  -1.06103  -1.05676  -0.92631  -0.88390
  Beta  occ. eigenvalues --   -0.76903  -0.72669  -0.70040  -0.67651  -0.63866
  Beta  occ. eigenvalues --   -0.62030  -0.59116  -0.56344  -0.55761  -0.53665
  Beta  occ. eigenvalues --   -0.52240  -0.51924  -0.47188  -0.46309  -0.41502
  Beta virt. eigenvalues --    0.02954   0.04486   0.04752   0.05413   0.06648
  Beta virt. eigenvalues --    0.07253   0.07977   0.08493   0.09297   0.11027
  Beta virt. eigenvalues --    0.11756   0.12994   0.13951   0.14421   0.15136

 Mulliken charges and spin densities:
               1          2
     1  C   -0.667268  -1.030582
     2  H    0.220235   0.082532
     3  C    0.853313   1.556844
     4  C   -0.018602  -0.194263
     5  O   -0.354034   0.181282
     6  O   -0.139648   0.016110
     7  C   -0.209902  -0.002285
     8  C   -0.414761   0.015125
     9  H    0.146490  -0.000051
    10  H    0.196972   0.000921
    11  H    0.171406  -0.001393
    12  H    0.134330   0.001164
    13  H    0.129073  -0.000141
    14  O   -0.314534   0.391878
    15  H    0.266929  -0.017141
 Sum of Mulliken charges =  -0.00000   1.00000

 Dipole moment (field-independent basis, Debye):
    X=              3.5448    Y=             -3.8112    Z=             -1.2746  Tot=              5.3587
 Quadrupole moment (field-independent basis, Debye-Ang):
   XX=            -51.3852   YY=            -50.4361   ZZ=            -47.1815
   XY=             -1.9843   XZ=              0.6042   YZ=              0.8628

 \PMP3-0=-419.3019153\MP4SDQ=-419.3138702\CCSD=-419.3206667\CCSD(T)=-41
 Normal termination of Gaussian 16 at Tue May 13 18:41:43 2025.
