 Gaussian 16, Revision A.03,
 Gaussian 16:  ES64L-G16RevA.03 25-Dec-2016

 --------------------------
 # ccsd(t)/6-311++g(d,p) sp
 --------------------------

 -------------------
 Title Card Required
 -------------------
 Symbolic Z-matrix:
 Charge =  0 Multiplicity = 2

                         Standard orientation:
 ---------------------------------------------------------------------
 Center     Atomic      Atomic             Coordinates (Angstroms)
 Number     Number       Type             X           Y           Z
 ---------------------------------------------------------------------
      1          6           0       -1.448383   -1.357102   -0.385118
      2          1           0       -2.024260   -2.244665   -0.511419
      3          6           0       -0.655289   -0.451663   -0.301874
      4          6           0       -0.026080    0.848822   -0.071356
      5          8           0       -0.701001    1.785328    0.253195
      6          8           0        1.287734    0.950762   -0.244031
      7          6           0        2.071944   -0.223215   -0.526540
      8          6           0        2.405215   -0.972421    0.747788
      9          1           0        1.538999   -0.853668   -1.242245
     10          1           0        2.967424    0.166078   -1.007861
     11          1           0        2.915753   -0.313506    1.451205
     12          1           0        1.501579   -1.361176    1.220978
     13          1           0        3.060732   -1.815125    0.519677
     14          8           0       -3.233774   -0.381018    0.289333
     15          1           0       -2.868330    0.514960    0.404295
 ---------------------------------------------------------------------

 SCF Done:  E(UHF) =  -417.979359383     A.U. after   35 cycles
 E2 =    -0.1257596485D+01 EUMP2 =    -0.41923695586799D+03
 CCSD(T)= -0.41934823493D+03

 The electronic state is 2-A.
 Alpha  occ. eigenvalues --  -20.62018 -20.61771 -20.56762 -11.42202 -11.31307
 Alpha  occ. eigenvalues --  -11.27623 -11.27036 -11.24022  -1.48733  -1.39550
 Alpha  occ. eigenvalues --   -1.37406  -1.08828  -1.05828  -0.92092  -0.87992
 Alpha  occ. eigenvalues --   -0.76706  -0.73701  -0.70847  -0.67704  -0.66275
 Alpha  occ. eigenvalues --   -0.64692  -0.64057  -0.59453  -0.56872  -0.55641
 Alpha  occ. eigenvalues --   -0.54674  -0.51963  -0.49919  -0.47701  -0.43749
 Alpha  occ. eigenvalues --   -0.42404
 Alpha virt. eigenvalues --    0.03348   0.04535   0.05259   0.06513   0.07579
 Alpha virt. eigenvalues --    0.07944   0.08141   0.09447   0.11134   0.11717
 Alpha virt. eigenvalues --    0.12845   0.14405   0.14744   0.15282   0.16548

  Beta  occ. eigenvalues --  -20.62063 -20.57796 -20.56284 -11.42511 -11.31283
  Beta  occ. eigenvalues --  -11.29016 -11.25409 -11.24019  -1.48567  -1.38788
  Beta  occ. eigenvalues --   -1.22671  -1.07369  -1.05796  -0.92437  -0.88217
  Beta  occ. eigenvalues --   -0.76550  -0.73552  -0.70201  -0.67570  -0.63822
  Beta  occ. eigenvalues --   -0.62196  -0.59064  -0.56190  -0.55483  -0.51832
  Beta  occ. eigenvalues --   -0.50418  -0.48608  -0.46770  -0.44149  -0.43085
  Beta virt. eigenvalues --    0.03353   0.04426   0.05279   0.06234   0.07116
  Beta virt. eigenvalues --    0.07501   0.08111   0.09002   0.10295   0.11426
  Beta virt. eigenvalues --    0.11894   0.12949   0.14618   0.14797   0.15345

 Mulliken charges and spin densities:
               1          2
     1  C   -0.930314  -0.748204
     2  H    0.250012   0.060033
     3  C    1.021422   0.791425
     4  C   -0.019085  -0.128574
     5  O   -0.375303   0.093483
     6  O   -0.132792   0.006459
     7  C   -0.212788   0.002052
     8  C   -0.409708   0.006257
     9  H    0.144461  -0.003691
    10  H    0.188000   0.000647
    11  H    0.169310  -0.000996
    12  H    0.130965  -0.000532
    13  H    0.128816   0.000823
    14  O   -0.218513   0.954207
    15  H    0.265516  -0.033388
 Sum of Mulliken charges =  -0.00000   1.00000

 Dipole moment (field-independent basis, Debye):
    X=              2.6315    Y=             -3.5665    Z=             -0.9178  Tot=              4.5263
 Quadrupole moment (field-independent basis, Debye-Ang):
   XX=            -46.6893   YY=            -50.2711   ZZ=            -47.3996
   XY=             -1.2994   XZ=              0.0006   YZ=              0.7719

 P3-0=-419.2748624\MP4SDQ=-419.2913351\CCSD=-419.2947898\CCSD(T)=-419.3
 Normal termination of Gaussian 16 at Tue May 13 17:08:30 2025.
