 Gaussian 16, Revision A.03,
 Gaussian 16:  ES64L-G16RevA.03 25-Dec-2016

 --------------------------
 # ccsd(t)/6-311++g(d,p) sp
 --------------------------

 -------------------
 Title Card Required
 -------------------
 Symbolic Z-matrix:
 Charge =  0 Multiplicity = 2

                         Standard orientation:
 ---------------------------------------------------------------------
 Center     Atomic      Atomic             Coordinates (Angstroms)
 Number     Number       Type             X           Y           Z
 ---------------------------------------------------------------------
      1          6           0       -1.430696   -1.370266   -0.390118
      2          1           0       -2.017060   -2.251413   -0.510604
      3          6           0       -0.654231   -0.452900   -0.301531
      4          6           0       -0.027405    0.848773   -0.072746
      5          8           0       -0.703595    1.785105    0.249858
      6          8           0        1.286426    0.952089   -0.244808
      7          6           0        2.072636   -0.221264   -0.524836
      8          6           0        2.406024   -0.967857    0.750997
      9          1           0        1.541241   -0.853629   -1.239888
     10          1           0        2.967938    0.168695   -1.005942
     11          1           0        2.915172   -0.307075    1.453673
     12          1           0        1.502609   -1.357140    1.224128
     13          1           0        3.062887   -1.810014    0.524724
     14          8           0       -3.245162   -0.377731    0.292542
     15          1           0       -2.872100    0.515961    0.402573
 ---------------------------------------------------------------------

 SCF Done:  E(UHF) =  -417.980732077     A.U. after   35 cycles
 E2 =    -0.1258496404D+01 EUMP2 =    -0.41923922848141D+03
 CCSD(T)= -0.41934886204D+03

 The electronic state is 2-A.
 Alpha  occ. eigenvalues --  -20.62034 -20.61807 -20.56762 -11.42250 -11.31303
 Alpha  occ. eigenvalues --  -11.27617 -11.27010 -11.24017  -1.48738  -1.39534
 Alpha  occ. eigenvalues --   -1.37414  -1.08766  -1.05828  -0.92121  -0.88019
 Alpha  occ. eigenvalues --   -0.76674  -0.73718  -0.70825  -0.67708  -0.66360
 Alpha  occ. eigenvalues --   -0.64728  -0.64057  -0.59442  -0.56852  -0.55633
 Alpha  occ. eigenvalues --   -0.54682  -0.51959  -0.49850  -0.47683  -0.43728
 Alpha  occ. eigenvalues --   -0.42443
 Alpha virt. eigenvalues --    0.03352   0.04531   0.05263   0.06509   0.07572
 Alpha virt. eigenvalues --    0.07925   0.08142   0.09418   0.11134   0.11703
 Alpha virt. eigenvalues --    0.12845   0.14413   0.14728   0.15254   0.16565

  Beta  occ. eigenvalues --  -20.62076 -20.57800 -20.56319 -11.42537 -11.31281
  Beta  occ. eigenvalues --  -11.28900 -11.25508 -11.24015  -1.48584  -1.38826
  Beta  occ. eigenvalues --   -1.22488  -1.07421  -1.05799  -0.92447  -0.88232
  Beta  occ. eigenvalues --   -0.76539  -0.73586  -0.70232  -0.67582  -0.63846
  Beta  occ. eigenvalues --   -0.62190  -0.59078  -0.56214  -0.55488  -0.51838
  Beta  occ. eigenvalues --   -0.50307  -0.48655  -0.46818  -0.44064  -0.43120
  Beta virt. eigenvalues --    0.03357   0.04436   0.05284   0.06260   0.07131
  Beta virt. eigenvalues --    0.07496   0.08091   0.09012   0.10333   0.11449
  Beta virt. eigenvalues --    0.11914   0.12963   0.14635   0.14803   0.15316

 Mulliken charges and spin densities:
               1          2
     1  C   -0.972515  -0.698058
     2  H    0.249405   0.055674
     3  C    1.063931   0.735527
     4  C   -0.017508  -0.119434
     5  O   -0.375496   0.086847
     6  O   -0.131800   0.005740
     7  C   -0.212818   0.002286
     8  C   -0.409537   0.005647
     9  H    0.143941  -0.003561
    10  H    0.187626   0.000656
    11  H    0.169353  -0.000937
    12  H    0.130745  -0.000438
    13  H    0.128894   0.000793
    14  O   -0.218917   0.962893
    15  H    0.264697  -0.033635
 Sum of Mulliken charges =  -0.00000   1.00000

 Dipole moment (field-independent basis, Debye):
    X=              2.6349    Y=             -3.5598    Z=             -0.9101  Tot=              4.5214
 Quadrupole moment (field-independent basis, Debye-Ang):
   XX=            -46.6952   YY=            -50.2439   ZZ=            -47.4148
   XY=             -1.2858   XZ=              0.0100   YZ=              0.7806

 PMP3-0=-419.2755739\MP4SDQ=-419.2929011\CCSD=-419.2955941\CCSD(T)=-419
 Normal termination of Gaussian 16 at Tue May 13 10:14:24 2025.
