 Gaussian 16, Revision A.03,
 Gaussian 16:  ES64L-G16RevA.03 25-Dec-2016

 --------------------------
 # freq 6-311++g(d,p) m062x
 --------------------------

 -------------------
 Title Card Required
 -------------------
 Symbolic Z-matrix:
 Charge =  0 Multiplicity = 2

                         Standard orientation:
 ---------------------------------------------------------------------
 Center     Atomic      Atomic             Coordinates (Angstroms)
 Number     Number       Type             X           Y           Z
 ---------------------------------------------------------------------
      1          6           0       -1.430696   -1.370266   -0.390118
      2          1           0       -2.017060   -2.251413   -0.510604
      3          6           0       -0.654231   -0.452900   -0.301531
      4          6           0       -0.027405    0.848773   -0.072746
      5          8           0       -0.703595    1.785105    0.249858
      6          8           0        1.286426    0.952089   -0.244808
      7          6           0        2.072636   -0.221264   -0.524836
      8          6           0        2.406024   -0.967857    0.750997
      9          1           0        1.541241   -0.853629   -1.239888
     10          1           0        2.967938    0.168695   -1.005942
     11          1           0        2.915172   -0.307075    1.453673
     12          1           0        1.502609   -1.357140    1.224128
     13          1           0        3.062887   -1.810014    0.524724
     14          8           0       -3.245162   -0.377731    0.292542
     15          1           0       -2.872100    0.515961    0.402573
 ---------------------------------------------------------------------

 SCF Done:  E(UM062X) =  -420.200848584     A.U. after   23 cycles

 The electronic state is 2-A.
 Alpha  occ. eigenvalues --  -19.69211 -19.66234 -19.63924 -10.71795 -10.62180
 Alpha  occ. eigenvalues --  -10.59386 -10.58225 -10.55192  -1.26321  -1.17726
 Alpha  occ. eigenvalues --   -1.12067  -0.90630  -0.89376  -0.78281  -0.74702
 Alpha  occ. eigenvalues --   -0.65278  -0.62522  -0.59410  -0.57844  -0.54147
 Alpha  occ. eigenvalues --   -0.53771  -0.50602  -0.49712  -0.48097  -0.46846
 Alpha  occ. eigenvalues --   -0.43326  -0.42256  -0.40165  -0.39321  -0.37869
 Alpha  occ. eigenvalues --   -0.35151
 Alpha virt. eigenvalues --   -0.02880  -0.00885   0.00543   0.01116   0.01827
 Alpha virt. eigenvalues --    0.03013   0.03467   0.04576   0.04873   0.05721
 Alpha virt. eigenvalues --    0.07011   0.07307   0.08574   0.08881   0.10193

  Beta  occ. eigenvalues --  -19.69211 -19.64703 -19.63898 -10.71808 -10.62174
  Beta  occ. eigenvalues --  -10.59410 -10.58080 -10.55191  -1.26293  -1.17657
  Beta  occ. eigenvalues --   -1.04820  -0.90018  -0.89346  -0.78213  -0.74587
  Beta  occ. eigenvalues --   -0.65181  -0.62263  -0.59287  -0.57791  -0.53906
  Beta  occ. eigenvalues --   -0.51081  -0.50413  -0.48134  -0.46821  -0.43313
  Beta  occ. eigenvalues --   -0.41193  -0.40289  -0.38814  -0.37369  -0.36621
  Beta virt. eigenvalues --   -0.08411  -0.02822  -0.00865   0.00674   0.01120
  Beta virt. eigenvalues --    0.02041   0.03145   0.03644   0.04671   0.05593
  Beta virt. eigenvalues --    0.05893   0.07234   0.07414   0.08793   0.09028

 Mulliken charges and spin densities:
               1          2
     1  C   -0.650927  -0.110228
     2  H    0.240287   0.013010
     3  C    0.753999   0.204463
     4  C   -0.133343  -0.004065
     5  O   -0.288321   0.008736
     6  O   -0.032143   0.004864
     7  C   -0.346812   0.001026
     8  C   -0.408015   0.004972
     9  H    0.166438  -0.002030
    10  H    0.213565   0.001377
    11  H    0.187437  -0.000667
    12  H    0.142334   0.000110
    13  H    0.159436   0.000713
    14  O   -0.255164   0.894281
    15  H    0.251229  -0.016563
 Sum of Mulliken charges =  -0.00000   1.00000

 Dipole moment (field-independent basis, Debye):
    X=              3.0778    Y=             -3.2523    Z=             -0.9116  Tot=              4.5696
 Quadrupole moment (field-independent basis, Debye-Ang):
   XX=            -48.1181   YY=            -49.2938   ZZ=            -47.4780
   XY=             -1.4131   XZ=              0.2901   YZ=              0.8537

  Exact polarizability:  92.846   1.910  72.369  -3.328   3.794  51.115
 Approx polarizability:  95.584   7.791  92.859  -4.461   6.945  59.588

 ******    2 imaginary frequencies (negative Signs) ******

                      1                      2                      3
                      A                      A                      A
 Frequencies --    -77.5942               -34.3642                79.5598
 Red. masses --      6.7437                 7.6915                 3.5322
 Frc consts  --      0.0239                 0.0054                 0.0132
 IR Inten    --      1.3778                 2.2563                 0.1990

                      4                      5                      6
                      A                      A                      A
 Frequencies --    108.1910               143.2720               187.6651
 Red. masses --      4.1056                10.7680                 2.2074
 Frc consts  --      0.0283                 0.1302                 0.0458
 IR Inten    --      0.8326                 5.6871                 2.3733

                      7                      8                      9
                      A                      A                      A
 Frequencies --    236.2134               252.4872               304.5450
 Red. masses --      1.4186                 4.2929                 1.0587
 Frc consts  --      0.0466                 0.1612                 0.0579
 IR Inten    --      1.3238                 3.3184               112.9582

                     10                     11                     12
                      A                      A                      A
 Frequencies --    365.7279               413.1630               566.5222
 Red. masses --      3.2191                 3.7531                 4.7675
 Frc consts  --      0.2537                 0.3775                 0.9015
 IR Inten    --      3.7099                 3.7675                17.2160

                     13                     14                     15
                      A                      A                      A
 Frequencies --    634.6934               696.0027               760.6368
 Red. masses --      7.1953                 1.0589                 8.9203
 Frc consts  --      1.7078                 0.3022                 3.0408
 IR Inten    --      5.7811               206.6485                26.2125

                     16                     17                     18
                      A                      A                      A
 Frequencies --    772.1729               782.6328               791.6348
 Red. masses --      2.9861                 1.3855                 1.2288
 Frc consts  --      1.0490                 0.5000                 0.4537
 IR Inten    --     16.6308                34.7519                37.0198

                     19                     20                     21
                      A                      A                      A
 Frequencies --    813.7922               952.4185              1108.3257
 Red. masses --      1.1970                 2.2558                 3.2381
 Frc consts  --      0.4671                 1.2056                 2.3436
 IR Inten    --      4.3667                 7.7410                39.7919

                     22                     23                     24
                      A                      A                      A
 Frequencies --   1134.0828              1182.6745              1277.6773
 Red. masses --      2.7837                 1.8090                 2.5148
 Frc consts  --      2.1094                 1.4908                 2.4188
 IR Inten    --     57.2816                41.4082               390.2986

                     25                     26                     27
                      A                      A                      A
 Frequencies --   1352.5634              1407.5424              1433.6549
 Red. masses --      1.3408                 1.2956                 1.3899
 Frc consts  --      1.4452                 1.5124                 1.6832
 IR Inten    --    172.4710                40.9655                22.2901

                     28                     29                     30
                      A                      A                      A
 Frequencies --   1492.5325              1501.7242              1525.5429
 Red. masses --      1.0402                 1.0485                 1.1049
 Frc consts  --      1.3653                 1.3931                 1.5151
 IR Inten    --      3.8146                 2.7119                22.6454

                     31                     32                     33
                      A                      A                      A
 Frequencies --   1840.9753              2202.7189              3071.6464
 Red. masses --     12.8933                 5.9070                 1.0354
 Frc consts  --     25.7460                16.8863                 5.7560
 IR Inten    --    429.8711                65.5153                 5.8847

                     34                     35                     36
                      A                      A                      A
 Frequencies --   3091.9146              3143.2690              3152.6521
 Red. masses --      1.0649                 1.1030                 1.1009
 Frc consts  --      5.9981                 6.4209                 6.4471
 IR Inten    --     13.7006                 1.3135                12.8165

                     37                     38                     39
                      A                      A                      A
 Frequencies --   3166.2579              3481.6951              3745.6517
 Red. masses --      1.1050                 1.1627                 1.0677
 Frc consts  --      6.5267                 8.3044                 8.8259
 IR Inten    --     23.7152                74.1937                29.5280

 - Thermochemistry -
 -------------------
 Temperature   298.150 Kelvin.  Pressure   1.00000 Atm.
 Atom     1 has atomic number  6 and mass  12.00000

 Molecular mass:   115.03952 amu.
 Principal axes and moments of inertia in atomic units:
                           1         2         3
     Eigenvalues --   526.464481501.784681862.12649
           X            0.99969  -0.02385   0.00734
           Y            0.02391   0.99967  -0.00886
           Z           -0.00712   0.00903   0.99993
 This molecule is an asymmetric top.
 Rotational symmetry number  1.
 Warning -- assumption of classical behavior for rotation
           may cause significant error
 Rotational temperatures (Kelvin)      0.16452     0.05767     0.04651
 Rotational constants (GHZ):           3.42804     1.20173     0.96918
    2 imaginary frequencies ignored.
 Zero-point vibrational energy     294128.4 (Joules/Mol)
                                   70.29838 (Kcal/Mol)
 Warning -- explicit consideration of  10 degrees of freedom as
           vibrations may cause significant error
 Vibrational temperatures:    114.47   155.66   206.14   270.01   339.86
          (Kelvin)            363.27   438.17   526.20   594.45   815.10
                              913.18  1001.39  1094.39  1110.98  1126.03
                             1138.99  1170.87  1370.32  1594.63  1631.69
                             1701.60  1838.29  1946.04  2025.14  2062.71
                             2147.42  2160.65  2194.92  2648.75  3169.22
                             4419.41  4448.58  4522.46  4535.96  4555.54
                             5009.38  5389.16

 Zero-point correction=                           0.112028 (Hartree/Particle)
 Thermal correction to Energy=                    0.120644
 Thermal correction to Enthalpy=                  0.121589
 Thermal correction to Gibbs Free Energy=         0.077796
 Sum of electronic and zero-point Energies=           -420.088821
 Sum of electronic and thermal Energies=              -420.080204
 Sum of electronic and thermal Enthalpies=            -420.079260
 Sum of electronic and thermal Free Energies=         -420.123053

                     E (Thermal)             CV                S
                      KCal/Mol        Cal/Mol-Kelvin    Cal/Mol-Kelvin
 Total                   75.706             30.018             92.169
 Electronic               0.000              0.000              1.377
 Translational            0.889              2.981             40.136
 Rotational               0.889              2.981             28.778
 Vibrational             73.928             24.056             21.878
 Vibration     1          0.600              1.963              3.902
 Vibration     2          0.606              1.943              3.301
 Vibration     3          0.616              1.910              2.760
 Vibration     4          0.632              1.857              2.251
 Vibration     5          0.655              1.785              1.831
 Vibration     6          0.664              1.759              1.713
 Vibration     7          0.695              1.665              1.392
 Vibration     8          0.739              1.543              1.098
 Vibration     9          0.777              1.442              0.916
 Vibration    10          0.922              1.104              0.511

 Normal termination of Gaussian 16 at Fri Mar 28 10:41:52 2025.
