 Gaussian 16, Revision A.03,
 Gaussian 16:  ES64L-G16RevA.03 25-Dec-2016

 -------------------
 # freq 6-31+g m062x
 -------------------

 -------------------
 Title Card Required
 -------------------
 Symbolic Z-matrix:
 Charge =  0 Multiplicity = 2

                         Standard orientation:
 ---------------------------------------------------------------------
 Center     Atomic      Atomic             Coordinates (Angstroms)
 Number     Number       Type             X           Y           Z
 ---------------------------------------------------------------------
      1          8           0        2.287931    1.695119   -0.321323
      2          1           0        1.475830    1.799763    0.205394
      3          6           0       -3.372900    0.214075   -0.506422
      4          1           0       -4.388864    0.286634   -0.817739
      5          6           0       -2.230730    0.132045   -0.155415
      6          6           0       -0.846254    0.085838    0.283096
      7          8           0       -0.284664    1.011257    0.808474
      8          8           0       -0.300498   -1.101038    0.036957
      9          6           0        1.066551   -1.293617    0.452487
     10          6           0        2.044086   -0.797627   -0.582046
     11          1           0        1.149967   -2.374220    0.574236
     12          1           0        1.218758   -0.811416    1.419484
     13          1           0        3.056130   -1.144693   -0.373918
     14          1           0        1.742912   -1.042349   -1.600439
     15          1           0        2.158602    0.399295   -0.550087
 ---------------------------------------------------------------------

 SCF Done:  E(UM062X) =  -419.953421643     A.U. after   22 cycles

 The electronic state is 2-A.
 Alpha  occ. eigenvalues --  -19.72519 -19.68240 -19.66753 -10.74908 -10.63444
 Alpha  occ. eigenvalues --  -10.59711 -10.59355 -10.57213  -1.29899  -1.20452
 Alpha  occ. eigenvalues --   -1.12531  -0.92680  -0.89129  -0.80318  -0.72742
 Alpha  occ. eigenvalues --   -0.66568  -0.62507  -0.60730  -0.59989  -0.57463
 Alpha  occ. eigenvalues --   -0.54116  -0.51105  -0.49821  -0.48914  -0.45306
 Alpha  occ. eigenvalues --   -0.41285  -0.40577  -0.39812  -0.38594  -0.37860
 Alpha  occ. eigenvalues --   -0.34767
 Alpha virt. eigenvalues --   -0.03256   0.01483   0.01976   0.03361   0.03544
 Alpha virt. eigenvalues --    0.04096   0.04637   0.06126   0.07244   0.07685
 Alpha virt. eigenvalues --    0.08316   0.08677   0.09407   0.11067   0.12013

  Beta  occ. eigenvalues --  -19.72519 -19.68244 -19.65427 -10.74909 -10.63464
  Beta  occ. eigenvalues --  -10.59711 -10.59355 -10.56809  -1.29897  -1.20448
  Beta  occ. eigenvalues --   -1.07648  -0.92427  -0.88760  -0.79546  -0.72275
  Beta  occ. eigenvalues --   -0.66441  -0.62473  -0.60492  -0.59480  -0.55158
  Beta  occ. eigenvalues --   -0.52397  -0.50083  -0.48774  -0.45705  -0.43315
  Beta  occ. eigenvalues --   -0.41064  -0.39833  -0.38588  -0.37788  -0.36857
  Beta virt. eigenvalues --   -0.09898  -0.03232   0.01460   0.01968   0.03364
  Beta virt. eigenvalues --    0.03511   0.04186   0.04716   0.06174   0.07215
  Beta virt. eigenvalues --    0.07758   0.08417   0.08859   0.09586   0.11245

 Mulliken charges and spin densities:
               1          2
     1  O   -0.524659   0.710417
     2  H    0.466441  -0.020144
     3  C    0.287911   0.009904
     4  H    0.350442   0.000013
     5  C    0.455684   0.020561
     6  C   -0.760112  -0.018541
     7  O   -0.444003  -0.004757
     8  O   -0.215257  -0.000489
     9  C   -0.285077  -0.037257
    10  C   -0.521704   0.428142
    11  H    0.234189   0.017979
    12  H    0.245614   0.007009
    13  H    0.234518  -0.014273
    14  H    0.240411  -0.009556
    15  H    0.235600  -0.089008
 Sum of Mulliken charges =  -0.00000   1.00000

 Dipole moment (field-independent basis, Debye):
    X=             -2.2320    Y=             -3.1501    Z=              0.1369  Tot=              3.8631
 Quadrupole moment (field-independent basis, Debye-Ang):
   XX=            -41.5106   YY=            -52.0766   ZZ=            -48.3949
   XY=             -9.5172   XZ=              4.4358   YZ=             -0.7855

  Exact polarizability:  88.823  -0.438  75.785   8.101   2.996  48.472
 Approx polarizability:  94.183   1.857  82.279  13.386   7.481  54.452

 ******    3 imaginary frequencies (negative Signs) ******

                      1                      2                      3
                      A                      A                      A
 Frequencies --  -1163.1814              -315.8465               -97.8231
 Red. masses --      1.1958                 1.1103                 5.3826
 Frc consts  --      0.9532                 0.0653                 0.0303
 IR Inten    --    932.6501               115.9624                 0.0191

                      4                      5                      6
                      A                      A                      A
 Frequencies --     37.8585                73.2058               100.8381
 Red. masses --      4.7080                 3.9873                 3.4588
 Frc consts  --      0.0040                 0.0126                 0.0207
 IR Inten    --      5.3743                12.8596                 1.0514

                      7                      8                      9
                      A                      A                      A
 Frequencies --    155.5180               255.9829               302.3636
 Red. masses --      5.6456                 3.7412                 1.7754
 Frc consts  --      0.0804                 0.1444                 0.0956
 IR Inten    --     16.1244                 2.3520                26.1681

                     10                     11                     12
                      A                      A                      A
 Frequencies --    325.4778               414.8964               574.0603
 Red. masses --      1.5404                 3.4071                 4.0661
 Frc consts  --      0.0961                 0.3456                 0.7895
 IR Inten    --     12.0906                 9.5996                 1.0425

                     13                     14                     15
                      A                      A                      A
 Frequencies --    623.4751               643.1627               782.3008
 Red. masses --      3.7199                 1.9493                 3.2716
 Frc consts  --      0.8520                 0.4751                 1.1797
 IR Inten    --     13.9638                28.7634                69.7426

                     16                     17                     18
                      A                      A                      A
 Frequencies --    817.5698               854.1232               872.9800
 Red. masses --      1.4229                 1.8593                 2.4740
 Frc consts  --      0.5604                 0.7992                 1.1109
 IR Inten    --     52.1071               446.2724                 8.2376

                     19                     20                     21
                      A                      A                      A
 Frequencies --    875.3465               924.7087               965.1056
 Red. masses --      2.0673                 1.6680                 2.0680
 Frc consts  --      0.9333                 0.8404                 1.1349
 IR Inten    --     17.6885                34.9037                10.1033

                     22                     23                     24
                      A                      A                      A
 Frequencies --   1130.5193              1152.5151              1191.7977
 Red. masses --      3.8834                 2.1732                 1.6022
 Frc consts  --      2.9243                 1.7007                 1.3409
 IR Inten    --     11.9921                47.8371                 7.1862

                     25                     26                     27
                      A                      A                      A
 Frequencies --   1318.4062              1328.7064              1381.9024
 Red. masses --      1.4681                 1.1138                 2.2046
 Frc consts  --      1.5035                 1.1586                 2.4804
 IR Inten    --    165.5474               104.2424               362.7807

                     28                     29                     30
                      A                      A                      A
 Frequencies --   1446.7229              1476.1274              1510.3550
 Red. masses --      1.4378                 1.1715                 1.0370
 Frc consts  --      1.7731                 1.5040                 1.3938
 IR Inten    --     67.5370                27.9965               218.6191

                     31                     32                     33
                      A                      A                      A
 Frequencies --   1530.1293              1892.7834              2335.4155
 Red. masses --      1.0954                12.1773                 5.5417
 Frc consts  --      1.5110                25.7041                17.8083
 IR Inten    --     27.2024               304.5123                90.3618

                     34                     35                     36
                      A                      A                      A
 Frequencies --   3126.0595              3144.2966              3180.9301
 Red. masses --      1.0577                 1.0564                 1.1058
 Frc consts  --      6.0896                 6.1536                 6.5921
 IR Inten    --     14.7785                 5.9573                 3.4862

                     37                     38                     39
                      A                      A                      A
 Frequencies --   3225.4728              3532.8258              3778.0161
 Red. masses --      1.1061                 1.1798                 1.0655
 Frc consts  --      6.7799                 8.6758                 8.9603
 IR Inten    --      5.5078                55.0993                77.2011

 - Thermochemistry -
 -------------------
 Temperature   298.150 Kelvin.  Pressure   1.00000 Atm.
 Atom     1 has atomic number  8 and mass  15.99491

 Molecular mass:   115.03952 amu.
 Principal axes and moments of inertia in atomic units:
                           1         2         3
     Eigenvalues --   540.547091519.782031852.71225
           X            0.99968  -0.02500   0.00306
           Y            0.02502   0.99967  -0.00526
           Z           -0.00292   0.00533   0.99998
 This molecule is an asymmetric top.
 Rotational symmetry number  1.
 Warning -- assumption of classical behavior for rotation
           may cause significant error
 Rotational temperatures (Kelvin)      0.16023     0.05699     0.04675
 Rotational constants (GHZ):           3.33873     1.18750     0.97411
    3 imaginary frequencies ignored.
 Zero-point vibrational energy     282808.9 (Joules/Mol)
                                   67.59295 (Kcal/Mol)
 Warning -- explicit consideration of   9 degrees of freedom as
           vibrations may cause significant error
 Vibrational temperatures:     54.47   105.33   145.08   223.76   368.30
          (Kelvin)            435.03   468.29   596.94   825.94   897.04
                              925.37  1125.56  1176.30  1228.89  1256.02
                             1259.43  1330.45  1388.57  1626.57  1658.21
                             1714.73  1896.89  1911.71  1988.25  2081.51
                             2123.82  2173.06  2201.51  2723.29  3360.14
                             4497.70  4523.94  4576.65  4640.74  5082.95
                             5435.72

 Zero-point correction=                           0.107716 (Hartree/Particle)
 Thermal correction to Energy=                    0.116144
 Thermal correction to Enthalpy=                  0.117089
 Thermal correction to Gibbs Free Energy=         0.072536
 Sum of electronic and zero-point Energies=           -419.845705
 Sum of electronic and thermal Energies=              -419.837277
 Sum of electronic and thermal Enthalpies=            -419.836333
 Sum of electronic and thermal Free Energies=         -419.880885

                     E (Thermal)             CV                S
                      KCal/Mol        Cal/Mol-Kelvin    Cal/Mol-Kelvin
 Total                   72.882             28.498             93.768
 Electronic               0.000              0.000              1.377
 Translational            0.889              2.981             40.136
 Rotational               0.889              2.981             28.811
 Vibrational             71.104             22.537             23.444
 Vibration     1          0.594              1.982              5.368
 Vibration     2          0.599              1.967              4.065
 Vibration     3          0.604              1.948              3.438
 Vibration     4          0.620              1.897              2.604
 Vibration     5          0.666              1.753              1.689
 Vibration     6          0.694              1.669              1.404
 Vibration     7          0.710              1.625              1.282
 Vibration     8          0.778              1.438              0.909
 Vibration     9          0.930              1.087              0.496

 Normal termination of Gaussian 16 at Fri Jun 20 12:49:50 2025.
