 Gaussian 16, Revision A.03,
 Gaussian 16:  ES64L-G16RevA.03 25-Dec-2016

 -------------------
 # freq 6-31+g m062x
 -------------------

 -------------------
 Title Card Required
 -------------------
 Symbolic Z-matrix:
 Charge =  0 Multiplicity = 2

                         Standard orientation:
 ---------------------------------------------------------------------
 Center     Atomic      Atomic             Coordinates (Angstroms)
 Number     Number       Type             X           Y           Z
 ---------------------------------------------------------------------
      1          8           0        2.287865    1.698150   -0.321499
      2          1           0        1.474583    1.799762    0.205172
      3          6           0       -3.372885    0.213463   -0.506542
      4          1           0       -4.388851    0.285650   -0.817919
      5          6           0       -2.230705    0.131831   -0.155464
      6          6           0       -0.846153    0.085872    0.283021
      7          8           0       -0.284767    1.011906    0.808055
      8          8           0       -0.300343   -1.100672    0.037451
      9          6           0        1.066957   -1.293377    0.453165
     10          6           0        2.044467   -0.797024   -0.581943
     11          1           0        1.149680   -2.373603    0.575659
     12          1           0        1.218710   -0.810258    1.419713
     13          1           0        3.055199   -1.148489   -0.373746
     14          1           0        1.743455   -1.048133   -1.599014
     15          1           0        2.155089    0.375410   -0.555339
 ---------------------------------------------------------------------

 SCF Done:  E(UM062X) =  -419.954014039     A.U. after   22 cycles

 The electronic state is 2-A.
 Alpha  occ. eigenvalues --  -19.72463 -19.68212 -19.67156 -10.74881 -10.63304
 Alpha  occ. eigenvalues --  -10.59690 -10.59335 -10.56834  -1.29853  -1.20403
 Alpha  occ. eigenvalues --   -1.12760  -0.92606  -0.89065  -0.80269  -0.72703
 Alpha  occ. eigenvalues --   -0.66480  -0.62486  -0.60686  -0.59922  -0.57409
 Alpha  occ. eigenvalues --   -0.54052  -0.51137  -0.49775  -0.48884  -0.45205
 Alpha  occ. eigenvalues --   -0.41269  -0.40558  -0.40084  -0.38578  -0.37842
 Alpha  occ. eigenvalues --   -0.35362
 Alpha virt. eigenvalues --   -0.03234   0.01522   0.01990   0.03396   0.03583
 Alpha virt. eigenvalues --    0.04112   0.04653   0.06147   0.07267   0.07715
 Alpha virt. eigenvalues --    0.08358   0.08665   0.09419   0.11079   0.12036

  Beta  occ. eigenvalues --  -19.72463 -19.68216 -19.65772 -10.74882 -10.63321
  Beta  occ. eigenvalues --  -10.59690 -10.59335 -10.56465  -1.29851  -1.20399
  Beta  occ. eigenvalues --   -1.07529  -0.92380  -0.88721  -0.79552  -0.72268
  Beta  occ. eigenvalues --   -0.66367  -0.62454  -0.60456  -0.59434  -0.55150
  Beta  occ. eigenvalues --   -0.52300  -0.50017  -0.48643  -0.45727  -0.43290
  Beta  occ. eigenvalues --   -0.41032  -0.39804  -0.38572  -0.37775  -0.37042
  Beta virt. eigenvalues --   -0.09780  -0.03210   0.01510   0.01983   0.03405
  Beta virt. eigenvalues --    0.03555   0.04210   0.04736   0.06196   0.07249
  Beta virt. eigenvalues --    0.07790   0.08456   0.08848   0.09610   0.11263

 Mulliken charges and spin densities:
               1          2
     1  O   -0.507128   0.750401
     2  H    0.465857  -0.022159
     3  C    0.285937   0.009831
     4  H    0.350343   0.000011
     5  C    0.453254   0.019591
     6  C   -0.756639  -0.018730
     7  O   -0.444197  -0.004039
     8  O   -0.215374  -0.000519
     9  C   -0.284220  -0.033137
    10  C   -0.524082   0.381680
    11  H    0.232834   0.015537
    12  H    0.244262   0.006079
    13  H    0.232817  -0.012382
    14  H    0.238791  -0.007903
    15  H    0.227545  -0.084261
 Sum of Mulliken charges =  -0.00000   1.00000

 Dipole moment (field-independent basis, Debye):
    X=             -2.2026    Y=             -3.0032    Z=              0.1428  Tot=              3.7271
 Quadrupole moment (field-independent basis, Debye-Ang):
   XX=            -41.4519   YY=            -51.8602   ZZ=            -48.4307
   XY=             -9.1485   XZ=              4.4628   YZ=             -0.8307

  Exact polarizability:  88.765  -0.659  75.142   8.123   3.006  48.445
 Approx polarizability:  94.119   1.595  80.853  13.389   7.416  54.387

 ******    3 imaginary frequencies (negative Signs) ******

                      1                      2                      3
                      A                      A                      A
 Frequencies --   -868.7323              -312.7346              -109.5958
 Red. masses --      1.4478                 1.1147                 5.2601
 Frc consts  --      0.6438                 0.0642                 0.0372
 IR Inten    --    589.5981               114.2164                 0.1648

                      4                      5                      6
                      A                      A                      A
 Frequencies --     22.7299                63.1640                89.5071
 Red. masses --      4.4715                 3.5694                 4.1120
 Frc consts  --      0.0014                 0.0084                 0.0194
 IR Inten    --      4.4765                14.0577                 2.4912

                      7                      8                      9
                      A                      A                      A
 Frequencies --    148.5479               255.6777               265.8915
 Red. masses --      4.8997                 3.8172                 1.1636
 Frc consts  --      0.0637                 0.1470                 0.0485
 IR Inten    --     18.1819                 4.3998                22.8884

                     10                     11                     12
                      A                      A                      A
 Frequencies --    315.3045               411.9436               573.1948
 Red. masses --      2.9364                 3.4417                 4.1074
 Frc consts  --      0.1720                 0.3441                 0.7951
 IR Inten    --     12.5360                 9.2518                 1.4465

                     13                     14                     15
                      A                      A                      A
 Frequencies --    624.4013               648.5186               782.4225
 Red. masses --      4.1033                 1.5105                 3.2689
 Frc consts  --      0.9426                 0.3743                 1.1790
 IR Inten    --     14.2536                74.8886                72.5894

                     16                     17                     18
                      A                      A                      A
 Frequencies --    817.3114               868.7018               874.9723
 Red. masses --      1.4222                 2.2107                 1.9014
 Frc consts  --      0.5597                 0.9829                 0.8576
 IR Inten    --     51.5353                23.9647                21.0320

                     19                     20                     21
                      A                      A                      A
 Frequencies --    915.9643               953.5095              1042.5791
 Red. masses --      1.7372                 2.4718                 1.8354
 Frc consts  --      0.8587                 1.3241                 1.1754
 IR Inten    --     69.4398                71.5994               377.4612

                     22                     23                     24
                      A                      A                      A
 Frequencies --   1132.7932              1158.0415              1199.7698
 Red. masses --      3.3919                 2.3542                 1.5408
 Frc consts  --      2.5645                 1.8601                 1.3067
 IR Inten    --     29.1068               111.2478                17.3327

                     25                     26                     27
                      A                      A                      A
 Frequencies --   1321.0866              1350.4286              1388.9283
 Red. masses --      1.4873                 1.1867                 1.9791
 Frc consts  --      1.5293                 1.2750                 2.2494
 IR Inten    --    190.3741               135.2327               325.8605

                     28                     29                     30
                      A                      A                      A
 Frequencies --   1448.6343              1474.3512              1530.5557
 Red. masses --      1.4243                 1.1745                 1.0916
 Frc consts  --      1.7610                 1.5042                 1.5067
 IR Inten    --     62.4317                33.2432                78.3595

                     31                     32                     33
                      A                      A                      A
 Frequencies --   1539.8440              1892.0064              2335.3786
 Red. masses --      1.0317                12.1338                 5.5419
 Frc consts  --      1.4413                25.5913                17.8084
 IR Inten    --    321.8314               322.4431                90.1156

                     34                     35                     36
                      A                      A                      A
 Frequencies --   3128.0783              3142.0476              3183.3939
 Red. masses --      1.0578                 1.0566                 1.1060
 Frc consts  --      6.0983                 6.1458                 6.6037
 IR Inten    --     15.4720                 7.1167                 4.1099

                     37                     38                     39
                      A                      A                      A
 Frequencies --   3221.3920              3532.8727              3768.5547
 Red. masses --      1.1053                 1.1798                 1.0656
 Frc consts  --      6.7581                 8.6759                 8.9167
 IR Inten    --      6.3129                55.0749                77.6145

 - Thermochemistry -
 -------------------
 Temperature   298.150 Kelvin.  Pressure   1.00000 Atm.
 Atom     1 has atomic number  8 and mass  15.99491

 Molecular mass:   115.03952 amu.
 Principal axes and moments of inertia in atomic units:
                           1         2         3
     Eigenvalues --   541.060591519.789211853.21542
           X            0.99968  -0.02527   0.00304
           Y            0.02529   0.99967  -0.00505
           Z           -0.00291   0.00512   0.99998
 This molecule is an asymmetric top.
 Rotational symmetry number  1.
 Warning -- assumption of classical behavior for rotation
           may cause significant error
 Rotational temperatures (Kelvin)      0.16008     0.05699     0.04674
 Rotational constants (GHZ):           3.33556     1.18749     0.97384
    3 imaginary frequencies ignored.
 Zero-point vibrational energy     283649.5 (Joules/Mol)
                                   67.79387 (Kcal/Mol)
 Warning -- explicit consideration of   9 degrees of freedom as
           vibrations may cause significant error
 Vibrational temperatures:     32.70    90.88   128.78   213.73   367.86
          (Kelvin)            382.56   453.65   592.69   824.70   898.37
                              933.07  1125.73  1175.93  1249.87  1258.89
                             1317.87  1371.89  1500.04  1629.84  1666.16
                             1726.20  1900.75  1942.97  1998.36  2084.26
                             2121.26  2202.13  2215.49  2722.18  3360.09
                             4500.61  4520.71  4580.19  4634.86  5083.02
                             5422.11

 Zero-point correction=                           0.108036 (Hartree/Particle)
 Thermal correction to Energy=                    0.116581
 Thermal correction to Enthalpy=                  0.117525
 Thermal correction to Gibbs Free Energy=         0.072110
 Sum of electronic and zero-point Energies=           -419.845978
 Sum of electronic and thermal Energies=              -419.837433
 Sum of electronic and thermal Enthalpies=            -419.836489
 Sum of electronic and thermal Free Energies=         -419.881904

                     E (Thermal)             CV                S
                      KCal/Mol        Cal/Mol-Kelvin    Cal/Mol-Kelvin
 Total                   73.155             28.373             95.584
 Electronic               0.000              0.000              1.377
 Translational            0.889              2.981             40.136
 Rotational               0.889              2.981             28.812
 Vibrational             71.378             22.411             25.259
 Vibration     1          0.593              1.985              6.380
 Vibration     2          0.597              1.972              4.356
 Vibration     3          0.602              1.957              3.671
 Vibration     4          0.618              1.904              2.691
 Vibration     5          0.666              1.753              1.691
 Vibration     6          0.672              1.736              1.623
 Vibration     7          0.703              1.644              1.334
 Vibration     8          0.776              1.444              0.920
 Vibration     9          0.929              1.089              0.498

 Normal termination of Gaussian 16 at Fri Jun 20 12:56:20 2025.
