 Gaussian 16, Revision A.03,
 Gaussian 16:  ES64L-G16RevA.03 25-Dec-2016

 --------------------------
 # freq 6-311++g(d,p) m062x
 --------------------------

 -------------------
 Title Card Required
 -------------------
 Symbolic Z-matrix:
 Charge =  0 Multiplicity = 2

                         Standard orientation:
 ---------------------------------------------------------------------
 Center     Atomic      Atomic             Coordinates (Angstroms)
 Number     Number       Type             X           Y           Z
 ---------------------------------------------------------------------
      1          8           0        2.289348    1.734020   -0.321889
      2          1           0        1.468108    1.802234    0.202308
      3          6           0       -3.372481    0.210697   -0.507758
      4          1           0       -4.388407    0.280294   -0.819817
      5          6           0       -2.230307    0.131824   -0.155828
      6          6           0       -0.845008    0.087267    0.282359
      7          8           0       -0.284017    1.018285    0.802412
      8          8           0       -0.300630   -1.097970    0.043242
      9          6           0        1.067931   -1.294636    0.461758
     10          6           0        2.045505   -0.818971   -0.584579
     11          1           0        1.140455   -2.372697    0.597865
     12          1           0        1.219179   -0.798831    1.421623
     13          1           0        3.047788   -1.188877   -0.365239
     14          1           0        1.745949   -1.135754   -1.584400
     15          1           0        2.135485    0.281875   -0.618174
 ---------------------------------------------------------------------

 SCF Done:  E(UM062X) =  -420.203321670     A.U. after   20 cycles

 The electronic state is 2-A.
 Alpha  occ. eigenvalues --  -19.69767 -19.66065 -19.64774 -10.72313 -10.61734
 Alpha  occ. eigenvalues --  -10.57956 -10.57486 -10.54649  -1.27214  -1.17865
 Alpha  occ. eigenvalues --   -1.12457  -0.91578  -0.88020  -0.79395  -0.71806
 Alpha  occ. eigenvalues --   -0.65871  -0.62063  -0.60502  -0.58926  -0.56582
 Alpha  occ. eigenvalues --   -0.53980  -0.51638  -0.49101  -0.48157  -0.44930
 Alpha  occ. eigenvalues --   -0.41646  -0.40962  -0.40316  -0.38153  -0.37932
 Alpha  occ. eigenvalues --   -0.37315
 Alpha virt. eigenvalues --   -0.02831  -0.00366   0.00470   0.01757   0.02307
 Alpha virt. eigenvalues --    0.03024   0.03458   0.04922   0.05651   0.06406
 Alpha virt. eigenvalues --    0.06623   0.07377   0.07885   0.09335   0.10123

  Beta  occ. eigenvalues --  -19.69767 -19.64777 -19.64579 -10.72314 -10.61742
  Beta  occ. eigenvalues --  -10.57956 -10.57486 -10.54434  -1.27212  -1.17859
  Beta  occ. eigenvalues --   -1.05568  -0.91432  -0.87782  -0.78933  -0.71494
  Beta  occ. eigenvalues --   -0.65816  -0.62029  -0.60324  -0.58514  -0.54524
  Beta  occ. eigenvalues --   -0.51889  -0.49804  -0.47929  -0.46025  -0.42935
  Beta  occ. eigenvalues --   -0.40889  -0.39811  -0.38260  -0.38005  -0.37279
  Beta virt. eigenvalues --   -0.09019  -0.02809  -0.00324   0.00490   0.01828
  Beta virt. eigenvalues --    0.02544   0.03128   0.03471   0.05350   0.05722
  Beta virt. eigenvalues --    0.06521   0.06821   0.07513   0.07924   0.09544

 Mulliken charges and spin densities:
               1          2
     1  O   -0.279135   0.856457
     2  H    0.269472  -0.011202
     3  C   -0.638317  -0.001226
     4  H    0.181796  -0.000029
     5  C    1.219565   0.006697
     6  C   -0.661336   0.003940
     7  O   -0.277407  -0.001637
     8  O    0.027034  -0.000493
     9  C   -0.423209  -0.023569
    10  C   -0.435374   0.206826
    11  H    0.194980   0.008029
    12  H    0.227098   0.002131
    13  H    0.174082  -0.006561
    14  H    0.190626  -0.001282
    15  H    0.230124  -0.038080
 Sum of Mulliken charges =  -0.00000   1.00000

 Dipole moment (field-independent basis, Debye):
    X=             -1.8663    Y=             -2.5323    Z=              0.0010  Tot=              3.1457
 Quadrupole moment (field-independent basis, Debye-Ang):
   XX=            -40.3202   YY=            -50.2108   ZZ=            -48.0750
   XY=             -7.0955   XZ=              4.2319   YZ=             -0.8547

  Exact polarizability:  93.026  -2.278  71.533   7.715   2.324  52.088
 Approx polarizability:  99.955   0.065  80.158  12.265   5.686  62.794

 ******    3 imaginary frequencies (negative Signs) ******

                      1                      2                      3
                      A                      A                      A
 Frequencies --   -290.6395              -115.7472               -24.8380
 Red. masses --      1.3400                 3.3293                 3.9225
 Frc consts  --      0.0667                 0.0263                 0.0014
 IR Inten    --     23.3379                 4.1200                 1.5577

                      4                      5                      6
                      A                      A                      A
 Frequencies --     48.3436                85.6585               142.5780
 Red. masses --      3.4535                 3.4166                 5.4023
 Frc consts  --      0.0048                 0.0148                 0.0647
 IR Inten    --      3.8576                 2.9298                 0.9927

                      7                      8                      9
                      A                      A                      A
 Frequencies --    191.3958               273.0650               334.6097
 Red. masses --      4.5284                 4.2893                 3.5076
 Frc consts  --      0.0977                 0.1884                 0.2314
 IR Inten    --      8.9212                 2.2627                12.5273

                     10                     11                     12
                      A                      A                      A
 Frequencies --    414.5185               431.3795               562.5642
 Red. masses --      3.6271                 1.0555                 4.2498
 Frc consts  --      0.3672                 0.1157                 0.7924
 IR Inten    --      2.4851                94.8604                 1.5956

                     13                     14                     15
                      A                      A                      A
 Frequencies --    610.3008               677.1183               745.9991
 Red. masses --      7.1806                 1.1333                 1.3138
 Frc consts  --      1.5758                 0.3061                 0.4308
 IR Inten    --      9.8194               131.1845                38.8237

                     16                     17                     18
                      A                      A                      A
 Frequencies --    779.3974               789.7007               817.4391
 Red. masses --      1.4454                 5.4813                 1.1920
 Frc consts  --      0.5173                 2.0140                 0.4693
 IR Inten    --     18.0350                53.2182                63.8109

                     19                     20                     21
                      A                      A                      A
 Frequencies --    887.8987               935.3991              1081.6356
 Red. masses --      2.8923                 3.0811                 3.8776
 Frc consts  --      1.3435                 1.5884                 2.6728
 IR Inten    --     23.6249                11.6688                29.2933

                     22                     23                     24
                      A                      A                      A
 Frequencies --   1109.3539              1169.0003              1299.0861
 Red. masses --      2.1688                 1.8451                 2.7613
 Frc consts  --      1.5726                 1.4856                 2.7456
 IR Inten    --     18.5262                 6.1964               450.4529

                     25                     26                     27
                      A                      A                      A
 Frequencies --   1344.2838              1377.3097              1402.4794
 Red. masses --      1.3168                 1.0755                 1.3337
 Frc consts  --      1.4020                 1.2020                 1.5456
 IR Inten    --    159.0114                 6.7976                57.4242

                     28                     29                     30
                      A                      A                      A
 Frequencies --   1438.8173              1459.1800              1506.2722
 Red. masses --      1.3917                 1.0569                 1.1061
 Frc consts  --      1.6975                 1.3258                 1.4786
 IR Inten    --     27.3086                 2.0841                21.3883

                     31                     32                     33
                      A                      A                      A
 Frequencies --   1816.0605              2271.2702              2470.6862
 Red. masses --     11.6355                 5.7393                 1.0985
 Frc consts  --     22.6097                17.4441                 3.9507
 IR Inten    --    323.2319                86.4282               555.8624

                     34                     35                     36
                      A                      A                      A
 Frequencies --   3102.5891              3105.3863              3159.9458
 Red. masses --      1.0589                 1.0604                 1.1066
 Frc consts  --      6.0053                 6.0247                 6.5103
 IR Inten    --      9.4917                17.2646                 8.4284

                     37                     38                     39
                      A                      A                      A
 Frequencies --   3167.6454              3490.2487              3712.8028
 Red. masses --      1.1052                 1.1714                 1.0666
 Frc consts  --      6.5337                 8.4078                 8.6628
 IR Inten    --      7.5303                63.3124               151.7772

 - Thermochemistry -
 -------------------
 Temperature   298.150 Kelvin.  Pressure   1.00000 Atm.
 Atom     1 has atomic number  8 and mass  15.99491

 Molecular mass:   115.03952 amu.
 Principal axes and moments of inertia in atomic units:
                           1         2         3
     Eigenvalues --   550.959661519.902671862.76498
           X            0.99963  -0.02713   0.00289
           Y            0.02714   0.99963  -0.00360
           Z           -0.00279   0.00368   0.99999
 This molecule is an asymmetric top.
 Rotational symmetry number  1.
 Warning -- assumption of classical behavior for rotation
           may cause significant error
 Rotational temperatures (Kelvin)      0.15721     0.05699     0.04650
 Rotational constants (GHZ):           3.27563     1.18741     0.96885
    3 imaginary frequencies ignored.
 Zero-point vibrational energy     288368.3 (Joules/Mol)
                                   68.92168 (Kcal/Mol)
 Warning -- explicit consideration of  10 degrees of freedom as
           vibrations may cause significant error
 Vibrational temperatures:     69.56   123.24   205.14   275.38   392.88
          (Kelvin)            481.43   596.40   620.66   809.40   878.09
                              974.22  1073.33  1121.38  1136.20  1176.11
                             1277.49  1345.83  1556.23  1596.11  1681.93
                             1869.10  1934.12  1981.64  2017.86  2070.14
                             2099.43  2167.19  2612.91  3267.85  3554.77
                             4463.93  4467.96  4546.46  4557.54  5021.69
                             5341.90

 Zero-point correction=                           0.109834 (Hartree/Particle)
 Thermal correction to Energy=                    0.117928
 Thermal correction to Enthalpy=                  0.118872
 Thermal correction to Gibbs Free Energy=         0.075492
 Sum of electronic and zero-point Energies=           -420.093488
 Sum of electronic and thermal Energies=              -420.085393
 Sum of electronic and thermal Enthalpies=            -420.084449
 Sum of electronic and thermal Free Energies=         -420.127829

                     E (Thermal)             CV                S
                      KCal/Mol        Cal/Mol-Kelvin    Cal/Mol-Kelvin
 Total                   74.001             28.089             91.301
 Electronic               0.000              0.000              1.377
 Translational            0.889              2.981             40.136
 Rotational               0.889              2.981             28.835
 Vibrational             72.224             22.128             20.953
 Vibration     1          0.595              1.978              4.884
 Vibration     2          0.601              1.959              3.757
 Vibration     3          0.616              1.911              2.769
 Vibration     4          0.634              1.852              2.214
 Vibration     5          0.676              1.723              1.577
 Vibration     6          0.716              1.606              1.238
 Vibration     7          0.778              1.439              0.911
 Vibration     8          0.792              1.402              0.854
 Vibration     9          0.918              1.112              0.519
 Vibration    10          0.969              1.010              0.432

 1\1\GINC-AJ\Freq\UM062X\6-311++G(d,p)\C5H7O3(2)\AAYUSH\23-Jun-2025\0\\
 # freq 6-311++g(d,p) m062x\\Title Card Required\\0,2\O,2.289348,1.7340
 2,-0.321889\H,1.468108,1.802234,0.202308\C,-3.372481,0.210697,-0.50775
 8\H,-4.388407,0.280294,-0.819817\C,-2.230307,0.131824,-0.155828\C,-0.8
 45008,0.087267,0.282359\O,-0.284017,1.018285,0.802412\O,-0.30063,-1.09
 797,0.043242\C,1.067931,-1.294636,0.461758\C,2.045505,-0.818971,-0.584
 579\H,1.140455,-2.372697,0.597865\H,1.219179,-0.798831,1.421623\H,3.04
 7788,-1.188877,-0.365239\H,1.745949,-1.135754,-1.5844\H,2.135485,0.281

 Normal termination of Gaussian 16 at Mon Jun 23 02:09:04 2025.
