 Gaussian 16, Revision A.03,
 Gaussian 16:  ES64L-G16RevA.03 25-Dec-2016

 --------------------------
 # ccsd(t)/6-311++g(d,p) sp
 --------------------------

 -------------------
 Title Card Required
 -------------------
 Symbolic Z-matrix:
 Charge =  0 Multiplicity = 2

                         Standard orientation:
 ---------------------------------------------------------------------
 Center     Atomic      Atomic             Coordinates (Angstroms)
 Number     Number       Type             X           Y           Z
 ---------------------------------------------------------------------
      1          8           0        2.289027    1.676418   -0.320027
      2          1           0        1.486428    1.803829    0.206494
      3          6           0       -3.372949    0.219228   -0.505651
      4          1           0       -4.388857    0.294582   -0.816593
      5          6           0       -2.230884    0.134168   -0.155073
      6          6           0       -0.846843    0.085493    0.283497
      7          8           0       -0.283388    1.007157    0.810799
      8          8           0       -0.302307   -1.103492    0.034113
      9          6           0        1.063341   -1.296346    0.448504
     10          6           0        2.040550   -0.810231   -0.583405
     11          1           0        1.149286   -2.379623    0.567199
     12          1           0        1.218471   -0.819322    1.418300
     13          1           0        3.061777   -1.123056   -0.373965
     14          1           0        1.738122   -1.011957   -1.609361
     15          1           0        2.188831    0.601008   -0.518386
 ---------------------------------------------------------------------

 SCF Done:  E(UHF) =  -417.967578214     A.U. after   27 cycles
 E2 =    -0.1294588975D+01 EUMP2 =    -0.41926216718890D+03
 CCSD(T)= -0.41935784142D+03

 The electronic state is 2-A.
 Alpha  occ. eigenvalues --  -20.63663 -20.58100 -20.54532 -11.43754 -11.32404
 Alpha  occ. eigenvalues --  -11.27936 -11.27726 -11.27088  -1.50514  -1.40327
 Alpha  occ. eigenvalues --   -1.32410  -1.10035  -1.06726  -0.95253  -0.86137
 Alpha  occ. eigenvalues --   -0.78843  -0.74235  -0.72550  -0.70501  -0.68415
 Alpha  occ. eigenvalues --   -0.64247  -0.61049  -0.59183  -0.57993  -0.55466
 Alpha  occ. eigenvalues --   -0.50641  -0.49587  -0.48144  -0.43893  -0.43766
 Alpha  occ. eigenvalues --   -0.41483
 Alpha virt. eigenvalues --    0.03338   0.03969   0.05625   0.06566   0.07194
 Alpha virt. eigenvalues --    0.07345   0.09769   0.10432   0.10880   0.11773
 Alpha virt. eigenvalues --    0.12121   0.13434   0.13900   0.14926   0.15935

  Beta  occ. eigenvalues --  -20.63662 -20.58092 -20.52756 -11.43763 -11.32590
  Beta  occ. eigenvalues --  -11.27947 -11.27077 -11.25460  -1.50506  -1.40301
  Beta  occ. eigenvalues --   -1.26733  -1.09208  -1.04712  -0.92482  -0.84147
  Beta  occ. eigenvalues --   -0.78617  -0.74171  -0.72208  -0.69248  -0.63951
  Beta  occ. eigenvalues --   -0.62329  -0.59587  -0.57745  -0.55216  -0.52216
  Beta  occ. eigenvalues --   -0.50235  -0.48603  -0.46103  -0.43859  -0.43752
  Beta virt. eigenvalues --    0.03353   0.03945   0.05215   0.06187   0.06609
  Beta virt. eigenvalues --    0.07211   0.07488   0.09903   0.10686   0.10883
  Beta virt. eigenvalues --    0.12128   0.12671   0.13458   0.13914   0.15067

 Mulliken charges and spin densities:
               1          2
     1  O   -0.529624   0.352529
     2  H    0.281332  -0.001155
     3  C   -0.694977  -0.006187
     4  H    0.206368   0.000413
     5  C    1.373010   0.005179
     6  C   -0.687170   0.007558
     7  O   -0.334783  -0.000949
     8  O   -0.051558  -0.001664
     9  C   -0.307444  -0.127599
    10  C   -0.397666   0.966600
    11  H    0.179192   0.046898
    12  H    0.224780   0.020457
    13  H    0.169316  -0.052547
    14  H    0.200403  -0.043861
    15  H    0.368820  -0.165672
 Sum of Mulliken charges =  -0.00000   1.00000

 Dipole moment (field-independent basis, Debye):
    X=             -2.3853    Y=             -4.2633    Z=             -0.1629  Tot=              4.8879
 Quadrupole moment (field-independent basis, Debye-Ang):
   XX=            -40.2465   YY=            -53.1621   ZZ=            -47.6289
   XY=            -11.4503   XZ=              4.2179   YZ=             -0.5287

 PMP3-0=-419.2816465\MP4SDQ=-419.305368\CCSD=-419.3029476\CCSD(T)=-419.
 Normal termination of Gaussian 16 at Tue Jul  8 11:57:46 2025.
