 Gaussian 16, Revision A.03,
 Gaussian 16:  ES64L-G16RevA.03 25-Dec-2016

 --------------------------
 # ccsd(t)/6-311++g(d,p) sp
 --------------------------

 -------------------
 Title Card Required
 -------------------
 Symbolic Z-matrix:
 Charge =  0 Multiplicity = 2

                         Standard orientation:
 ---------------------------------------------------------------------
 Center     Atomic      Atomic             Coordinates (Angstroms)
 Number     Number       Type             X           Y           Z
 ---------------------------------------------------------------------
      1          8           0        2.288241    1.687034   -0.320814
      2          1           0        1.479613    1.800218    0.205909
      3          6           0       -3.372932    0.215955   -0.506095
      4          1           0       -4.388881    0.289598   -0.817250
      5          6           0       -2.230795    0.132761   -0.155276
      6          6           0       -0.846511    0.085720    0.283285
      7          8           0       -0.284270    1.009510    0.809542
      8          8           0       -0.301065   -1.102046    0.035674
      9          6           0        1.065340   -1.294496    0.450724
     10          6           0        2.042870   -0.800789   -0.582467
     11          1           0        1.150283   -2.376196    0.570749
     12          1           0        1.218775   -0.814657    1.418916
     13          1           0        3.058566   -1.135104   -0.374207
     14          1           0        1.741212   -1.028222   -1.604237
     15          1           0        2.169344    0.473481   -0.536117
 ---------------------------------------------------------------------

 SCF Done:  E(UHF) =  -417.961193889     A.U. after   30 cycles
 E2 =    -0.1287334327D+01 EUMP2 =    -0.41924852821651D+03
 CCSD(T)= -0.41934994979D+03

 The electronic state is 2-A.
 Alpha  occ. eigenvalues --  -20.63160 -20.58870 -20.57910 -11.43583 -11.31355
 Alpha  occ. eigenvalues --  -11.27795 -11.26953 -11.25701  -1.50123  -1.40016
 Alpha  occ. eigenvalues --   -1.35821  -1.09325  -1.05800  -0.94419  -0.85525
 Alpha  occ. eigenvalues --   -0.78255  -0.74081  -0.72423  -0.70723  -0.68270
 Alpha  occ. eigenvalues --   -0.64134  -0.62129  -0.59411  -0.57396  -0.54689
 Alpha  occ. eigenvalues --   -0.51929  -0.50418  -0.49043  -0.43787  -0.43630
 Alpha  occ. eigenvalues --   -0.42788
 Alpha virt. eigenvalues --    0.03479   0.04253   0.05885   0.06757   0.07324
 Alpha virt. eigenvalues --    0.07520   0.09549   0.10283   0.11024   0.11599
 Alpha virt. eigenvalues --    0.12204   0.13685   0.14119   0.15032   0.16165

  Beta  occ. eigenvalues --  -20.63158 -20.57918 -20.55692 -11.43587 -11.31479
  Beta  occ. eigenvalues --  -11.27800 -11.26948 -11.24112  -1.50122  -1.40008
  Beta  occ. eigenvalues --   -1.24846  -1.08949  -1.04335  -0.92539  -0.84144
  Beta  occ. eigenvalues --   -0.78121  -0.74028  -0.71960  -0.68788  -0.63676
  Beta  occ. eigenvalues --   -0.62348  -0.58915  -0.56953  -0.54529  -0.50997
  Beta  occ. eigenvalues --   -0.49408  -0.48048  -0.47120  -0.43744  -0.43614
  Beta virt. eigenvalues --    0.03486   0.04242   0.05446   0.06151   0.06863
  Beta virt. eigenvalues --    0.07337   0.07708   0.09953   0.10657   0.11029
  Beta virt. eigenvalues --    0.12216   0.12350   0.13720   0.14126   0.15217

 Mulliken charges and spin densities:
               1          2
     1  O   -0.375939   0.695091
     2  H    0.288678  -0.011074
     3  C   -0.698478  -0.003195
     4  H    0.205826   0.000176
     5  C    1.377721   0.005854
     6  C   -0.683909   0.011299
     7  O   -0.345308  -0.005040
     8  O   -0.054201  -0.000332
     9  C   -0.298731  -0.094533
    10  C   -0.411963   0.652371
    11  H    0.168901   0.026069
    12  H    0.214726   0.013885
    13  H    0.153052  -0.036317
    14  H    0.184273  -0.027564
    15  H    0.275352  -0.226690
 Sum of Mulliken charges =  -0.00000   1.00000

 Dipole moment (field-independent basis, Debye):
    X=             -2.1809    Y=             -3.0446    Z=             -0.0620  Tot=              3.7456
 Quadrupole moment (field-independent basis, Debye-Ang):
   XX=            -39.8863   YY=            -51.4386   ZZ=            -48.0275
   XY=             -8.4572   XZ=              4.5208   YZ=             -0.8735

 3-0=-419.2732071\MP4SDQ=-419.2956163\CCSD=-419.2948787\CCSD(T)=-419.34
 Normal termination of Gaussian 16 at Tue Jul  8 17:34:38 2025.
