 Gaussian 16, Revision A.03,
 Gaussian 16:  ES64L-G16RevA.03 25-Dec-2016

 -------------------
 # freq 6-31+g m062x
 -------------------

 -------------------
 Title Card Required
 -------------------
 Symbolic Z-matrix:
 Charge =  0 Multiplicity = 2

                         Standard orientation:
 ---------------------------------------------------------------------
 Center     Atomic      Atomic             Coordinates (Angstroms)
 Number     Number       Type             X           Y           Z
 ---------------------------------------------------------------------
      1          8           0        2.288109    1.689442   -0.320982
      2          1           0        1.478341    1.799936    0.205771
      3          6           0       -3.372925    0.215318   -0.506195
      4          1           0       -4.388882    0.288612   -0.817397
      5          6           0       -2.230777    0.132504   -0.155320
      6          6           0       -0.846439    0.085768    0.283233
      7          8           0       -0.284424    1.010036    0.809235
      8          8           0       -0.300848   -1.101737    0.036049
      9          6           0        1.065737   -1.294158    0.451241
     10          6           0        2.043293   -0.799370   -0.582298
     11          1           0        1.150331   -2.375507    0.571703
     12          1           0        1.218809   -0.813639    1.419072
     13          1           0        3.057869   -1.137767   -0.374161
     14          1           0        1.741788   -1.032039   -1.603107
     15          1           0        2.165717    0.448105   -0.540259
 ---------------------------------------------------------------------

 SCF Done:  E(UM062X) =  -419.952686043     A.U. after   22 cycles

 The electronic state is 2-A.
 Alpha  occ. eigenvalues --  -19.72629 -19.68301 -19.65925 -10.74965 -10.63711
 Alpha  occ. eigenvalues --  -10.59753 -10.59395 -10.57882  -1.29993  -1.20551
 Alpha  occ. eigenvalues --   -1.12141  -0.92828  -0.89253  -0.80413  -0.72820
 Alpha  occ. eigenvalues --   -0.66741  -0.62549  -0.60825  -0.60120  -0.57549
 Alpha  occ. eigenvalues --   -0.54285  -0.51225  -0.49948  -0.48690  -0.45502
 Alpha  occ. eigenvalues --   -0.41334  -0.40672  -0.39230  -0.38615  -0.37898
 Alpha  occ. eigenvalues --   -0.33672
 Alpha virt. eigenvalues --   -0.03302   0.01405   0.01950   0.03286   0.03477
 Alpha virt. eigenvalues --    0.04059   0.04610   0.06083   0.07203   0.07625
 Alpha virt. eigenvalues --    0.08236   0.08700   0.09392   0.11043   0.11968

  Beta  occ. eigenvalues --  -19.72628 -19.68304 -19.64731 -10.74966 -10.63735
  Beta  occ. eigenvalues --  -10.59754 -10.59395 -10.57406  -1.29989  -1.20545
  Beta  occ. eigenvalues --   -1.07919  -0.92520  -0.88834  -0.79535  -0.72290
  Beta  occ. eigenvalues --   -0.66583  -0.62512  -0.60568  -0.59574  -0.55184
  Beta  occ. eigenvalues --   -0.52638  -0.50250  -0.49017  -0.45693  -0.43373
  Beta  occ. eigenvalues --   -0.41134  -0.39900  -0.38622  -0.37820  -0.36572
  Beta virt. eigenvalues --   -0.09988  -0.03277   0.01358   0.01941   0.03269
  Beta virt. eigenvalues --    0.03438   0.04133   0.04676   0.06127   0.07148
  Beta virt. eigenvalues --    0.07696   0.08343   0.08875   0.09543   0.11204

 Mulliken charges and spin densities:
               1          2
     1  O   -0.562720   0.623427
     2  H    0.468076  -0.015770
     3  C    0.292160   0.009669
     4  H    0.350644   0.000016
     5  C    0.461377   0.022026
     6  C   -0.767847  -0.017727
     7  O   -0.443964  -0.005875
     8  O   -0.215126  -0.000367
     9  C   -0.287456  -0.045946
    10  C   -0.516054   0.526158
    11  H    0.236897   0.023196
    12  H    0.248153   0.009006
    13  H    0.237300  -0.018586
    14  H    0.243050  -0.013433
    15  H    0.255510  -0.095793
 Sum of Mulliken charges =  -0.00000   1.00000

 Dipole moment (field-independent basis, Debye):
    X=             -2.2923    Y=             -3.4306    Z=              0.1261  Tot=              4.1279
 Quadrupole moment (field-independent basis, Debye-Ang):
   XX=            -41.6339   YY=            -52.5146   ZZ=            -48.3252
   XY=            -10.2287   XZ=              4.3860   YZ=             -0.7035

  Exact polarizability:  88.910  -0.264  75.725   8.039   2.932  48.535
 Approx polarizability:  94.295   2.233  84.051  13.365   7.545  54.577

 ******    3 imaginary frequencies (negative Signs) ******

                      1                      2                      3
                      A                      A                      A
 Frequencies --  -1450.4384              -320.1018               -85.3921
 Red. masses --      1.0956                 1.1026                 5.5382
 Frc consts  --      1.3580                 0.0666                 0.0238
 IR Inten    --    907.8236               115.5386                 0.0964

                      4                      5                      6
                      A                      A                      A
 Frequencies --     41.9684                84.1599               122.0622
 Red. masses --      4.6215                 4.3376                 3.2487
 Frc consts  --      0.0048                 0.0181                 0.0285
 IR Inten    --      7.0730                 9.3906                 0.9207

                      7                      8                      9
                      A                      A                      A
 Frequencies --    165.9134               255.9764               312.8743
 Red. masses --      6.0145                 3.6723                 3.1765
 Frc consts  --      0.0975                 0.1418                 0.1832
 IR Inten    --     13.8902                 2.1231                18.0957

                     10                     11                     12
                      A                      A                      A
 Frequencies --    373.2946               424.6961               575.0002
 Red. masses --      1.2278                 2.7701                 3.9239
 Frc consts  --      0.1008                 0.2944                 0.7644
 IR Inten    --     19.1598                13.9282                 1.1841

                     13                     14                     15
                      A                      A                      A
 Frequencies --    588.6465               628.4312               741.7191
 Red. masses --      3.2807                 5.6803                 1.2643
 Frc consts  --      0.6698                 1.3217                 0.4098
 IR Inten    --      4.8109                13.1311               218.5843

                     16                     17                     18
                      A                      A                      A
 Frequencies --    782.4092               818.0045               874.3933
 Red. masses --      3.2724                 1.4239                 2.1305
 Frc consts  --      1.1803                 0.5614                 0.9597
 IR Inten    --     76.1596                54.3374                13.9865

                     19                     20                     21
                      A                      A                      A
 Frequencies --    876.0217               931.2004               970.2963
 Red. masses --      2.6191                 1.8254                 1.8837
 Frc consts  --      1.1842                 0.9326                 1.0449
 IR Inten    --     15.2702                23.9136                21.0151

                     22                     23                     24
                      A                      A                      A
 Frequencies --   1130.9525              1151.8716              1188.9996
 Red. masses --      3.8398                 2.1530                 1.5523
 Frc consts  --      2.8937                 1.6831                 1.2930
 IR Inten    --     11.2509                32.7215                18.6782

                     25                     26                     27
                      A                      A                      A
 Frequencies --   1273.3182              1314.4420              1377.5156
 Red. masses --      1.0651                 1.5255                 2.3090
 Frc consts  --      1.0174                 1.5529                 2.5814
 IR Inten    --     36.7868               206.4205               378.1090

                     28                     29                     30
                      A                      A                      A
 Frequencies --   1443.6139              1476.6054              1514.3412
 Red. masses --      1.4524                 1.1319                 1.0639
 Frc consts  --      1.7834                 1.4541                 1.4375
 IR Inten    --     71.5513                12.3503               195.6045

                     31                     32                     33
                      A                      A                      A
 Frequencies --   1526.0597              1894.5401              2335.4757
 Red. masses --      1.0942                12.1816                 5.5414
 Frc consts  --      1.5014                25.7610                17.8081
 IR Inten    --     28.9495               289.5105                90.8518

                     34                     35                     36
                      A                      A                      A
 Frequencies --   3121.4766              3148.3457              3176.1473
 Red. masses --      1.0576                 1.0564                 1.1048
 Frc consts  --      6.0714                 6.1692                 6.5665
 IR Inten    --     13.4215                 4.2754                 2.8300

                     37                     38                     39
                      A                      A                      A
 Frequencies --   3233.0105              3532.7492              3796.3516
 Red. masses --      1.1074                 1.1798                 1.0652
 Frc consts  --      6.8197                 8.6756                 9.0447
 IR Inten    --      4.2840                55.1563                77.0784

 - Thermochemistry -
 -------------------
 Temperature   298.150 Kelvin.  Pressure   1.00000 Atm.
 Atom     1 has atomic number  8 and mass  15.99491

 Molecular mass:   115.03952 amu.
 Principal axes and moments of inertia in atomic units:
                           1         2         3
     Eigenvalues --   539.683551519.771501851.86633
           X            0.99970  -0.02447   0.00309
           Y            0.02448   0.99968  -0.00567
           Z           -0.00295   0.00574   0.99998
 This molecule is an asymmetric top.
 Rotational symmetry number  1.
 Warning -- assumption of classical behavior for rotation
           may cause significant error
 Rotational temperatures (Kelvin)      0.16049     0.05699     0.04677
 Rotational constants (GHZ):           3.34407     1.18751     0.97455
    3 imaginary frequencies ignored.
 Zero-point vibrational energy     282335.9 (Joules/Mol)
                                   67.47991 (Kcal/Mol)
 Warning -- explicit consideration of  10 degrees of freedom as
           vibrations may cause significant error
 Vibrational temperatures:     60.38   121.09   175.62   238.71   368.29
          (Kelvin)            450.16   537.09   611.04   827.30   846.93
                              904.17  1067.17  1125.71  1176.93  1258.06
                             1260.40  1339.79  1396.04  1627.19  1657.29
                             1710.71  1832.02  1891.19  1981.94  2077.04
                             2124.51  2178.80  2195.66  2725.82  3360.23
                             4491.11  4529.77  4569.77  4651.58  5082.84
                             5462.10

 Zero-point correction=                           0.107536 (Hartree/Particle)
 Thermal correction to Energy=                    0.115860
 Thermal correction to Enthalpy=                  0.116804
 Thermal correction to Gibbs Free Energy=         0.072778
 Sum of electronic and zero-point Energies=           -419.845150
 Sum of electronic and thermal Energies=              -419.836826
 Sum of electronic and thermal Enthalpies=            -419.835882
 Sum of electronic and thermal Free Energies=         -419.879908

                     E (Thermal)             CV                S
                      KCal/Mol        Cal/Mol-Kelvin    Cal/Mol-Kelvin
 Total                   72.703             28.624             92.661
 Electronic               0.000              0.000              1.377
 Translational            0.889              2.981             40.136
 Rotational               0.889              2.981             28.809
 Vibrational             70.926             22.662             22.339
 Vibration     1          0.595              1.980              5.164
 Vibration     2          0.601              1.960              3.791
 Vibration     3          0.610              1.931              3.067
 Vibration     4          0.624              1.884              2.481
 Vibration     5          0.666              1.753              1.689
 Vibration     6          0.701              1.649              1.347
 Vibration     7          0.745              1.527              1.066
 Vibration     8          0.787              1.417              0.876
 Vibration     9          0.931              1.085              0.495
 Vibration    10          0.946              1.056              0.470

 Normal termination of Gaussian 16 at Fri Jun 20 12:52:16 2025.
