 Gaussian 16, Revision A.03,
 Gaussian 16:  ES64L-G16RevA.03 25-Dec-2016

 -------------------
 # freq 6-31+g m062x
 -------------------

 -------------------
 Title Card Required
 -------------------
 Symbolic Z-matrix:
 Charge =  0 Multiplicity = 2

                         Standard orientation:
 ---------------------------------------------------------------------
 Center     Atomic      Atomic             Coordinates (Angstroms)
 Number     Number       Type             X           Y           Z
 ---------------------------------------------------------------------
      1          8           0        2.288136    1.710887   -0.321856
      2          1           0        1.471280    1.800393    0.204079
      3          6           0       -3.372771    0.211978   -0.507003
      4          1           0       -4.388730    0.283036   -0.818630
      5          6           0       -2.230576    0.131536   -0.155620
      6          6           0       -0.845706    0.086131    0.282745
      7          8           0       -0.284732    1.014336    0.806181
      8          8           0       -0.300243   -1.099438    0.039497
      9          6           0        1.067872   -1.293413    0.456093
     10          6           0        2.045250   -0.801586   -0.582291
     11          1           0        1.146923   -2.372666    0.582608
     12          1           0        1.218493   -0.806218    1.420628
     13          1           0        3.051552   -1.165341   -0.371939
     14          1           0        1.744603   -1.077472   -1.593474
     15          1           0        2.146174    0.324113   -0.577392
 ---------------------------------------------------------------------

 SCF Done:  E(UM062X) =  -419.955778983     A.U. after   22 cycles

 The electronic state is 2-A.
 Alpha  occ. eigenvalues --  -19.72355 -19.68148 -19.67998 -10.74828 -10.63014
 Alpha  occ. eigenvalues --  -10.59645 -10.59293 -10.56003  -1.29760  -1.20292
 Alpha  occ. eigenvalues --   -1.13251  -0.92463  -0.88930  -0.80147  -0.72604
 Alpha  occ. eigenvalues --   -0.66300  -0.62442  -0.60588  -0.59747  -0.57233
 Alpha  occ. eigenvalues --   -0.53968  -0.51381  -0.49600  -0.48639  -0.44991
 Alpha  occ. eigenvalues --   -0.41291  -0.40875  -0.40277  -0.38539  -0.37803
 Alpha  occ. eigenvalues --   -0.36768
 Alpha virt. eigenvalues --   -0.03187   0.01596   0.02019   0.03461   0.03663
 Alpha virt. eigenvalues --    0.04139   0.04690   0.06191   0.07314   0.07773
 Alpha virt. eigenvalues --    0.08451   0.08644   0.09450   0.11097   0.12087

  Beta  occ. eigenvalues --  -19.72355 -19.68153 -19.66510 -10.74829 -10.63027
  Beta  occ. eigenvalues --  -10.59646 -10.59293 -10.55711  -1.29759  -1.20289
  Beta  occ. eigenvalues --   -1.07226  -0.92290  -0.88652  -0.79564  -0.72248
  Beta  occ. eigenvalues --   -0.66216  -0.62413  -0.60384  -0.59328  -0.55143
  Beta  occ. eigenvalues --   -0.52076  -0.49924  -0.48349  -0.45829  -0.43221
  Beta  occ. eigenvalues --   -0.40984  -0.39756  -0.38540  -0.37756  -0.37489
  Beta virt. eigenvalues --   -0.09406  -0.03163   0.01603   0.02015   0.03476
  Beta virt. eigenvalues --    0.03655   0.04252   0.04778   0.06241   0.07318
  Beta virt. eigenvalues --    0.07851   0.08539   0.08827   0.09659   0.11288

 Mulliken charges and spin densities:
               1          2
     1  O   -0.473689   0.829377
     2  H    0.465260  -0.025974
     3  C    0.284243   0.009423
     4  H    0.350106   0.000007
     5  C    0.451481   0.017488
     6  C   -0.754518  -0.019138
     7  O   -0.444998  -0.002239
     8  O   -0.215292  -0.000527
     9  C   -0.283234  -0.025284
    10  C   -0.530175   0.288357
    11  H    0.230081   0.010691
    12  H    0.241457   0.004211
    13  H    0.228703  -0.008990
    14  H    0.234794  -0.004813
    15  H    0.215780  -0.072590
 Sum of Mulliken charges =  -0.00000   1.00000

 Dipole moment (field-independent basis, Debye):
    X=             -2.1450    Y=             -2.7083    Z=              0.1550  Tot=              3.4583
 Quadrupole moment (field-independent basis, Debye-Ang):
   XX=            -41.3709   YY=            -51.4159   ZZ=            -48.5059
   XY=             -8.3990   XZ=              4.5182   YZ=             -0.9250

  Exact polarizability:  88.607  -1.464  71.937   8.145   2.942  48.405
 Approx polarizability:  93.973   0.941  77.024  13.375   7.219  54.246

 ******    4 imaginary frequencies (negative Signs) ******

                      1                      2                      3
                      A                      A                      A
 Frequencies --   -385.7577              -295.4937              -160.1478
 Red. masses --      1.7234                 1.3035                 3.1196
 Frc consts  --      0.1511                 0.0671                 0.0471
 IR Inten    --     52.7162               100.9074                 8.6537

                      4                      5                      6
                      A                      A                      A
 Frequencies --    -72.1184                19.0992                77.6760
 Red. masses --      3.5637                 2.8866                 3.9386
 Frc consts  --      0.0109                 0.0006                 0.0140
 IR Inten    --     10.7108                 4.2684                26.6677

                      7                      8                      9
                      A                      A                      A
 Frequencies --     95.4560               179.8710               255.8671
 Red. masses --      2.4615                 2.5679                 3.7150
 Frc consts  --      0.0132                 0.0489                 0.1433
 IR Inten    --      9.3670                14.6329                 2.2408

                     10                     11                     12
                      A                      A                      A
 Frequencies --    310.8220               407.5885               570.1925
 Red. masses --      3.5981                 3.3729                 3.9045
 Frc consts  --      0.2048                 0.3301                 0.7479
 IR Inten    --     14.7651                10.1801                 6.9896

                     13                     14                     15
                      A                      A                      A
 Frequencies --    615.6676               629.5027               782.5850
 Red. masses --      1.5235                 3.2992                 3.2419
 Frc consts  --      0.3402                 0.7703                 1.1698
 IR Inten    --    104.6458                71.2759                75.5407

                     16                     17                     18
                      A                      A                      A
 Frequencies --    816.4170               842.5906               874.7068
 Red. masses --      1.4149                 1.3616                 1.8808
 Frc consts  --      0.5557                 0.5695                 0.8479
 IR Inten    --     44.2924                52.1236                19.0965

                     19                     20                     21
                      A                      A                      A
 Frequencies --    898.3545               951.9200              1121.2551
 Red. masses --      2.7160                 2.6504                 3.6223
 Frc consts  --      1.2914                 1.4150                 2.6831
 IR Inten    --     35.3562                14.1233                 2.8329

                     22                     23                     24
                      A                      A                      A
 Frequencies --   1139.3107              1188.1842              1324.5276
 Red. masses --      2.2088                 1.8458                 1.5657
 Frc consts  --      1.6892                 1.5354                 1.6184
 IR Inten    --     28.3863                16.4089               192.7509

                     25                     26                     27
                      A                      A                      A
 Frequencies --   1371.8060              1382.4564              1440.7414
 Red. masses --      1.7742                 1.1212                 1.4232
 Frc consts  --      1.9671                 1.2625                 1.7406
 IR Inten    --    329.7213                13.5211                99.8126

                     28                     29                     30
                      A                      A                      A
 Frequencies --   1456.4706              1479.5729              1535.5665
 Red. masses --      1.3580                 1.0904                 1.0997
 Frc consts  --      1.6973                 1.4063                 1.5278
 IR Inten    --     31.2766                 9.7404                25.3525

                     31                     32                     33
                      A                      A                      A
 Frequencies --   1886.0510              2048.9366              2335.1238
 Red. masses --     10.5683                 1.1131                 5.5423
 Frc consts  --     22.1493                 2.7532                17.8057
 IR Inten    --    197.1157              1168.3492                89.4813

                     34                     35                     36
                      A                      A                      A
 Frequencies --   3132.1523              3138.4341              3189.3345
 Red. masses --      1.0582                 1.0578                 1.1059
 Frc consts  --      6.1164                 6.1387                 6.6280
 IR Inten    --     16.4755                10.6574                 6.3991

                     37                     38                     39
                      A                      A                      A
 Frequencies --   3212.4422              3532.9412              3746.9721
 Red. masses --      1.1035                 1.1797                 1.0659
 Frc consts  --      6.7097                 8.6759                 8.8172
 IR Inten    --      8.4541                55.0414                80.9149

 - Thermochemistry -
 -------------------
 Temperature   298.150 Kelvin.  Pressure   1.00000 Atm.
 Atom     1 has atomic number  8 and mass  15.99491

 Molecular mass:   115.03952 amu.
 Principal axes and moments of inertia in atomic units:
                           1         2         3
     Eigenvalues --   544.157021519.824311856.22631
           X            0.99966  -0.02608   0.00298
           Y            0.02609   0.99965  -0.00441
           Z           -0.00286   0.00448   0.99999
 This molecule is an asymmetric top.
 Rotational symmetry number  1.
 Warning -- assumption of classical behavior for rotation
           may cause significant error
 Rotational temperatures (Kelvin)      0.15917     0.05699     0.04666
 Rotational constants (GHZ):           3.31658     1.18747     0.97226
    4 imaginary frequencies ignored.
 Zero-point vibrational energy     287047.5 (Joules/Mol)
                                   68.60600 (Kcal/Mol)
 Warning -- explicit consideration of   9 degrees of freedom as
           vibrations may cause significant error
 Vibrational temperatures:     27.48   111.76   137.34   258.79   368.14
          (Kelvin)            447.20   586.43   820.38   885.81   905.71
                             1125.97  1174.64  1212.30  1258.51  1292.53
                             1369.60  1613.24  1639.21  1709.53  1905.70
                             1973.72  1989.05  2072.91  2095.54  2128.78
                             2209.34  2713.61  2947.96  3359.72  4506.47
                             4515.51  4588.74  4621.99  5083.11  5391.06

 Zero-point correction=                           0.109331 (Hartree/Particle)
 Thermal correction to Energy=                    0.117333
 Thermal correction to Enthalpy=                  0.118278
 Thermal correction to Gibbs Free Energy=         0.073868
 Sum of electronic and zero-point Energies=           -419.846448
 Sum of electronic and thermal Energies=              -419.838446
 Sum of electronic and thermal Enthalpies=            -419.837501
 Sum of electronic and thermal Free Energies=         -419.881911

                     E (Thermal)             CV                S
                      KCal/Mol        Cal/Mol-Kelvin    Cal/Mol-Kelvin
 Total                   73.628             26.459             93.467
 Electronic               0.000              0.000              1.377
 Translational            0.889              2.981             40.136
 Rotational               0.889              2.981             28.819
 Vibrational             71.850             20.497             23.135
 Vibration     1          0.593              1.986              6.726
 Vibration     2          0.599              1.964              3.949
 Vibration     3          0.603              1.952              3.545
 Vibration     4          0.629              1.867              2.330
 Vibration     5          0.666              1.753              1.690
 Vibration     6          0.700              1.653              1.358
 Vibration     7          0.772              1.454              0.935
 Vibration     8          0.926              1.096              0.504
 Vibration     9          0.975              0.999              0.423

 Normal termination of Gaussian 16 at Fri Jun 20 12:55:31 2025.
