 Gaussian 16, Revision A.03,
 Gaussian 16:  ES64L-G16RevA.03 25-Dec-2016

 --------------------------
 # ccsd(t)/6-311++g(d,p) sp
 --------------------------

 -------------------
 Title Card Required
 -------------------
 Symbolic Z-matrix:
 Charge =  0 Multiplicity = 2

                         Standard orientation:
 ---------------------------------------------------------------------
 Center     Atomic      Atomic             Coordinates (Angstroms)
 Number     Number       Type             X           Y           Z
 ---------------------------------------------------------------------
      1          8           0        2.289611    1.738568   -0.321868
      2          1           0        1.467652    1.802624    0.201995
      3          6           0       -3.372417    0.210500   -0.507897
      4          1           0       -4.388335    0.279831   -0.820039
      5          6           0       -2.230248    0.131922   -0.155864
      6          6           0       -0.844880    0.087551    0.282283
      7          8           0       -0.283829    1.019054    0.801614
      8          8           0       -0.300725   -1.097745    0.044008
      9          6           0        1.067839   -1.294900    0.462916
     10          6           0        2.045479   -0.822843   -0.585169
     11          1           0        1.139136   -2.372705    0.601244
     12          1           0        1.219451   -0.797157    1.421691
     13          1           0        3.047376   -1.192505   -0.363557
     14          1           0        1.746407   -1.147606   -1.582627
     15          1           0        2.133213    0.275124   -0.626352
 ---------------------------------------------------------------------

 SCF Done:  E(UHF) =  -417.984527068     A.U. after   27 cycles
 E2 =    -0.1267953169D+01 EUMP2 =    -0.41925248023703D+03
 CCSD(T)= -0.41935379248D+03

 The electronic state is 2-A.
 Alpha  occ. eigenvalues --  -20.62795 -20.61549 -20.57781 -11.43488 -11.30487
 Alpha  occ. eigenvalues --  -11.27681 -11.26851 -11.22475  -1.49868  -1.39756
 Alpha  occ. eigenvalues --   -1.37834  -1.08927  -1.04986  -0.93827  -0.85126
 Alpha  occ. eigenvalues --   -0.77839  -0.73967  -0.72133  -0.70162  -0.68302
 Alpha  occ. eigenvalues --   -0.65498  -0.62729  -0.58312  -0.56430  -0.54716
 Alpha  occ. eigenvalues --   -0.53436  -0.50372  -0.48704  -0.47024  -0.43679
 Alpha  occ. eigenvalues --   -0.43511
 Alpha virt. eigenvalues --    0.03551   0.04501   0.06045   0.06842   0.07428
 Alpha virt. eigenvalues --    0.07718   0.09332   0.10260   0.11056   0.11361
 Alpha virt. eigenvalues --    0.12239   0.13868   0.14261   0.15171   0.16321

  Beta  occ. eigenvalues --  -20.62794 -20.57791 -20.57545 -11.43489 -11.30524
  Beta  occ. eigenvalues --  -11.27683 -11.26850 -11.21952  -1.49869  -1.39730
  Beta  occ. eigenvalues --   -1.22846  -1.08815  -1.04460  -0.93137  -0.84575
  Beta  occ. eigenvalues --   -0.77804  -0.73921  -0.71784  -0.68397  -0.63979
  Beta  occ. eigenvalues --   -0.62402  -0.58652  -0.56260  -0.54311  -0.50952
  Beta  occ. eigenvalues --   -0.50001  -0.49104  -0.47770  -0.43668  -0.43507
  Beta virt. eigenvalues --    0.03552   0.04506   0.06007   0.06498   0.07311
  Beta virt. eigenvalues --    0.07448   0.08146   0.10107   0.11031   0.11141
  Beta virt. eigenvalues --    0.12000   0.12557   0.13955   0.14264   0.15405

 Mulliken charges and spin densities:
               1          2
     1  O   -0.273540   0.936726
     2  H    0.291142  -0.025323
     3  C   -0.703179  -0.001494
     4  H    0.205364   0.000032
     5  C    1.378756   0.004666
     6  C   -0.692317   0.002541
     7  O   -0.353255  -0.002373
     8  O   -0.056820   0.000092
     9  C   -0.287153  -0.032209
    10  C   -0.411334   0.194243
    11  H    0.162888   0.005415
    12  H    0.203752   0.003068
    13  H    0.135671  -0.011653
    14  H    0.161617  -0.006495
    15  H    0.238407  -0.067237
 Sum of Mulliken charges =  -0.00000   1.00000

 Dipole moment (field-independent basis, Debye):
    X=             -2.0312    Y=             -2.1050    Z=              0.0082  Tot=              2.9252
 Quadrupole moment (field-independent basis, Debye-Ang):
   XX=            -39.7311   YY=            -50.1730   ZZ=            -48.3285
   XY=             -6.0524   XZ=              4.7301   YZ=             -1.2342

 MP3-0=-419.2796978\MP4SDQ=-419.302086\CCSD=-419.3008378\CCSD(T)=-419.3
 Normal termination of Gaussian 16 at Thu Aug 21 19:56:33 2025.
