 Gaussian 16, Revision A.03,
 Gaussian 16:  ES64L-G16RevA.03 25-Dec-2016

 --------------------------
 # ccsd(t)/6-311++g(d,p) sp
 --------------------------

 -------------------
 Title Card Required
 -------------------
 Symbolic Z-matrix:
 Charge =  0 Multiplicity = 2

                         Standard orientation:
 ---------------------------------------------------------------------
 Center     Atomic      Atomic             Coordinates (Angstroms)
 Number     Number       Type             X           Y           Z
 ---------------------------------------------------------------------
      1          8           0        2.288586    1.720198   -0.321911
      2          1           0        1.469785    1.801070    0.203318
      3          6           0       -3.372663    0.211376   -0.507315
      4          1           0       -4.388610    0.281810   -0.819117
      5          6           0       -2.230473    0.131595   -0.155711
      6          6           0       -0.845408    0.086508    0.282585
      7          8           0       -0.284501    1.015948    0.804722
      8          8           0       -0.300372   -1.098766    0.040982
      9          6           0        1.068042   -1.293853    0.458323
     10          6           0        2.045444   -0.807951   -0.583038
     11          1           0        1.144399   -2.372625    0.588353
     12          1           0        1.218606   -0.803427    1.421151
     13          1           0        3.049633   -1.175948   -0.369664
     14          1           0        1.745022   -1.100538   -1.589742
     15          1           0        2.141803    0.304567   -0.593697
 ---------------------------------------------------------------------

 SCF Done:  E(UHF) =  -417.980396527     A.U. after   28 cycles
 E2 =    -0.1270306477D+01 EUMP2 =    -0.41925070300437D+03
 CCSD(T)= -0.41935240521D+03

 The electronic state is 2-A.
 Alpha  occ. eigenvalues --  -20.62791 -20.61453 -20.57787 -11.43480 -11.30486
 Alpha  occ. eigenvalues --  -11.27686 -11.26853 -11.22632  -1.49863  -1.39770
 Alpha  occ. eigenvalues --   -1.37924  -1.08932  -1.04996  -0.93858  -0.85148
 Alpha  occ. eigenvalues --   -0.77830  -0.73971  -0.72224  -0.70514  -0.68303
 Alpha  occ. eigenvalues --   -0.65445  -0.62709  -0.58323  -0.56478  -0.54672
 Alpha  occ. eigenvalues --   -0.53419  -0.50362  -0.48595  -0.46357  -0.43682
 Alpha  occ. eigenvalues --   -0.43517
 Alpha virt. eigenvalues --    0.03551   0.04500   0.06056   0.06838   0.07424
 Alpha virt. eigenvalues --    0.07695   0.09329   0.10257   0.11085   0.11386
 Alpha virt. eigenvalues --    0.12247   0.13872   0.14266   0.15155   0.16323

  Beta  occ. eigenvalues --  -20.62790 -20.57797 -20.57494 -11.43482 -11.30532
  Beta  occ. eigenvalues --  -11.27687 -11.26852 -11.21996  -1.49865  -1.39745
  Beta  occ. eigenvalues --   -1.23233  -1.08803  -1.04363  -0.93031  -0.84493
  Beta  occ. eigenvalues --   -0.77786  -0.73922  -0.71789  -0.68441  -0.63915
  Beta  occ. eigenvalues --   -0.62512  -0.58592  -0.56287  -0.54220  -0.50927
  Beta  occ. eigenvalues --   -0.49898  -0.49073  -0.47669  -0.43670  -0.43513
  Beta virt. eigenvalues --    0.03552   0.04507   0.06011   0.06437   0.07280
  Beta virt. eigenvalues --    0.07441   0.08096   0.10092   0.10989   0.11128
  Beta virt. eigenvalues --    0.12078   0.12532   0.13949   0.14269   0.15391

 Mulliken charges and spin densities:
               1          2
     1  O   -0.278614   0.916282
     2  H    0.290985  -0.023642
     3  C   -0.702326  -0.001469
     4  H    0.205382   0.000034
     5  C    1.378728   0.004706
     6  C   -0.690579   0.003940
     7  O   -0.353094  -0.002926
     8  O   -0.056966   0.000146
     9  C   -0.288348  -0.038355
    10  C   -0.416879   0.237638
    11  H    0.162593   0.007003
    12  H    0.204315   0.004109
    13  H    0.136403  -0.013738
    14  H    0.162661  -0.008820
    15  H    0.245741  -0.084908
 Sum of Mulliken charges =  -0.00000   1.00000

 Dipole moment (field-independent basis, Debye):
    X=             -2.0281    Y=             -2.0974    Z=              0.0017  Tot=              2.9176
 Quadrupole moment (field-independent basis, Debye-Ang):
   XX=            -39.6750   YY=            -50.1962   ZZ=            -48.3266
   XY=             -6.0664   XZ=              4.7196   YZ=             -1.2295

 3-0=-419.2776799\MP4SDQ=-419.3001317\CCSD=-419.299115\CCSD(T)=-419.352
 Normal termination of Gaussian 16 at Wed Jul  9 16:33:16 2025.
