 Gaussian 16, Revision A.03,
 Gaussian 16:  ES64L-G16RevA.03 25-Dec-2016

 --------------------------
 # ccsd(t)/6-311++g(d,p) sp
 --------------------------

 -------------------
 Title Card Required
 -------------------
 Symbolic Z-matrix:
 Charge =  0 Multiplicity = 2

                         Standard orientation:
 ---------------------------------------------------------------------
 Center     Atomic      Atomic             Coordinates (Angstroms)
 Number     Number       Type             X           Y           Z
 ---------------------------------------------------------------------
      1          8           0        2.288834    1.724831   -0.321912
      2          1           0        1.469169    1.801450    0.202965
      3          6           0       -3.372605    0.211130   -0.507466
      4          1           0       -4.388545    0.281277   -0.819355
      5          6           0       -2.230419    0.131658   -0.155753
      6          6           0       -0.845271    0.086742    0.282509
      7          8           0       -0.284355    1.016734    0.803965
      8          8           0       -0.300453   -1.098478    0.041730
      9          6           0        1.068039   -1.294108    0.459459
     10          6           0        2.045489   -0.811494   -0.583506
     11          1           0        1.143093   -2.372648    0.591412
     12          1           0        1.218751   -0.801962    1.421353
     13          1           0        3.048903   -1.180622   -0.368305
     14          1           0        1.745267   -1.112215   -1.587945
     15          1           0        2.139743    0.296452   -0.601851
 ---------------------------------------------------------------------

 SCF Done:  E(UHF) =  -417.981541848     A.U. after   28 cycles
 E2 =    -0.1269625166D+01 EUMP2 =    -0.41925116701463D+03
 CCSD(T)= -0.41935275986D+03

 The electronic state is 2-A.
 Alpha  occ. eigenvalues --  -20.62791 -20.61486 -20.57784 -11.43482 -11.30483
 Alpha  occ. eigenvalues --  -11.27684 -11.26852 -11.22576  -1.49864  -1.39765
 Alpha  occ. eigenvalues --   -1.37907  -1.08930  -1.04993  -0.93850  -0.85142
 Alpha  occ. eigenvalues --   -0.77831  -0.73970  -0.72197  -0.70429  -0.68305
 Alpha  occ. eigenvalues --   -0.65464  -0.62713  -0.58315  -0.56462  -0.54688
 Alpha  occ. eigenvalues --   -0.53421  -0.50363  -0.48616  -0.46556  -0.43681
 Alpha  occ. eigenvalues --   -0.43515
 Alpha virt. eigenvalues --    0.03551   0.04501   0.06054   0.06839   0.07426
 Alpha virt. eigenvalues --    0.07701   0.09329   0.10258   0.11078   0.11378
 Alpha virt. eigenvalues --    0.12245   0.13872   0.14266   0.15159   0.16323

  Beta  occ. eigenvalues --  -20.62790 -20.57794 -20.57513 -11.43483 -11.30526
  Beta  occ. eigenvalues --  -11.27685 -11.26851 -11.21973  -1.49865  -1.39739
  Beta  occ. eigenvalues --   -1.23127  -1.08805  -1.04390  -0.93062  -0.84516
  Beta  occ. eigenvalues --   -0.77789  -0.73921  -0.71786  -0.68429  -0.63932
  Beta  occ. eigenvalues --   -0.62485  -0.58607  -0.56277  -0.54243  -0.50933
  Beta  occ. eigenvalues --   -0.49928  -0.49087  -0.47700  -0.43669  -0.43511
  Beta virt. eigenvalues --    0.03553   0.04508   0.06012   0.06454   0.07290
  Beta virt. eigenvalues --    0.07444   0.08111   0.10096   0.11004   0.11130
  Beta virt. eigenvalues --    0.12058   0.12541   0.13952   0.14268   0.15396

 Mulliken charges and spin densities:
               1          2
     1  O   -0.277075   0.922277
     2  H    0.291020  -0.024126
     3  C   -0.702542  -0.001468
     4  H    0.205375   0.000033
     5  C    1.378699   0.004689
     6  C   -0.691083   0.003547
     7  O   -0.353181  -0.002768
     8  O   -0.056954   0.000133
     9  C   -0.287964  -0.036549
    10  C   -0.415537   0.224816
    11  H    0.162656   0.006524
    12  H    0.204140   0.003800
    13  H    0.136098  -0.013098
    14  H    0.162278  -0.008149
    15  H    0.244071  -0.079659
 Sum of Mulliken charges =  -0.00000   1.00000

 Dipole moment (field-independent basis, Debye):
    X=             -2.0280    Y=             -2.0961    Z=              0.0033  Tot=              2.9166
 Quadrupole moment (field-independent basis, Debye-Ang):
   XX=            -39.6887   YY=            -50.1841   ZZ=            -48.3284
   XY=             -6.0542   XZ=              4.7224   YZ=             -1.2323

 P3-0=-419.2782132\MP4SDQ=-419.3006481\CCSD=-419.2995656\CCSD(T)=-419.3
 Normal termination of Gaussian 16 at Wed Jul  9 20:26:11 2025.
