 Gaussian 16, Revision A.03,
 Gaussian 16:  ES64L-G16RevA.03 25-Dec-2016

 -------------------
 # freq 6-31+g m062x
 -------------------

 -------------------
 Title Card Required
 -------------------
 Symbolic Z-matrix:
 Charge =  0 Multiplicity = 2

                         Standard orientation:
 ---------------------------------------------------------------------
 Center     Atomic      Atomic             Coordinates (Angstroms)
 Number     Number       Type             X           Y           Z
 ---------------------------------------------------------------------
      1          8           0        2.287870    1.701908   -0.321658
      2          1           0        1.473352    1.799885    0.204861
      3          6           0       -3.372858    0.212887   -0.506683
      4          1           0       -4.388824    0.284689   -0.818134
      5          6           0       -2.230670    0.131666   -0.155516
      6          6           0       -0.846020    0.085921    0.282932
      7          8           0       -0.284815    1.012663    0.807521
      8          8           0       -0.300248   -1.100263    0.038056
      9          6           0        1.067339   -1.293263    0.454012
     10          6           0        2.044807   -0.797458   -0.581938
     11          1           0        1.149043   -2.373122    0.577578
     12          1           0        1.218629   -0.808973    1.419992
     13          1           0        3.054046   -1.153516   -0.373383
     14          1           0        1.743941   -1.056178   -1.597323
     15          1           0        2.151761    0.354232   -0.561777
 ---------------------------------------------------------------------

 SCF Done:  E(UM062X) =  -419.954641298     A.U. after   22 cycles

 The electronic state is 2-A.
 Alpha  occ. eigenvalues --  -19.72416 -19.68186 -19.67509 -10.74858 -10.63180
 Alpha  occ. eigenvalues --  -10.59672 -10.59317 -10.56485  -1.29813  -1.20358
 Alpha  occ. eigenvalues --   -1.12969  -0.92543  -0.89008  -0.80223  -0.72665
 Alpha  occ. eigenvalues --   -0.66403  -0.62468  -0.60646  -0.59856  -0.57349
 Alpha  occ. eigenvalues --   -0.54008  -0.51218  -0.49717  -0.48802  -0.45115
 Alpha  occ. eigenvalues --   -0.41262  -0.40624  -0.40242  -0.38562  -0.37825
 Alpha  occ. eigenvalues --   -0.35923
 Alpha virt. eigenvalues --   -0.03215   0.01555   0.02002   0.03425   0.03618
 Alpha virt. eigenvalues --    0.04124   0.04669   0.06166   0.07287   0.07740
 Alpha virt. eigenvalues --    0.08397   0.08654   0.09431   0.11089   0.12057

  Beta  occ. eigenvalues --  -19.72416 -19.68190 -19.66079 -10.74859 -10.63195
  Beta  occ. eigenvalues --  -10.59672 -10.59317 -10.56147  -1.29811  -1.20354
  Beta  occ. eigenvalues --   -1.07416  -0.92339  -0.88689  -0.79558  -0.72261
  Beta  occ. eigenvalues --   -0.66302  -0.62437  -0.60424  -0.59392  -0.55146
  Beta  occ. eigenvalues --   -0.52215  -0.49969  -0.48522  -0.45760  -0.43266
  Beta  occ. eigenvalues --   -0.41008  -0.39782  -0.38558  -0.37765  -0.37224
  Beta virt. eigenvalues --   -0.09642  -0.03190   0.01551   0.01996   0.03437
  Beta virt. eigenvalues --    0.03597   0.04229   0.04754   0.06216   0.07278
  Beta virt. eigenvalues --    0.07816   0.08490   0.08838   0.09631   0.11276

 Mulliken charges and spin densities:
               1          2
     1  O   -0.492494   0.784222
     2  H    0.465492  -0.023832
     3  C    0.284635   0.009692
     4  H    0.350250   0.000009
     5  C    0.451774   0.018685
     6  C   -0.754548  -0.018862
     7  O   -0.444479  -0.003329
     8  O   -0.215427  -0.000531
     9  C   -0.283679  -0.029688
    10  C   -0.526259   0.341955
    11  H    0.231652   0.013462
    12  H    0.243063   0.005285
    13  H    0.231166  -0.010870
    14  H    0.237210  -0.006568
    15  H    0.221643  -0.079631
 Sum of Mulliken charges =  -0.00000   1.00000

 Dipole moment (field-independent basis, Debye):
    X=             -2.1774    Y=             -2.8750    Z=              0.1480  Tot=              3.6095
 Quadrupole moment (field-independent basis, Debye-Ang):
   XX=            -41.4080   YY=            -51.6707   ZZ=            -48.4627
   XY=             -8.8251   XZ=              4.4867   YZ=             -0.8713

  Exact polarizability:  88.704  -0.943  74.099   8.136   2.995  48.426
 Approx polarizability:  94.059   1.333  79.362  13.386   7.344  54.328

 ******    4 imaginary frequencies (negative Signs) ******

                      1                      2                      3
                      A                      A                      A
 Frequencies --   -620.4193              -309.2788              -125.4444
 Red. masses --      1.8608                 1.1235                 4.9058
 Frc consts  --      0.4220                 0.0633                 0.0455
 IR Inten    --    250.2167               110.8802                 1.1418

                      4                      5                      6
                      A                      A                      A
 Frequencies --    -38.2500                54.3751                83.1117
 Red. masses --      3.8945                 3.6088                 4.7599
 Frc consts  --      0.0034                 0.0063                 0.0194
 IR Inten    --      6.3946                10.2510                 6.5738

                      7                      8                      9
                      A                      A                      A
 Frequencies --    136.0290               220.1895               256.0025
 Red. masses --      3.3294                 1.2943                 3.6174
 Frc consts  --      0.0363                 0.0370                 0.1397
 IR Inten    --     21.7776                21.5159                 1.7894

                     10                     11                     12
                      A                      A                      A
 Frequencies --    312.7938               409.9252               572.2254
 Red. masses --      3.3446                 3.4224                 4.1019
 Frc consts  --      0.1928                 0.3388                 0.7914
 IR Inten    --     13.9491                 9.3997                 2.3116

                     13                     14                     15
                      A                      A                      A
 Frequencies --    623.7833               642.7180               782.4944
 Red. masses --      3.5746                 1.4943                 3.2615
 Frc consts  --      0.8195                 0.3637                 1.1766
 IR Inten    --     17.6608               111.5028                73.8870

                     16                     17                     18
                      A                      A                      A
 Frequencies --    817.0379               861.1923               874.8332
 Red. masses --      1.4209                 1.7740                 1.8835
 Frc consts  --      0.5589                 0.7752                 0.8493
 IR Inten    --     50.0501                35.7556                19.9173

                     19                     20                     21
                      A                      A                      A
 Frequencies --    907.4758               953.8603              1117.7797
 Red. masses --      1.9868                 2.5470                 3.1703
 Frc consts  --      0.9640                 1.3654                 2.3338
 IR Inten    --     54.8958                24.4706                19.3042

                     22                     23                     24
                      A                      A                      A
 Frequencies --   1139.5274              1182.8095              1294.9986
 Red. masses --      2.2349                 1.9342                 1.4649
 Frc consts  --      1.7098                 1.5944                 1.4474
 IR Inten    --     32.5276                58.5809               185.7525

                     25                     26                     27
                      A                      A                      A
 Frequencies --   1325.7383              1363.5682              1407.9176
 Red. masses --      1.3135                 1.4573                 1.6224
 Frc consts  --      1.3602                 1.5965                 1.8948
 IR Inten    --    176.3936               238.8917               233.3092

                     28                     29                     30
                      A                      A                      A
 Frequencies --   1450.9728              1473.9794              1533.2968
 Red. masses --      1.4053                 1.1549                 1.0990
 Frc consts  --      1.7431                 1.4783                 1.5223
 IR Inten    --     53.3017                29.2157                27.5819

                     31                     32                     33
                      A                      A                      A
 Frequencies --   1643.6331              1891.4605              2335.3112
 Red. masses --      1.0574                11.8423                 5.5420
 Frc consts  --      1.6831                24.9621                17.8078
 IR Inten    --    838.9341               365.6153                89.8747

                     34                     35                     36
                      A                      A                      A
 Frequencies --   3129.7993              3140.1739              3185.7430
 Red. masses --      1.0580                 1.0569                 1.1061
 Frc consts  --      6.1059                 6.1403                 6.6139
 IR Inten    --     16.0032                 8.3745                 4.8836

                     37                     38                     39
                      A                      A                      A
 Frequencies --   3217.6123              3532.9005              3759.8131
 Red. masses --      1.1046                 1.1798                 1.0657
 Frc consts  --      6.7378                 8.6759                 8.8764
 IR Inten    --      7.1443                55.0569                78.4857

 - Thermochemistry -
 -------------------
 Temperature   298.150 Kelvin.  Pressure   1.00000 Atm.
 Atom     1 has atomic number  8 and mass  15.99491

 Molecular mass:   115.03952 amu.
 Principal axes and moments of inertia in atomic units:
                           1         2         3
     Eigenvalues --   541.856471519.798241853.99188
           X            0.99967  -0.02555   0.00302
           Y            0.02557   0.99966  -0.00482
           Z           -0.00289   0.00490   0.99998
 This molecule is an asymmetric top.
 Rotational symmetry number  1.
 Warning -- assumption of classical behavior for rotation
           may cause significant error
 Rotational temperatures (Kelvin)      0.15985     0.05699     0.04672
 Rotational constants (GHZ):           3.33066     1.18749     0.97344
    4 imaginary frequencies ignored.
 Zero-point vibrational energy     284921.1 (Joules/Mol)
                                   68.09777 (Kcal/Mol)
 Warning -- explicit consideration of   8 degrees of freedom as
           vibrations may cause significant error
 Vibrational temperatures:     78.23   119.58   195.72   316.80   368.33
          (Kelvin)            450.04   589.79   823.30   897.49   924.73
                             1125.83  1175.54  1239.06  1258.69  1305.66
                             1372.39  1608.24  1639.53  1701.80  1863.21
                             1907.44  1961.87  2025.68  2087.63  2120.73
                             2206.07  2364.82  2721.39  3359.99  4503.08
                             4518.01  4583.57  4629.43  5083.06  5409.53

 Zero-point correction=                           0.108521 (Hartree/Particle)
 Thermal correction to Energy=                    0.116283
 Thermal correction to Enthalpy=                  0.117227
 Thermal correction to Gibbs Free Energy=         0.074398
 Sum of electronic and zero-point Energies=           -419.846121
 Sum of electronic and thermal Energies=              -419.838359
 Sum of electronic and thermal Enthalpies=            -419.837415
 Sum of electronic and thermal Free Energies=         -419.880243

                     E (Thermal)             CV                S
                      KCal/Mol        Cal/Mol-Kelvin    Cal/Mol-Kelvin
 Total                   72.968             26.349             90.141
 Electronic               0.000              0.000              1.377
 Translational            0.889              2.981             40.136
 Rotational               0.889              2.981             28.814
 Vibrational             71.191             20.387             19.814
 Vibration     1          0.596              1.976              4.652
 Vibration     2          0.600              1.961              3.816
 Vibration     3          0.614              1.917              2.859
 Vibration     4          0.647              1.810              1.958
 Vibration     5          0.666              1.753              1.689
 Vibration     6          0.701              1.649              1.348
 Vibration     7          0.774              1.449              0.927
 Vibration     8          0.928              1.091              0.500

 Normal termination of Gaussian 16 at Fri Jun 20 13:04:27 2025.
