 Gaussian 16, Revision A.03,
 Gaussian 16:  ES64L-G16RevA.03 25-Dec-2016

 --------------------------
 # freq 6-311++g(d,p) m062x
 --------------------------

 -------------------
 Title Card Required
 -------------------
 Symbolic Z-matrix:
 Charge =  0 Multiplicity = 2

                         Standard orientation:
 ---------------------------------------------------------------------
 Center     Atomic      Atomic             Coordinates (Angstroms)
 Number     Number       Type             X           Y           Z
 ---------------------------------------------------------------------
      1          8           0        2.288586    1.720198   -0.321911
      2          1           0        1.469785    1.801070    0.203318
      3          6           0       -3.372663    0.211376   -0.507315
      4          1           0       -4.388610    0.281810   -0.819117
      5          6           0       -2.230473    0.131595   -0.155711
      6          6           0       -0.845408    0.086508    0.282585
      7          8           0       -0.284501    1.015948    0.804722
      8          8           0       -0.300372   -1.098766    0.040982
      9          6           0        1.068042   -1.293853    0.458323
     10          6           0        2.045444   -0.807951   -0.583038
     11          1           0        1.144399   -2.372625    0.588353
     12          1           0        1.218606   -0.803427    1.421151
     13          1           0        3.049633   -1.175948   -0.369664
     14          1           0        1.745022   -1.100538   -1.589742
     15          1           0        2.141803    0.304567   -0.593697
 ---------------------------------------------------------------------

 SCF Done:  E(UM062X) =  -420.202340609     A.U. after   20 cycles

 The electronic state is 2-A.
 Alpha  occ. eigenvalues --  -19.69799 -19.65732 -19.64788 -10.72323 -10.61826
 Alpha  occ. eigenvalues --  -10.57970 -10.57498 -10.54923  -1.27239  -1.17896
 Alpha  occ. eigenvalues --   -1.12275  -0.91627  -0.88073  -0.79471  -0.71862
 Alpha  occ. eigenvalues --   -0.65919  -0.62077  -0.60533  -0.59036  -0.56726
 Alpha  occ. eigenvalues --   -0.53900  -0.51578  -0.49194  -0.48271  -0.45004
 Alpha  occ. eigenvalues --   -0.41426  -0.40926  -0.40326  -0.38164  -0.37371
 Alpha  occ. eigenvalues --   -0.37258
 Alpha virt. eigenvalues --   -0.02845  -0.00386   0.00456   0.01737   0.02314
 Alpha virt. eigenvalues --    0.02999   0.03446   0.04929   0.05636   0.06429
 Alpha virt. eigenvalues --    0.06630   0.07379   0.07870   0.09316   0.10111

  Beta  occ. eigenvalues --  -19.69799 -19.64792 -19.64277 -10.72323 -10.61836
  Beta  occ. eigenvalues --  -10.57970 -10.57498 -10.54676  -1.27237  -1.17891
  Beta  occ. eigenvalues --   -1.05751  -0.91455  -0.87799  -0.78937  -0.71506
  Beta  occ. eigenvalues --   -0.65853  -0.62042  -0.60342  -0.58567  -0.54526
  Beta  occ. eigenvalues --   -0.51950  -0.49788  -0.48022  -0.46006  -0.42984
  Beta  occ. eigenvalues --   -0.40895  -0.39819  -0.38211  -0.37864  -0.37284
  Beta virt. eigenvalues --   -0.09229  -0.02822  -0.00341   0.00477   0.01817
  Beta virt. eigenvalues --    0.02541   0.03108   0.03458   0.05346   0.05709
  Beta virt. eigenvalues --    0.06535   0.06855   0.07513   0.07912   0.09531

 Mulliken charges and spin densities:
               1          2
     1  O   -0.289614   0.825790
     2  H    0.268476  -0.010224
     3  C   -0.637766  -0.001203
     4  H    0.181844  -0.000027
     5  C    1.219296   0.006592
     6  C   -0.661329   0.004671
     7  O   -0.276595  -0.002086
     8  O    0.026844  -0.000376
     9  C   -0.420889  -0.024972
    10  C   -0.442826   0.238762
    11  H    0.195733   0.009828
    12  H    0.228023   0.002953
    13  H    0.175854  -0.007272
    14  H    0.192355  -0.001857
    15  H    0.240594  -0.040580
 Sum of Mulliken charges =  -0.00000   1.00000

 Dipole moment (field-independent basis, Debye):
    X=             -1.8801    Y=             -2.6191    Z=             -0.0067  Tot=              3.2241
 Quadrupole moment (field-independent basis, Debye-Ang):
   XX=            -40.3074   YY=            -50.3331   ZZ=            -48.0452
   XY=             -7.3231   XZ=              4.2087   YZ=             -0.8276

  Exact polarizability:  93.071  -1.827  73.661   7.720   2.401  52.082
 Approx polarizability:  99.991   0.299  81.967  12.276   5.806  62.856

 ******    2 imaginary frequencies (negative Signs) ******

                      1                      2                      3
                      A                      A                      A
 Frequencies --   -365.6611              -138.2405                14.0679
 Red. masses --      1.9914                 2.0135                 4.2644
 Frc consts  --      0.1569                 0.0227                 0.0005
 IR Inten    --     72.0846                 0.9402                 1.5777

                      4                      5                      6
                      A                      A                      A
 Frequencies --     74.1613                93.0399               141.5555
 Red. masses --      3.7496                 2.4264                 5.6240
 Frc consts  --      0.0122                 0.0124                 0.0664
 IR Inten    --      3.7177                 4.1481                 1.0251

                      7                      8                      9
                      A                      A                      A
 Frequencies --    191.4482               273.0613               335.0227
 Red. masses --      4.3415                 4.2690                 3.4209
 Frc consts  --      0.0938                 0.1875                 0.2262
 IR Inten    --      8.0537                 2.2309                12.7668

                     10                     11                     12
                      A                      A                      A
 Frequencies --    416.2394               428.3899               563.2917
 Red. masses --      3.6512                 1.0567                 4.2220
 Frc consts  --      0.3727                 0.1143                 0.7893
 IR Inten    --      3.2769                93.1026                 1.4606

                     13                     14                     15
                      A                      A                      A
 Frequencies --    610.4367               690.2235               746.2179
 Red. masses --      7.1985                 1.1468                 1.3139
 Frc consts  --      1.5804                 0.3219                 0.4311
 IR Inten    --      9.9037                97.8123                38.8087

                     16                     17                     18
                      A                      A                      A
 Frequencies --    779.5418               789.8307               838.8456
 Red. masses --      1.4424                 5.8022                 1.2670
 Frc consts  --      0.5164                 2.1326                 0.5253
 IR Inten    --     18.5503                49.5249                73.9609

                     19                     20                     21
                      A                      A                      A
 Frequencies --    890.3221               936.0043              1082.9942
 Red. masses --      2.6027                 3.0102                 3.8870
 Frc consts  --      1.2155                 1.5538                 2.6861
 IR Inten    --     34.7657                15.7743                28.6562

                     22                     23                     24
                      A                      A                      A
 Frequencies --   1110.6111              1166.3919              1296.4979
 Red. masses --      2.1448                 1.8450                 2.8201
 Frc consts  --      1.5587                 1.4789                 2.7929
 IR Inten    --     20.0558                10.7055               444.2863

                     25                     26                     27
                      A                      A                      A
 Frequencies --   1341.2977              1359.9374              1399.5316
 Red. masses --      1.2673                 1.0864                 1.3399
 Frc consts  --      1.3434                 1.1838                 1.5463
 IR Inten    --    143.9171                12.6550                63.5303

                     28                     29                     30
                      A                      A                      A
 Frequencies --   1436.5885              1452.6616              1504.8146
 Red. masses --      1.4032                 1.0676                 1.1054
 Frc consts  --      1.7062                 1.3273                 1.4748
 IR Inten    --     29.9177                 2.0160                21.6403

                     31                     32                     33
                      A                      A                      A
 Frequencies --   1816.8947              2187.5266              2271.4975
 Red. masses --     11.3540                 1.1190                 5.7392
 Frc consts  --     22.0830                 3.1550                17.4471
 IR Inten    --    286.5681               849.8496                86.8254

                     34                     35                     36
                      A                      A                      A
 Frequencies --   3102.6655              3104.1731              3158.2901
 Red. masses --      1.0571                 1.0606                 1.1075
 Frc consts  --      5.9955                 6.0215                 6.5087
 IR Inten    --      7.6232                17.2265                 6.8428

                     37                     38                     39
                      A                      A                      A
 Frequencies --   3170.2193              3490.2813              3720.9363
 Red. masses --      1.1051                 1.1715                 1.0666
 Frc consts  --      6.5439                 8.4082                 8.7005
 IR Inten    --      7.0468                63.2910               146.6597

 - Thermochemistry -
 -------------------
 Temperature   298.150 Kelvin.  Pressure   1.00000 Atm.
 Atom     1 has atomic number  8 and mass  15.99491

 Molecular mass:   115.03952 amu.
 Principal axes and moments of inertia in atomic units:
                           1         2         3
     Eigenvalues --   546.810511519.858871858.79016
           X            0.99964  -0.02652   0.00294
           Y            0.02654   0.99964  -0.00406
           Z           -0.00283   0.00413   0.99999
 This molecule is an asymmetric top.
 Rotational symmetry number  1.
 Warning -- assumption of classical behavior for rotation
           may cause significant error
 Rotational temperatures (Kelvin)      0.15840     0.05699     0.04660
 Rotational constants (GHZ):           3.30049     1.18744     0.97092
    2 imaginary frequencies ignored.
 Zero-point vibrational energy     287017.1 (Joules/Mol)
                                   68.59873 (Kcal/Mol)
 Warning -- explicit consideration of  11 degrees of freedom as
           vibrations may cause significant error
 Vibrational temperatures:     20.24   106.70   133.86   203.67   275.45
          (Kelvin)            392.87   482.02   598.88   616.36   810.45
                              878.28   993.08  1073.64  1121.59  1136.39
                             1206.91  1280.97  1346.70  1558.19  1597.92
                             1678.18  1865.37  1929.83  1956.65  2013.61
                             2066.93  2090.06  2165.09  2614.11  3147.36
                             3268.18  4464.04  4466.21  4544.08  4561.24
                             5021.74  5353.60

 Zero-point correction=                           0.109319 (Hartree/Particle)
 Thermal correction to Energy=                    0.118250
 Thermal correction to Enthalpy=                  0.119194
 Thermal correction to Gibbs Free Energy=         0.072821
 Sum of electronic and zero-point Energies=           -420.093022
 Sum of electronic and thermal Energies=              -420.084091
 Sum of electronic and thermal Enthalpies=            -420.083147
 Sum of electronic and thermal Free Energies=         -420.129520

                     E (Thermal)             CV                S
                      KCal/Mol        Cal/Mol-Kelvin    Cal/Mol-Kelvin
 Total                   74.203             30.013             97.601
 Electronic               0.000              0.000              1.377
 Translational            0.889              2.981             40.136
 Rotational               0.889              2.981             28.826
 Vibrational             72.425             24.051             27.262
 Vibration     1          0.593              1.986              7.333
 Vibration     2          0.599              1.966              4.040
 Vibration     3          0.602              1.954              3.595
 Vibration     4          0.615              1.912              2.783
 Vibration     5          0.634              1.852              2.214
 Vibration     6          0.676              1.723              1.577
 Vibration     7          0.716              1.606              1.236
 Vibration     8          0.779              1.435              0.905
 Vibration     9          0.790              1.408              0.864
 Vibration    10          0.919              1.111              0.517
 Vibration    11          0.969              1.010              0.432

 1\1\GINC-AJ\Freq\UM062X\6-311++G(d,p)\C5H7O3(2)\AAYUSH\16-Aug-2025\0\\
 # freq 6-311++g(d,p) m062x\\Title Card Required\\0,2\O,2.344977,1.6930
 49,-0.326652\H,1.52631,1.772842,0.19895\C,-3.317483,0.189298,-0.516233
 \H,-4.333416,0.261554,-0.827664\C,-2.175309,0.107466,-0.165048\C,-0.79
 0222,0.059852,0.272909\O,-0.228513,0.987133,0.798015\O,-0.246151,-1.12
 5052,0.027346\C,1.122164,-1.322583,0.443859\C,2.09981,-0.834038,-0.596
 036\H,1.197689,-2.401836,0.57034\H,1.273243,-0.835436,1.40827\H,3.1037
 37,-1.203523,-0.384007\H,1.799023,-1.123085,-1.603653\H,2.197043,0.278

 Normal termination of Gaussian 16 at Sat Aug 16 16:05:05 2025.
