 Gaussian 16, Revision A.03,
 Gaussian 16:  ES64L-G16RevA.03 25-Dec-2016

 --------------------------
 # freq 6-311++g(d,p) m062x
 --------------------------

 -------------------
 Title Card Required
 -------------------
 Symbolic Z-matrix:
 Charge =  0 Multiplicity = 2

                         Standard orientation:
 ---------------------------------------------------------------------
 Center     Atomic      Atomic             Coordinates (Angstroms)
 Number     Number       Type             X           Y           Z
 ---------------------------------------------------------------------
      1          8           0        2.288524    1.682517   -0.320492
      2          1           0        1.482226    1.801190    0.206159
      3          6           0       -3.372942    0.217236   -0.505908
      4          1           0       -4.388876    0.291565   -0.816973
      5          6           0       -2.230831    0.133297   -0.155191
      6          6           0       -0.846647    0.085622    0.283377
      7          8           0       -0.283940    1.008521    0.810094
      8          8           0       -0.301531   -1.102637    0.034993
      9          6           0        1.064551   -1.295209    0.449771
     10          6           0        2.041994   -0.804066   -0.582826
     11          1           0        1.150025   -2.377575    0.569104
     12          1           0        1.218674   -0.816600    1.418645
     13          1           0        3.059889   -1.130198   -0.374205
     14          1           0        1.740022   -1.021343   -1.606380
     15          1           0        2.176852    0.524471   -0.528438
 ---------------------------------------------------------------------

 SCF Done:  E(UM062X) =  -420.204344976     A.U. after   19 cycles

 The electronic state is 2-A.
 Alpha  occ. eigenvalues --  -19.70237 -19.64993 -19.61959 -10.72513 -10.62948
 Alpha  occ. eigenvalues --  -10.58137 -10.57800 -10.57653  -1.27601  -1.18255
 Alpha  occ. eigenvalues --   -1.10242  -0.92226  -0.88569  -0.79871  -0.72215
 Alpha  occ. eigenvalues --   -0.66568  -0.62244  -0.60864  -0.59587  -0.57091
 Alpha  occ. eigenvalues --   -0.54111  -0.51220  -0.49870  -0.48278  -0.45845
 Alpha  occ. eigenvalues --   -0.41302  -0.40805  -0.38464  -0.38167  -0.37474
 Alpha  occ. eigenvalues --   -0.32312
 Alpha virt. eigenvalues --   -0.03014  -0.00687   0.00303   0.01430   0.02268
 Alpha virt. eigenvalues --    0.02773   0.03301   0.05078   0.05467   0.06408
 Alpha virt. eigenvalues --    0.06802   0.07269   0.07656   0.09229   0.09938

  Beta  occ. eigenvalues --  -19.70235 -19.64994 -19.61067 -10.72514 -10.62977
  Beta  occ. eigenvalues --  -10.58137 -10.57653 -10.57229  -1.27594  -1.18245
  Beta  occ. eigenvalues --   -1.06855  -0.91791  -0.88027  -0.78811  -0.71527
  Beta  occ. eigenvalues --   -0.66376  -0.62193  -0.60613  -0.58975  -0.54539
  Beta  occ. eigenvalues --   -0.52618  -0.50195  -0.48956  -0.46033  -0.43618
  Beta  occ. eigenvalues --   -0.41170  -0.40146  -0.38311  -0.37432  -0.36405
  Beta virt. eigenvalues --   -0.09539  -0.02990  -0.00594   0.00333   0.01602
  Beta virt. eigenvalues --    0.02434   0.02934   0.03311   0.05348   0.05578
  Beta virt. eigenvalues --    0.06466   0.07084   0.07368   0.07694   0.09412

 Mulliken charges and spin densities:
               1          2
     1  O   -0.429226   0.439330
     2  H    0.266180   0.005259
     3  C   -0.633854  -0.000626
     4  H    0.182444   0.000019
     5  C    1.217012   0.002889
     6  C   -0.654306   0.007936
     7  O   -0.269648  -0.003946
     8  O    0.028266   0.000266
     9  C   -0.428343  -0.047025
    10  C   -0.447285   0.653618
    11  H    0.205327   0.033842
    12  H    0.239207   0.012168
    13  H    0.192153  -0.021762
    14  H    0.212784  -0.012171
    15  H    0.319290  -0.069799
 Sum of Mulliken charges =  -0.00000   1.00000

 Dipole moment (field-independent basis, Debye):
    X=             -2.1107    Y=             -3.7362    Z=             -0.0554  Tot=              4.2915
 Quadrupole moment (field-independent basis, Debye-Ang):
   XX=            -40.6707   YY=            -51.9634   ZZ=            -47.7169
   XY=            -10.1389   XZ=              4.0054   YZ=             -0.5024

  Exact polarizability:  93.412  -0.634  76.744   7.523   2.341  52.344
 Approx polarizability: 100.366   1.640  89.335  12.205   6.061  63.451

 ******    1 imaginary frequencies (negative Signs) ******

                      1                      2                      3
                      A                      A                      A
 Frequencies --  -1666.5498                43.6649                94.5474
 Red. masses --      1.0739                 7.6347                 3.7687
 Frc consts  --      1.7573                 0.0086                 0.0198
 IR Inten    --    462.0042                 2.4662                 3.1789

                      4                      5                      6
                      A                      A                      A
 Frequencies --    120.6647               186.6681               195.6727
 Red. masses --      4.8778                 3.5760                 6.8757
 Frc consts  --      0.0418                 0.0734                 0.1551
 IR Inten    --      3.6731                 2.2939                 4.4236

                      7                      8                      9
                      A                      A                      A
 Frequencies --    273.5071               336.9248               393.6054
 Red. masses --      4.3422                 3.1455                 1.1891
 Frc consts  --      0.1914                 0.2104                 0.1085
 IR Inten    --      2.2380                12.0717                41.6703

                     10                     11                     12
                      A                      A                      A
 Frequencies --    418.2630               487.3431               545.0497
 Red. masses --      1.7217                 1.7757                 3.6627
 Frc consts  --      0.1775                 0.2485                 0.6411
 IR Inten    --     42.9762                13.1421                 2.4092

                     13                     14                     15
                      A                      A                      A
 Frequencies --    576.1284               612.3158               747.8203
 Red. masses --      3.0353                 7.2658                 1.3140
 Frc consts  --      0.5936                 1.6050                 0.4329
 IR Inten    --      1.2226                 9.2615                40.0787

                     16                     17                     18
                      A                      A                      A
 Frequencies --    753.0818               780.3364               788.5060
 Red. masses --      1.1179                 1.4983                 4.9558
 Frc consts  --      0.3735                 0.5375                 1.8154
 IR Inten    --     79.3267                15.8227                49.7554

                     19                     20                     21
                      A                      A                      A
 Frequencies --    869.0008               908.5317               954.8799
 Red. masses --      2.3974                 1.8879                 2.0908
 Frc consts  --      1.0667                 0.9181                 1.1232
 IR Inten    --      7.2012                10.0552                14.6791

                     22                     23                     24
                      A                      A                      A
 Frequencies --   1077.1973              1098.9565              1149.3851
 Red. masses --      1.7267                 2.2826                 1.5942
 Frc consts  --      1.1805                 1.6242                 1.2408
 IR Inten    --     66.8230                 7.5709                 2.7844

                     25                     26                     27
                      A                      A                      A
 Frequencies --   1183.1915              1282.3593              1341.8172
 Red. masses --      1.5269                 2.3430                 1.6125
 Frc consts  --      1.2594                 2.2701                 1.7105
 IR Inten    --     13.4746               394.8567               254.5778

                     28                     29                     30
                      A                      A                      A
 Frequencies --   1413.1744              1445.7909              1485.9895
 Red. masses --      1.3483                 1.1752                 1.1027
 Frc consts  --      1.5864                 1.4473                 1.4347
 IR Inten    --     37.2761                 5.7662                25.9627

                     31                     32                     33
                      A                      A                      A
 Frequencies --   1509.6816              1828.0486              2272.1066
 Red. masses --      1.0587                11.7834                 5.7378
 Frc consts  --      1.4217                23.2005                17.4524
 IR Inten    --    119.1980               309.0727                88.7889

                     34                     35                     36
                      A                      A                      A
 Frequencies --   3084.6383              3115.7513              3137.0881
 Red. masses --      1.0582                 1.0564                 1.1049
 Frc consts  --      5.9324                 6.0425                 6.4064
 IR Inten    --     11.0235                 2.1959                 1.7950

                     37                     38                     39
                      A                      A                      A
 Frequencies --   3200.4630              3490.0900              3801.4942
 Red. masses --      1.1107                 1.1716                 1.0657
 Frc consts  --      6.7028                 8.4082                 9.0739
 IR Inten    --      2.0290                63.3953               133.3010

 - Thermochemistry -
 -------------------
 Temperature   298.150 Kelvin.  Pressure   1.00000 Atm.
 Atom     1 has atomic number  8 and mass  15.99491

 Molecular mass:   115.03952 amu.
 Principal axes and moments of inertia in atomic units:
                           1         2         3
     Eigenvalues --   539.016691519.764131851.21288
           X            0.99971  -0.02370   0.00313
           Y            0.02372   0.99970  -0.00624
           Z           -0.00298   0.00631   0.99998
 This molecule is an asymmetric top.
 Rotational symmetry number  1.
 Warning -- assumption of classical behavior for rotation
           may cause significant error
 Rotational temperatures (Kelvin)      0.16069     0.05699     0.04679
 Rotational constants (GHZ):           3.34821     1.18751     0.97490
    1 imaginary frequencies ignored.
 Zero-point vibrational energy     281144.8 (Joules/Mol)
                                   67.19521 (Kcal/Mol)
 Warning -- explicit consideration of  13 degrees of freedom as
           vibrations may cause significant error
 Vibrational temperatures:     62.82   136.03   173.61   268.57   281.53
          (Kelvin)            393.52   484.76   566.31   601.79   701.18
                              784.20   828.92   880.99  1075.95  1083.52
                             1122.73  1134.48  1250.30  1307.17  1373.86
                             1549.85  1581.15  1653.71  1702.35  1845.03
                             1930.58  2033.24  2080.17  2138.01  2172.10
                             2630.15  3269.05  4438.11  4482.87  4513.57
                             4604.75  5021.46  5469.50

 Zero-point correction=                           0.107082 (Hartree/Particle)
 Thermal correction to Energy=                    0.116192
 Thermal correction to Enthalpy=                  0.117137
 Thermal correction to Gibbs Free Energy=         0.071984
 Sum of electronic and zero-point Energies=           -420.097263
 Sum of electronic and thermal Energies=              -420.088153
 Sum of electronic and thermal Enthalpies=            -420.087208
 Sum of electronic and thermal Free Energies=         -420.132361

                     E (Thermal)             CV                S
                      KCal/Mol        Cal/Mol-Kelvin    Cal/Mol-Kelvin
 Total                   72.912             32.266             95.031
 Electronic               0.000              0.000              1.377
 Translational            0.889              2.981             40.136
 Rotational               0.889              2.981             28.807
 Vibrational             71.134             26.305             24.711
 Vibration     1          0.595              1.980              5.085
 Vibration     2          0.603              1.953              3.564
 Vibration     3          0.609              1.932              3.090
 Vibration     4          0.632              1.858              2.261
 Vibration     5          0.636              1.846              2.173
 Vibration     6          0.676              1.722              1.574
 Vibration     7          0.718              1.602              1.227
 Vibration     8          0.761              1.484              0.986
 Vibration     9          0.781              1.431              0.898
 Vibration    10          0.843              1.278              0.691
 Vibration    11          0.900              1.151              0.555
 Vibration    12          0.933              1.083              0.493
 Vibration    13          0.972              1.006              0.429

 1\1\GINC-AJ\Freq\UM062X\6-311++G(d,p)\C5H7O3(2)\AAYUSH\16-Aug-2025\0\\
 # freq 6-311++g(d,p) m062x\\Title Card Required\\0,2\O,2.342306,1.6611
 41,-0.332704\H,1.535827,1.779763,0.193683\C,-3.317501,0.189232,-0.5162
 58\H,-4.33349,0.261922,-0.827534\C,-2.175329,0.107137,-0.165304\C,-0.7
 91133,0.061719,0.273465\O,-0.229506,0.986096,0.79874\O,-0.244666,-1.12
 633,0.02705\C,1.121593,-1.316703,0.442261\C,2.09858,-0.826137,-0.59104
 \H,1.208266,-2.398779,0.563351\H,1.275092,-0.836357,1.410374\H,3.11682
 ,-1.150793,-0.381802\H,1.796945,-1.045406,-1.614269\H,2.231948,0.50263

 Normal termination of Gaussian 16 at Sat Aug 16 15:39:50 2025.
