 Gaussian 16, Revision A.03,
 Gaussian 16:  ES64L-G16RevA.03 25-Dec-2016

 --------------------------
 # freq 6-311++g(d,p) m062x
 --------------------------

 -------------------
 Title Card Required
 -------------------
 Symbolic Z-matrix:
 Charge =  0 Multiplicity = 2

                         Standard orientation:
 ---------------------------------------------------------------------
 Center     Atomic      Atomic             Coordinates (Angstroms)
 Number     Number       Type             X           Y           Z
 ---------------------------------------------------------------------
      1          8           0        2.289611    1.738568   -0.321868
      2          1           0        1.467652    1.802624    0.201995
      3          6           0       -3.372417    0.210500   -0.507897
      4          1           0       -4.388335    0.279831   -0.820039
      5          6           0       -2.230248    0.131922   -0.155864
      6          6           0       -0.844880    0.087551    0.282283
      7          8           0       -0.283829    1.019054    0.801614
      8          8           0       -0.300725   -1.097745    0.044008
      9          6           0        1.067839   -1.294900    0.462916
     10          6           0        2.045479   -0.822843   -0.585169
     11          1           0        1.139136   -2.372705    0.601244
     12          1           0        1.219451   -0.797157    1.421691
     13          1           0        3.047376   -1.192505   -0.363557
     14          1           0        1.746407   -1.147606   -1.582627
     15          1           0        2.133213    0.275124   -0.626352
 ---------------------------------------------------------------------

 SCF Done:  E(UM062X) =  -420.203662708     A.U. after   20 cycles

 The electronic state is 2-A.
 Alpha  occ. eigenvalues --  -19.69760 -19.66150 -19.64771 -10.72312 -10.61711
 Alpha  occ. eigenvalues --  -10.57953 -10.57484 -10.54582  -1.27208  -1.17858
 Alpha  occ. eigenvalues --   -1.12499  -0.91566  -0.88006  -0.79374  -0.71791
 Alpha  occ. eigenvalues --   -0.65860  -0.62060  -0.60494  -0.58894  -0.56532
 Alpha  occ. eigenvalues --   -0.54003  -0.51646  -0.49078  -0.48128  -0.44913
 Alpha  occ. eigenvalues --   -0.41706  -0.40970  -0.40317  -0.38161  -0.38098
 Alpha  occ. eigenvalues --   -0.37313
 Alpha virt. eigenvalues --   -0.02828  -0.00361   0.00474   0.01762   0.02305
 Alpha virt. eigenvalues --    0.03031   0.03460   0.04921   0.05654   0.06397
 Alpha virt. eigenvalues --    0.06623   0.07374   0.07888   0.09342   0.10125

  Beta  occ. eigenvalues --  -19.69760 -19.64775 -19.64657 -10.72312 -10.61720
  Beta  occ. eigenvalues --  -10.57953 -10.57484 -10.54377  -1.27206  -1.17852
  Beta  occ. eigenvalues --   -1.05512  -0.91427  -0.87779  -0.78931  -0.71491
  Beta  occ. eigenvalues --   -0.65808  -0.62027  -0.60320  -0.58499  -0.54524
  Beta  occ. eigenvalues --   -0.51867  -0.49811  -0.47906  -0.46032  -0.42922
  Beta  occ. eigenvalues --   -0.40889  -0.39810  -0.38285  -0.38029  -0.37278
  Beta virt. eigenvalues --   -0.08960  -0.02806  -0.00320   0.00493   0.01830
  Beta virt. eigenvalues --    0.02544   0.03133   0.03473   0.05352   0.05725
  Beta virt. eigenvalues --    0.06515   0.06812   0.07511   0.07927   0.09549

 Mulliken charges and spin densities:
               1          2
     1  O   -0.276492   0.864659
     2  H    0.269751  -0.011461
     3  C   -0.638497  -0.001233
     4  H    0.181785  -0.000029
     5  C    1.219689   0.006720
     6  C   -0.661300   0.003731
     7  O   -0.277580  -0.001512
     8  O    0.027108  -0.000523
     9  C   -0.424089  -0.023208
    10  C   -0.432839   0.198167
    11  H    0.194785   0.007558
    12  H    0.226872   0.001911
    13  H    0.173663  -0.006393
    14  H    0.190203  -0.001118
    15  H    0.226941  -0.037268
 Sum of Mulliken charges =  -0.00000   1.00000

 Dipole moment (field-independent basis, Debye):
    X=             -1.8636    Y=             -2.5118    Z=              0.0036  Tot=              3.1277
 Quadrupole moment (field-independent basis, Debye-Ang):
   XX=            -40.3266   YY=            -50.1830   ZZ=            -48.0822
   XY=             -7.0410   XZ=              4.2389   YZ=             -0.8604

  Exact polarizability:  93.016  -2.402  70.918   7.712   2.299  52.090
 Approx polarizability:  99.948   0.005  79.653  12.262   5.648  62.777

 ******    3 imaginary frequencies (negative Signs) ******

                      1                      2                      3
                      A                      A                      A
 Frequencies --   -280.4866               -80.8680                -5.5649
 Red. masses --      1.2325                 4.7446                 3.2994
 Frc consts  --      0.0571                 0.0183                 0.0001
 IR Inten    --     15.7727                 4.1622                 1.4540

                      4                      5                      6
                      A                      A                      A
 Frequencies --     40.9117                85.2279               144.7545
 Red. masses --      3.8794                 3.4979                 5.1599
 Frc consts  --      0.0038                 0.0150                 0.0637
 IR Inten    --      3.8545                 2.7844                 0.8998

                      7                      8                      9
                      A                      A                      A
 Frequencies --    191.9794               273.0733               334.5833
 Red. masses --      4.5403                 4.2938                 3.5291
 Frc consts  --      0.0986                 0.1886                 0.2328
 IR Inten    --      9.2394                 2.2728                12.4729

                     10                     11                     12
                      A                      A                      A
 Frequencies --    414.0900               431.9801               562.3695
 Red. masses --      3.6174                 1.0556                 4.2548
 Frc consts  --      0.3655                 0.1161                 0.7928
 IR Inten    --      2.4170                95.2059                 1.6438

                     13                     14                     15
                      A                      A                      A
 Frequencies --    610.2642               672.7198               745.9324
 Red. masses --      7.1771                 1.1292                 1.3137
 Frc consts  --      1.5748                 0.3011                 0.4307
 IR Inten    --      9.7962               141.8110                38.8323

                     16                     17                     18
                      A                      A                      A
 Frequencies --    779.3450               789.5683               811.7645
 Red. masses --      1.4477                 5.2171                 1.1906
 Frc consts  --      0.5181                 1.9163                 0.4623
 IR Inten    --     17.7420                55.1845                57.2563

                     19                     20                     21
                      A                      A                      A
 Frequencies --    887.4870               935.3085              1081.2320
 Red. masses --      2.9405                 3.0966                 3.8773
 Frc consts  --      1.3646                 1.5960                 2.6707
 IR Inten    --     21.7424                10.9626                29.4194

                     22                     23                     24
                      A                      A                      A
 Frequencies --   1109.2279              1169.8014              1299.7002
 Red. masses --      2.1734                 1.8455                 2.7466
 Frc consts  --      1.5755                 1.4880                 2.7336
 IR Inten    --     18.1920                 5.4515               451.6255

                     25                     26                     27
                      A                      A                      A
 Frequencies --   1344.8313              1382.2876              1403.1331
 Red. masses --      1.3243                 1.0778                 1.3330
 Frc consts  --      1.4111                 1.2134                 1.5462
 IR Inten    --    161.6791                 6.4915                56.5370

                     28                     29                     30
                      A                      A                      A
 Frequencies --   1439.4465              1461.0936              1506.6430
 Red. masses --      1.3828                 1.0560                 1.1063
 Frc consts  --      1.6882                 1.3282                 1.4796
 IR Inten    --     26.3025                 2.4817                21.3432

                     31                     32                     33
                      A                      A                      A
 Frequencies --   1815.7810              2271.2033              2544.8424
 Red. masses --     11.6616                 5.7394                 1.0940
 Frc consts  --     22.6535                17.4434                 4.1744
 IR Inten    --    329.9098                86.3924               479.2329

                     34                     35                     36
                      A                      A                      A
 Frequencies --   3102.6165              3105.7126              3160.2420
 Red. masses --      1.0594                 1.0604                 1.1061
 Frc consts  --      6.0086                 6.0260                 6.5088
 IR Inten    --     10.0586                17.2933                 8.9461

                     37                     38                     39
                      A                      A                      A
 Frequencies --   3167.0726              3490.2453              3710.6497
 Red. masses --      1.1054                 1.1714                 1.0666
 Frc consts  --      6.5328                 8.4078                 8.6529
 IR Inten    --      7.5995                63.3205               153.3656

 - Thermochemistry -
 -------------------
 Temperature   298.150 Kelvin.  Pressure   1.00000 Atm.
 Atom     1 has atomic number  8 and mass  15.99491

 Molecular mass:   115.03952 amu.
 Principal axes and moments of inertia in atomic units:
                           1         2         3
     Eigenvalues --   552.359291519.911701864.09662
           X            0.99962  -0.02732   0.00287
           Y            0.02733   0.99962  -0.00346
           Z           -0.00278   0.00353   0.99999
 This molecule is an asymmetric top.
 Rotational symmetry number  1.
 Warning -- assumption of classical behavior for rotation
           may cause significant error
 Rotational temperatures (Kelvin)      0.15681     0.05699     0.04646
 Rotational constants (GHZ):           3.26733     1.18740     0.96816
    3 imaginary frequencies ignored.
 Zero-point vibrational energy     288761.3 (Joules/Mol)
                                   69.01561 (Kcal/Mol)
 Warning -- explicit consideration of  10 degrees of freedom as
           vibrations may cause significant error
 Vibrational temperatures:     58.86   122.62   208.27   276.22   392.89
          (Kelvin)            481.39   595.78   621.52   809.12   878.03
                              967.89  1073.23  1121.30  1136.01  1167.95
                             1276.90  1345.70  1555.65  1595.93  1683.08
                             1869.98  1934.91  1988.80  2018.80  2071.04
                             2102.19  2167.72  2612.50  3267.75  3661.46
                             4463.97  4468.43  4546.88  4556.71  5021.68
                             5338.80

 Zero-point correction=                           0.109983 (Hartree/Particle)
 Thermal correction to Energy=                    0.118093
 Thermal correction to Enthalpy=                  0.119037
 Thermal correction to Gibbs Free Energy=         0.075506
 Sum of electronic and zero-point Energies=           -420.093679
 Sum of electronic and thermal Energies=              -420.085570
 Sum of electronic and thermal Enthalpies=            -420.084625
 Sum of electronic and thermal Free Energies=         -420.128157

                     E (Thermal)             CV                S
                      KCal/Mol        Cal/Mol-Kelvin    Cal/Mol-Kelvin
 Total                   74.105             28.104             91.620
 Electronic               0.000              0.000              1.377
 Translational            0.889              2.981             40.136
 Rotational               0.889              2.981             28.839
 Vibrational             72.327             22.142             21.269
 Vibration     1          0.594              1.981              5.214
 Vibration     2          0.601              1.959              3.767
 Vibration     3          0.616              1.908              2.740
 Vibration     4          0.634              1.851              2.209
 Vibration     5          0.676              1.723              1.577
 Vibration     6          0.716              1.606              1.238
 Vibration     7          0.778              1.440              0.912
 Vibration     8          0.793              1.401              0.852
 Vibration     9          0.918              1.113              0.519
 Vibration    10          0.969              1.010              0.432

 1\1\GINC-AJ\Freq\UM062X\6-311++G(d,p)\C5H7O3(2)\AAYUSH\23-Jun-2025\0\\
 # freq 6-311++g(d,p) m062x\\Title Card Required\\0,2\O,2.289611,1.7385
 68,-0.321868\H,1.467652,1.802624,0.201995\C,-3.372417,0.2105,-0.507897
 \H,-4.388335,0.279831,-0.820039\C,-2.230248,0.131922,-0.155864\C,-0.84
 488,0.087551,0.282283\O,-0.283829,1.019054,0.801614\O,-0.300725,-1.097
 745,0.044008\C,1.067839,-1.2949,0.462916\C,2.045479,-0.822843,-0.58516
 9\H,1.139136,-2.372705,0.601244\H,1.219451,-0.797157,1.421691\H,3.0473
 76,-1.192505,-0.363557\H,1.746407,-1.147606,-1.582627\H,2.133213,0.275

 Normal termination of Gaussian 16 at Mon Jun 23 02:28:35 2025.
