 Gaussian 16, Revision A.03,
 Gaussian 16:  ES64L-G16RevA.03 25-Dec-2016

 --------------------------
 # ccsd(t)/6-311++g(d,p) sp
 --------------------------

 -------------------
 Title Card Required
 -------------------
 Symbolic Z-matrix:
 Charge =  0 Multiplicity = 2

                         Standard orientation:
 ---------------------------------------------------------------------
 Center     Atomic      Atomic             Coordinates (Angstroms)
 Number     Number       Type             X           Y           Z
 ---------------------------------------------------------------------
      1          8           0        2.288347    1.715545   -0.321897
      2          1           0        1.470477    1.800714    0.203688
      3          6           0       -3.372718    0.211649   -0.507161
      4          1           0       -4.388671    0.282382   -0.818877
      5          6           0       -2.230525    0.131549   -0.155667
      6          6           0       -0.845553    0.086304    0.282662
      7          8           0       -0.284629    1.015153    0.805460
      8          8           0       -0.300297   -1.099083    0.040239
      9          6           0        1.067994   -1.293612    0.457201
     10          6           0        2.045370   -0.804618   -0.582625
     11          1           0        1.145680   -2.372619    0.585421
     12          1           0        1.218518   -0.804833    1.420909
     13          1           0        3.050505   -1.170886   -0.370884
     14          1           0        1.744816   -1.088980   -1.591578
     15          1           0        2.143907    0.313670   -0.585556
 ---------------------------------------------------------------------

 SCF Done:  E(UHF) =  -417.979125010     A.U. after   33 cycles
 E2 =    -0.1271092373D+01 EUMP2 =    -0.41925021738334D+03
 CCSD(T)= -0.41935204238D+03

 The electronic state is 2-A.
 Alpha  occ. eigenvalues --  -20.62793 -20.61411 -20.57790 -11.43480 -11.30493
 Alpha  occ. eigenvalues --  -11.27688 -11.26855 -11.22709  -1.49864  -1.39777
 Alpha  occ. eigenvalues --   -1.37935  -1.08936  -1.05002  -0.93866  -0.85154
 Alpha  occ. eigenvalues --   -0.77832  -0.73974  -0.72256  -0.70597  -0.68299
 Alpha  occ. eigenvalues --   -0.65419  -0.62705  -0.58336  -0.56498  -0.54650
 Alpha  occ. eigenvalues --   -0.53419  -0.50361  -0.48579  -0.46124  -0.43684
 Alpha  occ. eigenvalues --   -0.43521
 Alpha virt. eigenvalues --    0.03550   0.04499   0.06058   0.06836   0.07421
 Alpha virt. eigenvalues --    0.07687   0.09330   0.10256   0.11090   0.11395
 Alpha virt. eigenvalues --    0.12248   0.13871   0.14266   0.15150   0.16322

  Beta  occ. eigenvalues --  -20.62792 -20.57801 -20.57470 -11.43482 -11.30542
  Beta  occ. eigenvalues --  -11.27690 -11.26854 -11.22035  -1.49865  -1.39752
  Beta  occ. eigenvalues --   -1.23349  -1.08801  -1.04333  -0.92995  -0.84466
  Beta  occ. eigenvalues --   -0.77783  -0.73924  -0.71792  -0.68455  -0.63894
  Beta  occ. eigenvalues --   -0.62538  -0.58578  -0.56300  -0.54197  -0.50921
  Beta  occ. eigenvalues --   -0.49864  -0.49052  -0.47632  -0.43672  -0.43516
  Beta virt. eigenvalues --    0.03552   0.04506   0.06008   0.06418   0.07267
  Beta virt. eigenvalues --    0.07438   0.08079   0.10086   0.10971   0.11127
  Beta virt. eigenvalues --    0.12098   0.12521   0.13945   0.14269   0.15386

 Mulliken charges and spin densities:
               1          2
     1  O   -0.280492   0.909283
     2  H    0.290953  -0.023085
     3  C   -0.702099  -0.001545
     4  H    0.205392   0.000040
     5  C    1.378791   0.004799
     6  C   -0.689998   0.004375
     7  O   -0.352961  -0.003099
     8  O   -0.056949   0.000158
     9  C   -0.288796  -0.040488
    10  C   -0.418253   0.252785
    11  H    0.162551   0.007580
    12  H    0.204529   0.004474
    13  H    0.136834  -0.014516
    14  H    0.163191  -0.009594
    15  H    0.247306  -0.091167
 Sum of Mulliken charges =  -0.00000   1.00000

 Dipole moment (field-independent basis, Debye):
    X=             -2.0292    Y=             -2.1025    Z=              0.0001  Tot=              2.9220
 Quadrupole moment (field-independent basis, Debye-Ang):
   XX=            -39.6621   YY=            -50.2150   ZZ=            -48.3234
   XY=             -6.0890   XZ=              4.7164   YZ=             -1.2247

 3-0=-419.2771153\MP4SDQ=-419.2995847\CCSD=-419.2986423\CCSD(T)=-419.35
 Normal termination of Gaussian 16 at Thu Aug 21 15:40:32 2025.
