 Gaussian 16, Revision A.03,
 Gaussian 16:  ES64L-G16RevA.03 25-Dec-2016

 --------------------------
 # ccsd(t)/6-311++g(d,p) sp
 --------------------------

 -------------------
 Title Card Required
 -------------------
 Symbolic Z-matrix:
 Charge =  0 Multiplicity = 2

                         Standard orientation:
 ---------------------------------------------------------------------
 Center     Atomic      Atomic             Coordinates (Angstroms)
 Number     Number       Type             X           Y           Z
 ---------------------------------------------------------------------
      1          8           0        2.288679    1.680394   -0.320337
      2          1           0        1.483584    1.801894    0.206272
      3          6           0       -3.372945    0.217888   -0.505819
      4          1           0       -4.388871    0.292558   -0.816842
      5          6           0       -2.230848    0.133577   -0.155150
      6          6           0       -0.846712    0.085576    0.283419
      7          8           0       -0.283763    1.008052    0.810343
      8          8           0       -0.301779   -1.102925    0.034682
      9          6           0        1.064154   -1.295580    0.449328
     10          6           0        2.041534   -0.805937   -0.583014
     11          1           0        1.149825   -2.378263    0.568395
     12          1           0        1.218612   -0.817532    1.418523
     13          1           0        3.060523   -1.127843   -0.374160
     14          1           0        1.739406   -1.018151   -1.607399
     15          1           0        2.180730    0.550023   -0.524876
 ---------------------------------------------------------------------

 SCF Done:  E(UHF) =  -417.962100399     A.U. after   29 cycles
 E2 =    -0.1293848451D+01 EUMP2 =    -0.41925594885078D+03
 CCSD(T)= -0.41935365819D+03

 The electronic state is 2-A.
 Alpha  occ. eigenvalues --  -20.63522 -20.58035 -20.56049 -11.43702 -11.32121
 Alpha  occ. eigenvalues --  -11.27893 -11.27310 -11.27047  -1.50400  -1.40230
 Alpha  occ. eigenvalues --   -1.33337  -1.09814  -1.06498  -0.95041  -0.85979
 Alpha  occ. eigenvalues --   -0.78676  -0.74189  -0.72469  -0.70478  -0.68372
 Alpha  occ. eigenvalues --   -0.64112  -0.60845  -0.59693  -0.58018  -0.55282
 Alpha  occ. eigenvalues --   -0.50613  -0.49586  -0.49175  -0.43860  -0.43724
 Alpha  occ. eigenvalues --   -0.41991
 Alpha virt. eigenvalues --    0.03385   0.04042   0.05701   0.06629   0.07234
 Alpha virt. eigenvalues --    0.07399   0.09724   0.10373   0.10922   0.11727
 Alpha virt. eigenvalues --    0.12147   0.13506   0.13965   0.14953   0.16001

  Beta  occ. eigenvalues --  -20.63520 -20.58034 -20.53697 -11.43709 -11.32285
  Beta  occ. eigenvalues --  -11.27901 -11.27038 -11.25250  -1.50395  -1.40213
  Beta  occ. eigenvalues --   -1.25655  -1.09136  -1.04634  -0.92542  -0.84198
  Beta  occ. eigenvalues --   -0.78483  -0.74128  -0.72128  -0.69100  -0.63849
  Beta  occ. eigenvalues --   -0.62000  -0.59381  -0.57512  -0.55040  -0.51471
  Beta  occ. eigenvalues --   -0.49910  -0.48012  -0.46570  -0.43822  -0.43707
  Beta virt. eigenvalues --    0.03396   0.04009   0.05163   0.06096   0.06673
  Beta virt. eigenvalues --    0.07249   0.07538   0.09915   0.10670   0.10924
  Beta virt. eigenvalues --    0.12156   0.12530   0.13532   0.13977   0.15108

 Mulliken charges and spin densities:
               1          2
     1  O   -0.476632   0.487654
     2  H    0.283820  -0.004466
     3  C   -0.696214  -0.005116
     4  H    0.206199   0.000326
     5  C    1.374905   0.005710
     6  C   -0.686090   0.010049
     7  O   -0.337667  -0.003019
     8  O   -0.052572  -0.001080
     9  C   -0.305305  -0.118248
    10  C   -0.399401   0.867601
    11  H    0.176016   0.039649
    12  H    0.222456   0.018496
    13  H    0.164479  -0.047275
    14  H    0.196209  -0.037723
    15  H    0.329796  -0.212557
 Sum of Mulliken charges =  -0.00000   1.00000

 Dipole moment (field-independent basis, Debye):
    X=             -2.3268    Y=             -3.9252    Z=             -0.1291  Tot=              4.5649
 Quadrupole moment (field-independent basis, Debye-Ang):
   XX=            -40.1568   YY=            -52.6069   ZZ=            -47.7492
   XY=            -10.6062   XZ=              4.3163   YZ=             -0.6091

 MP3-0=-419.2773223\MP4SDQ=-419.300415\CCSD=-419.298482\CCSD(T)=-419.35
 Normal termination of Gaussian 16 at Tue Jul  8 14:00:35 2025.
