 Gaussian 16, Revision A.03,
 Gaussian 16:  ES64L-G16RevA.03 25-Dec-2016

 -------------------
 # freq 6-31+g m062x
 -------------------

 -------------------
 Title Card Required
 -------------------
 Symbolic Z-matrix:
 Charge =  0 Multiplicity = 2

                         Standard orientation:
 ---------------------------------------------------------------------
 Center     Atomic      Atomic             Coordinates (Angstroms)
 Number     Number       Type             X           Y           Z
 ---------------------------------------------------------------------
      1          8           0        2.287998    1.692085   -0.321155
      2          1           0        1.477079    1.799762    0.205609
      3          6           0       -3.372916    0.214689   -0.506302
      4          1           0       -4.388877    0.287621   -0.817557
      5          6           0       -2.230756    0.132261   -0.155366
      6          6           0       -0.846356    0.085805    0.283171
      7          8           0       -0.284560    1.010611    0.808889
      8          8           0       -0.300655   -1.101403    0.036468
      9          6           0        1.066144   -1.293857    0.451814
     10          6           0        2.043703   -0.798234   -0.582147
     11          1           0        1.150251   -2.374836    0.572821
     12          1           0        1.218805   -0.812571    1.419257
     13          1           0        3.057061   -1.140902   -0.374084
     14          1           0        1.742370   -1.036571   -1.601856
     15          1           0        2.162125    0.423171   -0.544818
 ---------------------------------------------------------------------

 SCF Done:  E(UM062X) =  -419.952964507     A.U. after   21 cycles

 The electronic state is 2-A.
 Alpha  occ. eigenvalues --  -19.72574 -19.68271 -19.66344 -10.74937 -10.63580
 Alpha  occ. eigenvalues --  -10.59732 -10.59375 -10.57559  -1.29946  -1.20502
 Alpha  occ. eigenvalues --   -1.12323  -0.92754  -0.89192  -0.80367  -0.72782
 Alpha  occ. eigenvalues --   -0.66655  -0.62528  -0.60777  -0.60055  -0.57509
 Alpha  occ. eigenvalues --   -0.54194  -0.51139  -0.49871  -0.48850  -0.45406
 Alpha  occ. eigenvalues --   -0.41308  -0.40622  -0.39518  -0.38608  -0.37879
 Alpha  occ. eigenvalues --   -0.34204
 Alpha virt. eigenvalues --   -0.03279   0.01444   0.01963   0.03324   0.03509
 Alpha virt. eigenvalues --    0.04078   0.04623   0.06104   0.07223   0.07655
 Alpha virt. eigenvalues --    0.08275   0.08689   0.09397   0.11055   0.11990

  Beta  occ. eigenvalues --  -19.72573 -19.68274 -19.65081 -10.74937 -10.63601
  Beta  occ. eigenvalues --  -10.59732 -10.59375 -10.57119  -1.29943  -1.20497
  Beta  occ. eigenvalues --   -1.07775  -0.92474  -0.88798  -0.79542  -0.72284
  Beta  occ. eigenvalues --   -0.66513  -0.62492  -0.60530  -0.59527  -0.55170
  Beta  occ. eigenvalues --   -0.52509  -0.50160  -0.48899  -0.45695  -0.43343
  Beta  occ. eigenvalues --   -0.41098  -0.39865  -0.38605  -0.37804  -0.36700
  Beta virt. eigenvalues --   -0.09964  -0.03254   0.01409   0.01954   0.03318
  Beta virt. eigenvalues --    0.03473   0.04160   0.04696   0.06151   0.07181
  Beta virt. eigenvalues --    0.07727   0.08380   0.08868   0.09564   0.11225

 Mulliken charges and spin densities:
               1          2
     1  O   -0.543169   0.668273
     2  H    0.467177  -0.018004
     3  C    0.289912   0.009852
     4  H    0.350544   0.000014
     5  C    0.458267   0.021371
     6  C   -0.763646  -0.018211
     7  O   -0.443917  -0.005371
     8  O   -0.215192  -0.000438
     9  C   -0.286123  -0.041509
    10  C   -0.519129   0.476159
    11  H    0.235539   0.020523
    12  H    0.246902   0.007981
    13  H    0.236044  -0.016340
    14  H    0.241865  -0.011407
    15  H    0.244926  -0.092893
 Sum of Mulliken charges =  -0.00000   1.00000

 Dipole moment (field-independent basis, Debye):
    X=             -2.2620    Y=             -3.2918    Z=              0.1314  Tot=              3.9962
 Quadrupole moment (field-independent basis, Debye-Ang):
   XX=            -41.5703   YY=            -52.2945   ZZ=            -48.3598
   XY=             -9.8761   XZ=              4.4106   YZ=             -0.7432

  Exact polarizability:  88.870  -0.315  75.915   8.073   2.968  48.501
 Approx polarizability:  94.242   2.070  83.345  13.378   7.523  54.516

 ******    3 imaginary frequencies (negative Signs) ******

                      1                      2                      3
                      A                      A                      A
 Frequencies --  -1350.9605              -318.3309               -90.2674
 Red. masses --      1.1217                 1.1065                 5.4672
 Frc consts  --      1.2062                 0.0661                 0.0262
 IR Inten    --    989.9157               116.1990                 0.0479

                      4                      5                      6
                      A                      A                      A
 Frequencies --     41.0842                79.9282               112.7030
 Red. masses --      4.6638                 4.2847                 3.2540
 Frc consts  --      0.0046                 0.0161                 0.0244
 IR Inten    --      6.5102                10.6510                 0.9252

                      7                      8                      9
                      A                      A                      A
 Frequencies --    160.8943               256.0201               310.7983
 Red. masses --      5.9283                 3.6980                 2.9750
 Frc consts  --      0.0904                 0.1428                 0.1693
 IR Inten    --     14.9164                 2.1717                20.0974

                     10                     11                     12
                      A                      A                      A
 Frequencies --    350.9388               418.9206               574.7097
 Red. masses --      1.1709                 3.2195                 3.9992
 Frc consts  --      0.0850                 0.3329                 0.7783
 IR Inten    --     18.4189                10.8859                 0.9002

                     13                     14                     15
                      A                      A                      A
 Frequencies --    614.0317               631.2692               774.0424
 Red. masses --      2.6125                 4.5738                 1.5389
 Frc consts  --      0.5804                 1.0739                 0.5432
 IR Inten    --      8.3929                11.5384               262.0423

                     16                     17                     18
                      A                      A                      A
 Frequencies --    783.0843               817.7980               874.1471
 Red. masses --      2.9851                 1.4235                 2.1883
 Frc consts  --      1.0785                 0.5609                 0.9852
 IR Inten    --    115.0669                53.7512                12.2649

                     19                     20                     21
                      A                      A                      A
 Frequencies --    875.8726               929.5468               967.4611
 Red. masses --      2.4617                 1.7463                 1.9550
 Frc consts  --      1.1127                 0.8890                 1.0781
 IR Inten    --     17.4840                32.3127                19.1860

                     22                     23                     24
                      A                      A                      A
 Frequencies --   1130.7503              1152.6462              1190.1628
 Red. masses --      3.9030                 2.1514                 1.5827
 Frc consts  --      2.9402                 1.6841                 1.3209
 IR Inten    --     10.1076                38.2111                14.7057

                     25                     26                     27
                      A                      A                      A
 Frequencies --   1302.0832              1316.7013              1379.0986
 Red. masses --      1.0585                 1.5384                 2.2724
 Frc consts  --      1.0574                 1.5715                 2.5464
 IR Inten    --     30.7170               221.3185               373.0833

                     28                     29                     30
                      A                      A                      A
 Frequencies --   1445.0982              1477.1507              1506.6762
 Red. masses --      1.4461                 1.1511                 1.0513
 Frc consts  --      1.7793                 1.4799                 1.4061
 IR Inten    --     69.9738                17.1962               196.6988

                     31                     32                     33
                      A                      A                      A
 Frequencies --   1528.0303              1893.7204              2335.4529
 Red. masses --      1.0958                12.1852                 5.5416
 Frc consts  --      1.5075                25.7463                17.8084
 IR Inten    --     26.8441               295.2868                90.6141

                     34                     35                     36
                      A                      A                      A
 Frequencies --   3123.8742              3146.3066              3178.5271
 Red. masses --      1.0576                 1.0563                 1.1054
 Frc consts  --      6.0807                 6.1610                 6.5799
 IR Inten    --     14.0918                 5.0258                 3.0751

                     37                     38                     39
                      A                      A                      A
 Frequencies --   3229.2588              3532.7904              3787.1634
 Red. masses --      1.1068                 1.1798                 1.0653
 Frc consts  --      6.8000                 8.6757                 9.0025
 IR Inten    --      4.8386                55.1266                77.0650

 - Thermochemistry -
 -------------------
 Temperature   298.150 Kelvin.  Pressure   1.00000 Atm.
 Atom     1 has atomic number  8 and mass  15.99491

 Molecular mass:   115.03952 amu.
 Principal axes and moments of inertia in atomic units:
                           1         2         3
     Eigenvalues --   540.039191519.775741852.21519
           X            0.99969  -0.02473   0.00307
           Y            0.02475   0.99968  -0.00547
           Z           -0.00294   0.00554   0.99998
 This molecule is an asymmetric top.
 Rotational symmetry number  1.
 Warning -- assumption of classical behavior for rotation
           may cause significant error
 Rotational temperatures (Kelvin)      0.16038     0.05699     0.04676
 Rotational constants (GHZ):           3.34187     1.18750     0.97437
    3 imaginary frequencies ignored.
 Zero-point vibrational energy     282490.6 (Joules/Mol)
                                   67.51688 (Kcal/Mol)
 Warning -- explicit consideration of  10 degrees of freedom as
           vibrations may cause significant error
 Vibrational temperatures:     59.11   115.00   162.15   231.49   368.36
          (Kelvin)            447.17   504.92   602.73   826.88   883.45
                              908.26  1113.67  1126.68  1176.63  1257.70
                             1260.19  1337.41  1391.96  1626.90  1658.40
                             1712.38  1873.41  1894.44  1984.22  2079.17
                             2125.29  2167.77  2198.49  2724.64  3360.20
                             4494.56  4526.83  4573.19  4646.18  5082.90
                             5448.88

 Zero-point correction=                           0.107595 (Hartree/Particle)
 Thermal correction to Energy=                    0.115960
 Thermal correction to Enthalpy=                  0.116904
 Thermal correction to Gibbs Free Energy=         0.072687
 Sum of electronic and zero-point Energies=           -419.845370
 Sum of electronic and thermal Energies=              -419.837004
 Sum of electronic and thermal Enthalpies=            -419.836060
 Sum of electronic and thermal Free Energies=         -419.880278

                     E (Thermal)             CV                S
                      KCal/Mol        Cal/Mol-Kelvin    Cal/Mol-Kelvin
 Total                   72.766             28.577             93.063
 Electronic               0.000              0.000              1.377
 Translational            0.889              2.981             40.136
 Rotational               0.889              2.981             28.810
 Vibrational             70.989             22.615             22.741
 Vibration     1          0.594              1.981              5.206
 Vibration     2          0.600              1.963              3.893
 Vibration     3          0.607              1.939              3.222
 Vibration     4          0.622              1.890              2.539
 Vibration     5          0.666              1.753              1.689
 Vibration     6          0.700              1.653              1.358
 Vibration     7          0.728              1.573              1.162
 Vibration     8          0.782              1.429              0.896
 Vibration     9          0.931              1.086              0.495
 Vibration    10          0.973              1.002              0.426

 Normal termination of Gaussian 16 at Fri Jun 20 12:53:05 2025.
