 Gaussian 16, Revision A.03,
 Gaussian 16:  ES64L-G16RevA.03 25-Dec-2016

 -------------------
 # freq 6-31+g m062x
 -------------------

 -------------------
 Title Card Required
 -------------------
 Symbolic Z-matrix:
 Charge =  0 Multiplicity = 2

                         Standard orientation:
 ---------------------------------------------------------------------
 Center     Atomic      Atomic             Coordinates (Angstroms)
 Number     Number       Type             X           Y           Z
 ---------------------------------------------------------------------
      1          8           0        2.288347    1.715545   -0.321897
      2          1           0        1.470477    1.800714    0.203688
      3          6           0       -3.372718    0.211649   -0.507161
      4          1           0       -4.388671    0.282382   -0.818877
      5          6           0       -2.230525    0.131549   -0.155667
      6          6           0       -0.845553    0.086304    0.282662
      7          8           0       -0.284629    1.015153    0.805460
      8          8           0       -0.300297   -1.099083    0.040239
      9          6           0        1.067994   -1.293612    0.457201
     10          6           0        2.045370   -0.804618   -0.582625
     11          1           0        1.145680   -2.372619    0.585421
     12          1           0        1.218518   -0.804833    1.420909
     13          1           0        3.050505   -1.170886   -0.370884
     14          1           0        1.744816   -1.088980   -1.591578
     15          1           0        2.143907    0.313670   -0.585556
 ---------------------------------------------------------------------

 SCF Done:  E(UM062X) =  -419.956285306     A.U. after   22 cycles

 The electronic state is 2-A.
 Alpha  occ. eigenvalues --  -19.72337 -19.68160 -19.68136 -10.74819 -10.62963
 Alpha  occ. eigenvalues --  -10.59637 -10.59285 -10.55852  -1.29744  -1.20271
 Alpha  occ. eigenvalues --   -1.13338  -0.92438  -0.88905  -0.80115  -0.72580
 Alpha  occ. eigenvalues --   -0.66268  -0.62433  -0.60569  -0.59703  -0.57179
 Alpha  occ. eigenvalues --   -0.53960  -0.51439  -0.49555  -0.48577  -0.44951
 Alpha  occ. eigenvalues --   -0.41325  -0.40957  -0.40271  -0.38531  -0.37798
 Alpha  occ. eigenvalues --   -0.37068
 Alpha virt. eigenvalues --   -0.03178   0.01609   0.02024   0.03472   0.03677
 Alpha virt. eigenvalues --    0.04143   0.04697   0.06198   0.07322   0.07783
 Alpha virt. eigenvalues --    0.08469   0.08642   0.09456   0.11098   0.12097

  Beta  occ. eigenvalues --  -19.72337 -19.68140 -19.66654 -10.74820 -10.62975
  Beta  occ. eigenvalues --  -10.59637 -10.59285 -10.55576  -1.29743  -1.20268
  Beta  occ. eigenvalues --   -1.07149  -0.92276  -0.88641  -0.79563  -0.72242
  Beta  occ. eigenvalues --   -0.66190  -0.62405  -0.60372  -0.59303  -0.55142
  Beta  occ. eigenvalues --   -0.52019  -0.49916  -0.48292  -0.45857  -0.43202
  Beta  occ. eigenvalues --   -0.40978  -0.39750  -0.38534  -0.37761  -0.37572
  Beta virt. eigenvalues --   -0.09321  -0.03154   0.01619   0.02022   0.03487
  Beta virt. eigenvalues --    0.03673   0.04258   0.04785   0.06248   0.07330
  Beta virt. eigenvalues --    0.07861   0.08555   0.08824   0.09668   0.11289

 Mulliken charges and spin densities:
               1          2
     1  O   -0.467893   0.844080
     2  H    0.465265  -0.026641
     3  C    0.284712   0.009325
     4  H    0.350056   0.000007
     5  C    0.451934   0.017144
     6  C   -0.755537  -0.019301
     7  O   -0.445164  -0.001851
     8  O   -0.215171  -0.000522
     9  C   -0.283137  -0.023932
    10  C   -0.531979   0.270736
    11  H    0.229593   0.009793
    12  H    0.240947   0.003856
    13  H    0.227868  -0.008413
    14  H    0.233927  -0.004231
    15  H    0.214579  -0.070052
 Sum of Mulliken charges =  -0.00000   1.00000

 Dipole moment (field-independent basis, Debye):
    X=             -2.1355    Y=             -2.6579    Z=              0.1575  Tot=              3.4132
 Quadrupole moment (field-independent basis, Debye-Ang):
   XX=            -41.3674   YY=            -51.3365   ZZ=            -48.5195
   XY=             -8.2681   XZ=              4.5286   YZ=             -0.9411

  Exact polarizability:  88.575  -1.663  71.061   8.146   2.913  48.401
 Approx polarizability:  93.946   0.811  76.200  13.370   7.168  54.219

 ******    5 imaginary frequencies (negative Signs) ******

                      1                      2                      3
                      A                      A                      A
 Frequencies --   -346.5894              -273.9867              -169.1454
 Red. masses --      1.2676                 1.7200                 2.6255
 Frc consts  --      0.0897                 0.0761                 0.0443
 IR Inten    --     45.1309                84.7156                10.0041

                      4                      5                      6
                      A                      A                      A
 Frequencies --    -78.1957               -36.0849                74.4255
 Red. masses --      3.6659                 2.5644                 3.2182
 Frc consts  --      0.0132                 0.0020                 0.0105
 IR Inten    --     11.5388                 5.4031                31.1663

                      7                      8                      9
                      A                      A                      A
 Frequencies --     91.3636               176.0756               255.8425
 Red. masses --      3.5033                 3.1492                 3.7250
 Frc consts  --      0.0172                 0.0575                 0.1437
 IR Inten    --      1.0501                13.6782                 2.3549

                     10                     11                     12
                      A                      A                      A
 Frequencies --    310.4700               406.8942               569.0317
 Red. masses --      3.6628                 3.3529                 3.6681
 Frc consts  --      0.2080                 0.3271                 0.6998
 IR Inten    --     14.8843                10.6449                12.5966

                     13                     14                     15
                      A                      A                      A
 Frequencies --    607.3915               627.7545               782.5995
 Red. masses --      1.3678                 4.6430                 3.2303
 Frc consts  --      0.2973                 1.0780                 1.1657
 IR Inten    --    142.8438                43.4469                76.1711

                     16                     17                     18
                      A                      A                      A
 Frequencies --    816.0177               834.9886               874.6752
 Red. masses --      1.4074                 1.2984                 1.8815
 Frc consts  --      0.5522                 0.5334                 0.8481
 IR Inten    --     39.0869                56.4628                18.8982

                     19                     20                     21
                      A                      A                      A
 Frequencies --    896.4180               951.4532              1121.1381
 Red. masses --      2.9680                 2.6763                 3.6636
 Frc consts  --      1.4052                 1.4275                 2.7132
 IR Inten    --     30.5338                12.6933                 2.8210

                     22                     23                     24
                      A                      A                      A
 Frequencies --   1138.8211              1189.1789              1325.6678
 Red. masses --      2.2142                 1.8462                 1.5450
 Frc consts  --      1.6919                 1.5383                 1.5998
 IR Inten    --     27.8263                12.7876               190.4084

                     25                     26                     27
                      A                      A                      A
 Frequencies --   1373.4629              1393.1409              1444.7184
 Red. masses --      1.8809                 1.1053                 1.4167
 Frc consts  --      2.0905                 1.2639                 1.7422
 IR Inten    --    346.0904                10.5418                93.6631

                     28                     29                     30
                      A                      A                      A
 Frequencies --   1458.4052              1483.4927              1536.2441
 Red. masses --      1.3424                 1.0759                 1.1001
 Frc consts  --      1.6823                 1.3950                 1.5296
 IR Inten    --     28.9926                 4.7857                25.1011

                     31                     32                     33
                      A                      A                      A
 Frequencies --   1886.2528              2202.7944              2335.0318
 Red. masses --     11.6429                 1.0985                 5.5424
 Frc consts  --     24.4068                 3.1404                17.8045
 IR Inten    --    252.3978              1000.7747                89.3347

                     34                     35                     36
                      A                      A                      A
 Frequencies --   3132.9213              3138.1695              3190.5468
 Red. masses --      1.0582                 1.0583                 1.1059
 Frc consts  --      6.1197                 6.1405                 6.6326
 IR Inten    --     16.5348                11.6409                 7.0293

                     37                     38                     39
                      A                      A                      A
 Frequencies --   3210.8188              3532.9438              3742.5950
 Red. masses --      1.1032                 1.1797                 1.0660
 Frc consts  --      6.7008                 8.6758                 8.7972
 IR Inten    --      8.9066                55.0393                82.1405

 - Thermochemistry -
 -------------------
 Temperature   298.150 Kelvin.  Pressure   1.00000 Atm.
 Atom     1 has atomic number  8 and mass  15.99491

 Molecular mass:   115.03952 amu.
 Principal axes and moments of inertia in atomic units:
                           1         2         3
     Eigenvalues --   545.464581519.840621857.49090
           X            0.99965  -0.02631   0.00295
           Y            0.02632   0.99964  -0.00422
           Z           -0.00284   0.00430   0.99999
 This molecule is an asymmetric top.
 Rotational symmetry number  1.
 Warning -- assumption of classical behavior for rotation
           may cause significant error
 Rotational temperatures (Kelvin)      0.15879     0.05699     0.04663
 Rotational constants (GHZ):           3.30863     1.18745     0.97160
    5 imaginary frequencies ignored.
 Zero-point vibrational energy     287772.1 (Joules/Mol)
                                   68.77919 (Kcal/Mol)
 Warning -- explicit consideration of   8 degrees of freedom as
           vibrations may cause significant error
 Vibrational temperatures:    107.08   131.45   253.33   368.10   446.70
          (Kelvin)            585.43   818.71   873.90   903.20  1125.99
                             1174.07  1201.36  1258.46  1289.75  1368.93
                             1613.07  1638.51  1710.96  1907.34  1976.11
                             2004.42  2078.63  2098.32  2134.42  2210.31
                             2713.90  3169.33  3359.59  4507.57  4515.13
                             4590.49  4619.65  5083.12  5384.76

 Zero-point correction=                           0.109607 (Hartree/Particle)
 Thermal correction to Energy=                    0.116737
 Thermal correction to Enthalpy=                  0.117682
 Thermal correction to Gibbs Free Energy=         0.076354
 Sum of electronic and zero-point Energies=           -419.846679
 Sum of electronic and thermal Energies=              -419.839548
 Sum of electronic and thermal Enthalpies=            -419.838604
 Sum of electronic and thermal Free Energies=         -419.879932

                     E (Thermal)             CV                S
                      KCal/Mol        Cal/Mol-Kelvin    Cal/Mol-Kelvin
 Total                   73.254             24.511             86.982
 Electronic               0.000              0.000              1.377
 Translational            0.889              2.981             40.136
 Rotational               0.889              2.981             28.823
 Vibrational             71.476             18.549             16.646
 Vibration     1          0.599              1.966              4.033
 Vibration     2          0.602              1.955              3.631
 Vibration     3          0.628              1.872              2.370
 Vibration     4          0.666              1.753              1.690
 Vibration     5          0.699              1.654              1.360
 Vibration     6          0.772              1.455              0.938
 Vibration     7          0.925              1.098              0.506
 Vibration     8          0.966              1.016              0.437

 Normal termination of Gaussian 16 at Fri Jun 20 13:02:50 2025.
