 Gaussian 16, Revision A.03,
 Gaussian 16:  ES64L-G16RevA.03 25-Dec-2016

 --------------------------
 # freq 6-311++g(d,p) m062x
 --------------------------

 -------------------
 Title Card Required
 -------------------
 Symbolic Z-matrix:
 Charge =  0 Multiplicity = 2

                         Standard orientation:
 ---------------------------------------------------------------------
 Center     Atomic      Atomic             Coordinates (Angstroms)
 Number     Number       Type             X           Y           Z
 ---------------------------------------------------------------------
      1          8           0        2.287865    1.698150   -0.321499
      2          1           0        1.474583    1.799762    0.205172
      3          6           0       -3.372885    0.213463   -0.506542
      4          1           0       -4.388851    0.285650   -0.817919
      5          6           0       -2.230705    0.131831   -0.155464
      6          6           0       -0.846153    0.085872    0.283021
      7          8           0       -0.284767    1.011906    0.808055
      8          8           0       -0.300343   -1.100672    0.037451
      9          6           0        1.066957   -1.293377    0.453165
     10          6           0        2.044467   -0.797024   -0.581943
     11          1           0        1.149680   -2.373603    0.575659
     12          1           0        1.218710   -0.810258    1.419713
     13          1           0        3.055199   -1.148489   -0.373746
     14          1           0        1.743455   -1.048133   -1.599014
     15          1           0        2.155089    0.375410   -0.555339
 ---------------------------------------------------------------------

 SCF Done:  E(UM062X) =  -420.201054240     A.U. after   20 cycles

 The electronic state is 2-A.
 Alpha  occ. eigenvalues --  -19.69946 -19.64860 -19.64465 -10.72384 -10.62228
 Alpha  occ. eigenvalues --  -10.58030 -10.57553 -10.56086  -1.27358  -1.18030
 Alpha  occ. eigenvalues --   -1.11453  -0.91827  -0.88260  -0.79655  -0.72015
 Alpha  occ. eigenvalues --   -0.66141  -0.62138  -0.60640  -0.59280  -0.56941
 Alpha  occ. eigenvalues --   -0.53777  -0.51169  -0.49542  -0.48655  -0.45310
 Alpha  occ. eigenvalues --   -0.41154  -0.40597  -0.40100  -0.38218  -0.37387
 Alpha  occ. eigenvalues --   -0.35336
 Alpha virt. eigenvalues --   -0.02905  -0.00482   0.00399   0.01635   0.02323
 Alpha virt. eigenvalues --    0.02907   0.03394   0.04975   0.05574   0.06435
 Alpha virt. eigenvalues --    0.06684   0.07344   0.07796   0.09271   0.10050

  Beta  occ. eigenvalues --  -19.69946 -19.64863 -19.63146 -10.72384 -10.62242
  Beta  occ. eigenvalues --  -10.58030 -10.57553 -10.55735  -1.27355  -1.18025
  Beta  occ. eigenvalues --   -1.06121  -0.91571  -0.87883  -0.78924  -0.71539
  Beta  occ. eigenvalues --   -0.66039  -0.62097  -0.60430  -0.58718  -0.54516
  Beta  occ. eigenvalues --   -0.52040  -0.49833  -0.48381  -0.45987  -0.43129
  Beta  occ. eigenvalues --   -0.40967  -0.39887  -0.38223  -0.37365  -0.37122
  Beta virt. eigenvalues --   -0.09747  -0.02882  -0.00423   0.00422   0.01747
  Beta virt. eigenvalues --    0.02516   0.03040   0.03405   0.05347   0.05659
  Beta virt. eigenvalues --    0.06526   0.06959   0.07472   0.07843   0.09489

 Mulliken charges and spin densities:
               1          2
     1  O   -0.334039   0.712464
     2  H    0.266225  -0.005666
     3  C   -0.636267  -0.001114
     4  H    0.182059  -0.000017
     5  C    1.218755   0.006172
     6  C   -0.659339   0.006964
     7  O   -0.273366  -0.003490
     8  O    0.027012   0.000007
     9  C   -0.420257  -0.032535
    10  C   -0.453835   0.360340
    11  H    0.198829   0.016844
    12  H    0.232024   0.005900
    13  H    0.182501  -0.010924
    14  H    0.199892  -0.004077
    15  H    0.269804  -0.050868
 Sum of Mulliken charges =  -0.00000   1.00000

 Dipole moment (field-independent basis, Debye):
    X=             -1.9568    Y=             -3.0131    Z=             -0.0249  Tot=              3.5928
 Quadrupole moment (field-independent basis, Debye-Ang):
   XX=            -40.3853   YY=            -50.8836   ZZ=            -47.9270
   XY=             -8.3207   XZ=              4.1360   YZ=             -0.6986

  Exact polarizability:  93.272  -0.639  78.502   7.698   2.515  52.125
 Approx polarizability: 100.165   1.123  87.406  12.297   6.092  63.082

 ******    2 imaginary frequencies (negative Signs) ******

                      1                      2                      3
                      A                      A                      A
 Frequencies --   -995.0103                -5.8247                87.9644
 Red. masses --      1.3300                 7.8561                 3.7664
 Frc consts  --      0.7758                 0.0002                 0.0172
 IR Inten    --    873.7420                 1.9750                 3.5809

                      4                      5                      6
                      A                      A                      A
 Frequencies --    106.2350               157.6884               188.1800
 Red. masses --      4.6081                 4.3675                 5.1516
 Frc consts  --      0.0306                 0.0640                 0.1075
 IR Inten    --      2.7047                 0.2744                 9.3300

                      7                      8                      9
                      A                      A                      A
 Frequencies --    272.4489               288.7707               340.0295
 Red. masses --      4.1509                 1.1998                 2.6777
 Frc consts  --      0.1815                 0.0589                 0.1824
 IR Inten    --      3.4781                 3.4785                15.3022

                     10                     11                     12
                      A                      A                      A
 Frequencies --    415.1829               428.7348               566.9248
 Red. masses --      1.2169                 2.5829                 4.0185
 Frc consts  --      0.1236                 0.2797                 0.7610
 IR Inten    --     80.1246                10.9960                 1.2187

                     13                     14                     15
                      A                      A                      A
 Frequencies --    610.7533               700.1781               746.8728
 Red. masses --      7.1594                 1.3353                 1.3142
 Frc consts  --      1.5735                 0.3857                 0.4319
 IR Inten    --     10.4394                15.9540                38.9341

                     16                     17                     18
                      A                      A                      A
 Frequencies --    779.8629               789.2316               875.0934
 Red. masses --      1.4641                 5.5373                 2.5012
 Frc consts  --      0.5246                 2.0322                 1.1285
 IR Inten    --     17.9713                46.1608                11.8414

                     19                     20                     21
                      A                      A                      A
 Frequencies --    913.3331               938.6234              1008.4594
 Red. masses --      1.7023                 2.5471                 1.8538
 Frc consts  --      0.8366                 1.3221                 1.1108
 IR Inten    --     94.6953               169.9974               244.2140

                     22                     23                     24
                      A                      A                      A
 Frequencies --   1089.9607              1131.4915              1185.5143
 Red. masses --      3.4970                 2.2458                 1.4425
 Frc consts  --      2.4478                 1.6940                 1.1945
 IR Inten    --     40.2400                68.4085                 9.6602

                     25                     26                     27
                      A                      A                      A
 Frequencies --   1292.8696              1312.3315              1353.9710
 Red. masses --      2.3296                 1.0817                 1.5604
 Frc consts  --      2.2942                 1.0976                 1.6854
 IR Inten    --    455.8804                14.9413               271.5511

                     28                     29                     30
                      A                      A                      A
 Frequencies --   1413.5852              1431.5512              1460.2673
 Red. masses --      1.1828                 1.3432                 1.0703
 Frc consts  --      1.3925                 1.6218                 1.3447
 IR Inten    --     63.0042                59.2919                64.2488

                     31                     32                     33
                      A                      A                      A
 Frequencies --   1499.3033              1823.5450              2271.9477
 Red. masses --      1.1022                11.7965                 5.7387
 Frc consts  --      1.4598                23.1119                17.4526
 IR Inten    --     22.6268               347.8718                87.6054

                     34                     35                     36
                      A                      A                      A
 Frequencies --   3098.6618              3106.1222              3150.6166
 Red. masses --      1.0579                 1.0570                 1.1081
 Frc consts  --      5.9849                 6.0083                 6.4806
 IR Inten    --     13.8612                 5.5752                 3.3719

                     37                     38                     39
                      A                      A                      A
 Frequencies --   3181.0447              3490.2555              3749.4910
 Red. masses --      1.1073                 1.1715                 1.0664
 Frc consts  --      6.6016                 8.4086                 8.8333
 IR Inten    --      4.6368                63.2877               137.5678

 - Thermochemistry -
 -------------------
 Temperature   298.150 Kelvin.  Pressure   1.00000 Atm.
 Atom     1 has atomic number  8 and mass  15.99491

 Molecular mass:   115.03952 amu.
 Principal axes and moments of inertia in atomic units:
                           1         2         3
     Eigenvalues --   541.060521519.789311853.21550
           X            0.99968  -0.02527   0.00304
           Y            0.02529   0.99967  -0.00505
           Z           -0.00291   0.00512   0.99998
 This molecule is an asymmetric top.
 Rotational symmetry number  1.
 Warning -- assumption of classical behavior for rotation
           may cause significant error
 Rotational temperatures (Kelvin)      0.16008     0.05699     0.04674
 Rotational constants (GHZ):           3.33556     1.18749     0.97384
    2 imaginary frequencies ignored.
 Zero-point vibrational energy     282660.2 (Joules/Mol)
                                   67.55741 (Kcal/Mol)
 Warning -- explicit consideration of  11 degrees of freedom as
           vibrations may cause significant error
 Vibrational temperatures:    126.56   152.85   226.88   270.75   391.99
          (Kelvin)            415.48   489.23   597.36   616.85   815.68
                              878.74  1007.40  1074.58  1122.05  1135.53
                             1259.06  1314.08  1350.47  1450.95  1568.21
                             1627.96  1705.69  1860.15  1888.15  1948.06
                             2033.83  2059.68  2101.00  2157.16  2623.67
                             3268.83  4458.28  4469.02  4533.03  4576.81
                             5021.70  5394.68

 Zero-point correction=                           0.107660 (Hartree/Particle)
 Thermal correction to Energy=                    0.116045
 Thermal correction to Enthalpy=                  0.116989
 Thermal correction to Gibbs Free Energy=         0.073763
 Sum of electronic and zero-point Energies=           -420.093395
 Sum of electronic and thermal Energies=              -420.085009
 Sum of electronic and thermal Enthalpies=            -420.084065
 Sum of electronic and thermal Free Energies=         -420.127291

                     E (Thermal)             CV                S
                      KCal/Mol        Cal/Mol-Kelvin    Cal/Mol-Kelvin
 Total                   72.819             29.903             90.976
 Electronic               0.000              0.000              1.377
 Translational            0.889              2.981             40.136
 Rotational               0.889              2.981             28.812
 Vibrational             71.042             23.941             20.651
 Vibration     1          0.601              1.958              3.705
 Vibration     2          0.605              1.944              3.337
 Vibration     3          0.621              1.894              2.577
 Vibration     4          0.633              1.856              2.246
 Vibration     5          0.675              1.724              1.581
 Vibration     6          0.685              1.695              1.481
 Vibration     7          0.720              1.595              1.212
 Vibration     8          0.779              1.437              0.908
 Vibration     9          0.790              1.408              0.863
 Vibration    10          0.923              1.103              0.510
 Vibration    11          0.970              1.009              0.432

 1\1\GINC-AJ\Freq\UM062X\6-311++G(d,p)\C5H7O3(2)\AAYUSH\23-Jun-2025\0\\
 # freq 6-311++g(d,p) m062x\\Title Card Required\\0,2\O,2.287865,1.6981
 5,-0.321499\H,1.474583,1.799762,0.205172\C,-3.372885,0.213463,-0.50654
 2\H,-4.388851,0.28565,-0.817919\C,-2.230705,0.131831,-0.155464\C,-0.84
 6153,0.085872,0.283021\O,-0.284767,1.011906,0.808055\O,-0.300343,-1.10
 0672,0.037451\C,1.066957,-1.293377,0.453165\C,2.044467,-0.797024,-0.58
 1943\H,1.14968,-2.373603,0.575659\H,1.21871,-0.810258,1.419713\H,3.055
 199,-1.148489,-0.373746\H,1.743455,-1.048133,-1.599014\H,2.155089,0.37

 Normal termination of Gaussian 16 at Mon Jun 23 02:16:22 2025.
