 Gaussian 16, Revision A.03,
 Gaussian 16:  ES64L-G16RevA.03 25-Dec-2016

 -------------------
 # freq 6-31+g m062x
 -------------------

 -------------------
 Title Card Required
 -------------------
 Symbolic Z-matrix:
 Charge =  0 Multiplicity = 2

                         Standard orientation:
 ---------------------------------------------------------------------
 Center     Atomic      Atomic             Coordinates (Angstroms)
 Number     Number       Type             X           Y           Z
 ---------------------------------------------------------------------
      1          8           0        2.289027    1.676418   -0.320027
      2          1           0        1.486428    1.803829    0.206494
      3          6           0       -3.372949    0.219228   -0.505651
      4          1           0       -4.388857    0.294582   -0.816593
      5          6           0       -2.230884    0.134168   -0.155073
      6          6           0       -0.846843    0.085493    0.283497
      7          8           0       -0.283388    1.007157    0.810799
      8          8           0       -0.302307   -1.103492    0.034113
      9          6           0        1.063341   -1.296346    0.448504
     10          6           0        2.040550   -0.810231   -0.583405
     11          1           0        1.149286   -2.379623    0.567199
     12          1           0        1.218471   -0.819322    1.418300
     13          1           0        3.061777   -1.123056   -0.373965
     14          1           0        1.738122   -1.011957   -1.609361
     15          1           0        2.188831    0.601008   -0.518386
 ---------------------------------------------------------------------

 SCF Done:  E(UM062X) =  -419.955476462     A.U. after   22 cycles

 The electronic state is 2-A.
 Alpha  occ. eigenvalues --  -19.72900 -19.68471 -19.63445 -10.75119 -10.64299
 Alpha  occ. eigenvalues --  -10.59866 -10.59504 -10.59149  -1.30230  -1.20797
 Alpha  occ. eigenvalues --   -1.11964  -0.93213  -0.89545  -0.80640  -0.73007
 Alpha  occ. eigenvalues --   -0.67157  -0.62655  -0.61162  -0.60532  -0.57850
 Alpha  occ. eigenvalues --   -0.54929  -0.52012  -0.50560  -0.47095  -0.45904
 Alpha  occ. eigenvalues --   -0.41510  -0.40886  -0.38773  -0.38010  -0.37660
 Alpha  occ. eigenvalues --   -0.31639
 Alpha virt. eigenvalues --   -0.03428   0.01224   0.01887   0.03093   0.03337
 Alpha virt. eigenvalues --    0.03948   0.04565   0.05979   0.07126   0.07470
 Alpha virt. eigenvalues --    0.08062   0.08746   0.09419   0.10995   0.11874

  Beta  occ. eigenvalues --  -19.72898 -19.68470 -19.62710 -10.75119 -10.64338
  Beta  occ. eigenvalues --  -10.59866 -10.59503 -10.58490  -1.30223  -1.20783
  Beta  occ. eigenvalues --   -1.09441  -0.92726  -0.88969  -0.79403  -0.72249
  Beta  occ. eigenvalues --   -0.66904  -0.62611  -0.60782  -0.59896  -0.55427
  Beta  occ. eigenvalues --   -0.53858  -0.50947  -0.49557  -0.45780  -0.43613
  Beta  occ. eigenvalues --   -0.41348  -0.40180  -0.38724  -0.37931  -0.36282
  Beta virt. eigenvalues --   -0.09194  -0.03401   0.01091   0.01878   0.03003
  Beta virt. eigenvalues --    0.03291   0.03982   0.04554   0.05995   0.06994
  Beta virt. eigenvalues --    0.07528   0.08161   0.08867   0.09493   0.11077

 Mulliken charges and spin densities:
               1          2
     1  O   -0.685919   0.340209
     2  H    0.474036  -0.004240
     3  C    0.306787   0.006409
     4  H    0.351163   0.000026
     5  C    0.484108   0.021242
     6  C   -0.798896  -0.012285
     7  O   -0.444770  -0.005857
     8  O   -0.216166  -0.000060
     9  C   -0.299972  -0.071241
    10  C   -0.482632   0.807256
    11  H    0.243651   0.038358
    12  H    0.253798   0.015008
    13  H    0.238738  -0.032019
    14  H    0.244193  -0.026523
    15  H    0.331880  -0.076284
 Sum of Mulliken charges =  -0.00000   1.00000

 Dipole moment (field-independent basis, Debye):
    X=             -2.4506    Y=             -4.0837    Z=              0.0957  Tot=              4.7635
 Quadrupole moment (field-independent basis, Debye-Ang):
   XX=            -41.9525   YY=            -53.6937   ZZ=            -48.1255
   XY=            -11.9347   XZ=              4.2619   YZ=             -0.5411

  Exact polarizability:  88.942  -0.927  71.270   7.839   2.744  48.742
 Approx polarizability:  94.331   1.879  79.720  13.228   7.188  54.793

 ******    3 imaginary frequencies (negative Signs) ******

                      1                      2                      3
                      A                      A                      A
 Frequencies --   -906.1190              -342.0532               -94.9614
 Red. masses --      1.3407                 1.0680                 5.6041
 Frc consts  --      0.6485                 0.0736                 0.0298
 IR Inten    --    240.7064                88.7297                 0.1499

                      4                      5                      6
                      A                      A                      A
 Frequencies --     38.4323                77.9552               126.0967
 Red. masses --      4.6640                 4.2234                 3.3485
 Frc consts  --      0.0041                 0.0151                 0.0314
 IR Inten    --      5.9608                 7.8237                 1.2829

                      7                      8                      9
                      A                      A                      A
 Frequencies --    175.7696               254.0188               313.1549
 Red. masses --      6.0963                 3.6446                 3.2029
 Frc consts  --      0.1110                 0.1386                 0.1851
 IR Inten    --     10.4494                 2.4831                16.3243

                     10                     11                     12
                      A                      A                      A
 Frequencies --    391.4486               429.0085               559.8145
 Red. masses --      1.5178                 1.8848                 2.6643
 Frc consts  --      0.1370                 0.2044                 0.4920
 IR Inten    --     23.1194                33.6601                14.4258

                     13                     14                     15
                      A                      A                      A
 Frequencies --    611.4696               627.7453               688.9678
 Red. masses --      1.4843                 5.5607                 1.9708
 Frc consts  --      0.3270                 1.2911                 0.5512
 IR Inten    --     59.0151                18.5126                25.8563

                     16                     17                     18
                      A                      A                      A
 Frequencies --    781.8283               818.6366               857.5077
 Red. masses --      3.3088                 1.4265                 2.3270
 Frc consts  --      1.1916                 0.5633                 1.0081
 IR Inten    --     66.3024                60.7212                17.2472

                     19                     20                     21
                      A                      A                      A
 Frequencies --    875.0668               903.1075               962.9517
 Red. masses --      1.8411                 1.8180                 2.3637
 Frc consts  --      0.8307                 0.8736                 1.2913
 IR Inten    --     22.1473                22.4286                 5.9518

                     22                     23                     24
                      A                      A                      A
 Frequencies --    985.8618              1132.7586              1154.7877
 Red. masses --      1.1805                 4.0056                 1.8901
 Frc consts  --      0.6760                 3.0283                 1.4850
 IR Inten    --     90.0789                 4.2960                 3.7339

                     25                     26                     27
                      A                      A                      A
 Frequencies --   1231.0768              1307.5245              1373.6920
 Red. masses --      1.6363                 1.4950                 2.4764
 Frc consts  --      1.4611                 1.5058                 2.7532
 IR Inten    --      2.8999               196.4672               393.0657

                     28                     29                     30
                      A                      A                      A
 Frequencies --   1436.8890              1470.8259              1515.1621
 Red. masses --      1.4585                 1.1335                 1.0974
 Frc consts  --      1.7742                 1.4447                 1.4843
 IR Inten    --     71.4351                10.2826                30.9871

                     31                     32                     33
                      A                      A                      A
 Frequencies --   1722.6787              1898.6092              2335.5633
 Red. masses --      1.0648                11.7383                 5.5403
 Frc consts  --      1.8617                24.9303                17.8060
 IR Inten    --    278.6048               270.4768                91.9151

                     34                     35                     36
                      A                      A                      A
 Frequencies --   3105.6212              3156.7460              3164.7282
 Red. masses --      1.0586                 1.0690                 1.0868
 Frc consts  --      6.0158                 6.2765                 6.4133
 IR Inten    --     11.2232                 1.4997                 3.8077

                     37                     38                     39
                      A                      A                      A
 Frequencies --   3252.7348              3532.5844              3849.7202
 Red. masses --      1.1100                 1.1799                 1.0636
 Frc consts  --      6.9194                 8.6753                 9.2872
 IR Inten    --      2.7180                55.3333                73.7901

 - Thermochemistry -
 -------------------
 Temperature   298.150 Kelvin.  Pressure   1.00000 Atm.
 Atom     1 has atomic number  8 and mass  15.99491

 Molecular mass:   115.03952 amu.
 Principal axes and moments of inertia in atomic units:
                           1         2         3
     Eigenvalues --   538.720231519.765321850.92574
           X            0.99973  -0.02292   0.00316
           Y            0.02294   0.99971  -0.00680
           Z           -0.00300   0.00687   0.99997
 This molecule is an asymmetric top.
 Rotational symmetry number  1.
 Warning -- assumption of classical behavior for rotation
           may cause significant error
 Rotational temperatures (Kelvin)      0.16078     0.05699     0.04679
 Rotational constants (GHZ):           3.35005     1.18751     0.97505
    3 imaginary frequencies ignored.
 Zero-point vibrational energy     281843.4 (Joules/Mol)
                                   67.36220 (Kcal/Mol)
 Warning -- explicit consideration of  10 degrees of freedom as
           vibrations may cause significant error
 Vibrational temperatures:     55.30   112.16   181.43   252.89   365.48
          (Kelvin)            450.56   563.21   617.25   805.45   879.77
                              903.19   991.27  1124.88  1177.84  1233.76
                             1259.03  1299.37  1385.47  1418.44  1629.79
                             1661.48  1771.24  1881.24  1976.44  2067.36
                             2116.19  2179.98  2478.55  2731.68  3360.35
                             4468.30  4541.85  4553.34  4679.96  5082.60
                             5538.89

 Zero-point correction=                           0.107348 (Hartree/Particle)
 Thermal correction to Energy=                    0.115698
 Thermal correction to Enthalpy=                  0.116642
 Thermal correction to Gibbs Free Energy=         0.072515
 Sum of electronic and zero-point Energies=           -419.848128
 Sum of electronic and thermal Energies=              -419.839778
 Sum of electronic and thermal Enthalpies=            -419.838834
 Sum of electronic and thermal Free Energies=         -419.882962

                     E (Thermal)             CV                S
                      KCal/Mol        Cal/Mol-Kelvin    Cal/Mol-Kelvin
 Total                   72.602             28.899             92.874
 Electronic               0.000              0.000              1.377
 Translational            0.889              2.981             40.136
 Rotational               0.889              2.981             28.807
 Vibrational             70.824             22.937             22.555
 Vibration     1          0.594              1.982              5.338
 Vibration     2          0.599              1.964              3.942
 Vibration     3          0.611              1.927              3.005
 Vibration     4          0.628              1.872              2.373
 Vibration     5          0.665              1.756              1.703
 Vibration     6          0.701              1.649              1.346
 Vibration     7          0.759              1.488              0.995
 Vibration     8          0.790              1.407              0.862
 Vibration     9          0.915              1.118              0.524
 Vibration    10          0.971              1.008              0.430

 Normal termination of Gaussian 16 at Fri Jun 20 12:48:12 2025.
