 Gaussian 16, Revision A.03,
 Gaussian 16:  ES64L-G16RevA.03 25-Dec-2016

 --------------------------
 # freq 6-311++g(d,p) m062x
 --------------------------

 -------------------
 Title Card Required
 -------------------
 Symbolic Z-matrix:
 Charge =  0 Multiplicity = 2

                         Standard orientation:
 ---------------------------------------------------------------------
 Center     Atomic      Atomic             Coordinates (Angstroms)
 Number     Number       Type             X           Y           Z
 ---------------------------------------------------------------------
      1          8           0        2.288586    1.720198   -0.321911
      2          1           0        1.469785    1.801070    0.203318
      3          6           0       -3.372663    0.211376   -0.507315
      4          1           0       -4.388610    0.281810   -0.819117
      5          6           0       -2.230473    0.131595   -0.155711
      6          6           0       -0.845408    0.086508    0.282585
      7          8           0       -0.284501    1.015948    0.804722
      8          8           0       -0.300372   -1.098766    0.040982
      9          6           0        1.068042   -1.293853    0.458323
     10          6           0        2.045444   -0.807951   -0.583038
     11          1           0        1.144399   -2.372625    0.588353
     12          1           0        1.218606   -0.803427    1.421151
     13          1           0        3.049633   -1.175948   -0.369664
     14          1           0        1.745022   -1.100538   -1.589742
     15          1           0        2.141803    0.304567   -0.593697
 ---------------------------------------------------------------------

 SCF Done:  E(UM062X) =  -420.202340608     A.U. after   20 cycles

 The electronic state is 2-A.
 Alpha  occ. eigenvalues --  -19.69799 -19.65732 -19.64788 -10.72323 -10.61826
 Alpha  occ. eigenvalues --  -10.57970 -10.57498 -10.54923  -1.27239  -1.17896
 Alpha  occ. eigenvalues --   -1.12275  -0.91627  -0.88073  -0.79471  -0.71862
 Alpha  occ. eigenvalues --   -0.65919  -0.62077  -0.60533  -0.59036  -0.56726
 Alpha  occ. eigenvalues --   -0.53900  -0.51578  -0.49194  -0.48271  -0.45004
 Alpha  occ. eigenvalues --   -0.41426  -0.40926  -0.40326  -0.38164  -0.37371
 Alpha  occ. eigenvalues --   -0.37258
 Alpha virt. eigenvalues --   -0.02845  -0.00386   0.00456   0.01737   0.02314
 Alpha virt. eigenvalues --    0.02999   0.03446   0.04929   0.05636   0.06429
 Alpha virt. eigenvalues --    0.06630   0.07379   0.07870   0.09316   0.10111

  Beta  occ. eigenvalues --  -19.69799 -19.64792 -19.64277 -10.72323 -10.61836
  Beta  occ. eigenvalues --  -10.57970 -10.57498 -10.54676  -1.27237  -1.17891
  Beta  occ. eigenvalues --   -1.05751  -0.91455  -0.87799  -0.78937  -0.71506
  Beta  occ. eigenvalues --   -0.65853  -0.62042  -0.60342  -0.58567  -0.54526
  Beta  occ. eigenvalues --   -0.51950  -0.49788  -0.48022  -0.46006  -0.42984
  Beta  occ. eigenvalues --   -0.40895  -0.39819  -0.38211  -0.37864  -0.37284
  Beta virt. eigenvalues --   -0.09229  -0.02822  -0.00341   0.00477   0.01817
  Beta virt. eigenvalues --    0.02541   0.03108   0.03458   0.05346   0.05709
  Beta virt. eigenvalues --    0.06535   0.06855   0.07513   0.07912   0.09531

 Mulliken charges and spin densities:
               1          2
     1  O   -0.289614   0.825790
     2  H    0.268476  -0.010224
     3  C   -0.637765  -0.001203
     4  H    0.181844  -0.000027
     5  C    1.219295   0.006592
     6  C   -0.661329   0.004671
     7  O   -0.276595  -0.002086
     8  O    0.026844  -0.000376
     9  C   -0.420888  -0.024972
    10  C   -0.442827   0.238762
    11  H    0.195733   0.009828
    12  H    0.228023   0.002953
    13  H    0.175854  -0.007272
    14  H    0.192355  -0.001857
    15  H    0.240594  -0.040580
 Sum of Mulliken charges =  -0.00000   1.00000

 Dipole moment (field-independent basis, Debye):
    X=             -1.8801    Y=             -2.6191    Z=             -0.0067  Tot=              3.2241
 Quadrupole moment (field-independent basis, Debye-Ang):
   XX=            -40.3075   YY=            -50.3331   ZZ=            -48.0452
   XY=             -7.3231   XZ=              4.2087   YZ=             -0.8276

  Exact polarizability:  93.071  -1.827  73.661   7.720   2.401  52.082
 Approx polarizability:  99.991   0.299  81.967  12.276   5.806  62.856

 ******    2 imaginary frequencies (negative Signs) ******

                      1                      2                      3
                      A                      A                      A
 Frequencies --   -365.6597              -138.2389                14.0754
 Red. masses --      1.9914                 2.0136                 4.2645
 Frc consts  --      0.1569                 0.0227                 0.0005
 IR Inten    --     72.0844                 0.9403                 1.5776

                      4                      5                      6
                      A                      A                      A
 Frequencies --     74.1610                93.0409               141.5548
 Red. masses --      3.7496                 2.4263                 5.6239
 Frc consts  --      0.0122                 0.0124                 0.0664
 IR Inten    --      3.7176                 4.1482                 1.0251

                      7                      8                      9
                      A                      A                      A
 Frequencies --    191.4476               273.0603               335.0220
 Red. masses --      4.3415                 4.2690                 3.4209
 Frc consts  --      0.0938                 0.1875                 0.2262
 IR Inten    --      8.0537                 2.2308                12.7668

                     10                     11                     12
                      A                      A                      A
 Frequencies --    416.2396               428.3963               563.2916
 Red. masses --      3.6512                 1.0567                 4.2220
 Frc consts  --      0.3727                 0.1143                 0.7893
 IR Inten    --      3.2767                93.1028                 1.4606

                     13                     14                     15
                      A                      A                      A
 Frequencies --    610.4364               690.2247               746.2171
 Red. masses --      7.1985                 1.1468                 1.3139
 Frc consts  --      1.5804                 0.3219                 0.4311
 IR Inten    --      9.9038                97.8103                38.8086

                     16                     17                     18
                      A                      A                      A
 Frequencies --    779.5411               789.8304               838.8463
 Red. masses --      1.4423                 5.8025                 1.2670
 Frc consts  --      0.5164                 2.1327                 0.5253
 IR Inten    --     18.5514                49.5238                73.9624

                     19                     20                     21
                      A                      A                      A
 Frequencies --    890.3222               936.0044              1082.9934
 Red. masses --      2.6027                 3.0102                 3.8870
 Frc consts  --      1.2155                 1.5538                 2.6861
 IR Inten    --     34.7665                15.7745                28.6572

                     22                     23                     24
                      A                      A                      A
 Frequencies --   1110.6116              1166.3917              1296.4976
 Red. masses --      2.1448                 1.8450                 2.8200
 Frc consts  --      1.5587                 1.4789                 2.7928
 IR Inten    --     20.0549                10.7055               444.2789

                     25                     26                     27
                      A                      A                      A
 Frequencies --   1341.2974              1359.9377              1399.5321
 Red. masses --      1.2674                 1.0864                 1.3399
 Frc consts  --      1.3434                 1.1838                 1.5463
 IR Inten    --    143.9229                12.6551                63.5317

                     28                     29                     30
                      A                      A                      A
 Frequencies --   1436.5882              1452.6619              1504.8141
 Red. masses --      1.4032                 1.0676                 1.1054
 Frc consts  --      1.7062                 1.3273                 1.4748
 IR Inten    --     29.9177                 2.0160                21.6404

                     31                     32                     33
                      A                      A                      A
 Frequencies --   1816.8970              2187.5293              2271.4982
 Red. masses --     11.3540                 1.1190                 5.7392
 Frc consts  --     22.0831                 3.1550                17.4471
 IR Inten    --    286.5687               849.8466                86.8248

                     34                     35                     36
                      A                      A                      A
 Frequencies --   3102.6633              3104.1762              3158.2942
 Red. masses --      1.0571                 1.0606                 1.1075
 Frc consts  --      5.9955                 6.0215                 6.5087
 IR Inten    --      7.6243                17.2251                 6.8431

                     37                     38                     39
                      A                      A                      A
 Frequencies --   3170.2168              3490.2827              3720.9309
 Red. masses --      1.1051                 1.1715                 1.0666
 Frc consts  --      6.5439                 8.4082                 8.7005
 IR Inten    --      7.0466                63.2910               146.6596

 - Thermochemistry -
 -------------------
 Temperature   298.150 Kelvin.  Pressure   1.00000 Atm.
 Atom     1 has atomic number  8 and mass  15.99491

 Molecular mass:   115.03952 amu.
 Principal axes and moments of inertia in atomic units:
                           1         2         3
     Eigenvalues --   546.810551519.858881858.79013
           X            0.99964  -0.02652   0.00294
           Y            0.02654   0.99964  -0.00405
           Z           -0.00283   0.00413   0.99999
 This molecule is an asymmetric top.
 Rotational symmetry number  1.
 Warning -- assumption of classical behavior for rotation
           may cause significant error
 Rotational temperatures (Kelvin)      0.15840     0.05699     0.04660
 Rotational constants (GHZ):           3.30049     1.18744     0.97092
    2 imaginary frequencies ignored.
 Zero-point vibrational energy     287017.2 (Joules/Mol)
                                   68.59875 (Kcal/Mol)
 Warning -- explicit consideration of  11 degrees of freedom as
           vibrations may cause significant error
 Vibrational temperatures:     20.25   106.70   133.87   203.67   275.45
          (Kelvin)            392.87   482.02   598.88   616.37   810.45
                              878.28   993.08  1073.64  1121.59  1136.39
                             1206.91  1280.98  1346.70  1558.19  1597.92
                             1678.18  1865.37  1929.83  1956.65  2013.61
                             2066.93  2090.06  2165.09  2614.11  3147.37
                             3268.18  4464.04  4466.22  4544.08  4561.23
                             5021.74  5353.59

 Zero-point correction=                           0.109319 (Hartree/Particle)
 Thermal correction to Energy=                    0.118250
 Thermal correction to Enthalpy=                  0.119194
 Thermal correction to Gibbs Free Energy=         0.072821
 Sum of electronic and zero-point Energies=           -420.093022
 Sum of electronic and thermal Energies=              -420.084091
 Sum of electronic and thermal Enthalpies=            -420.083147
 Sum of electronic and thermal Free Energies=         -420.129519

                     E (Thermal)             CV                S
                      KCal/Mol        Cal/Mol-Kelvin    Cal/Mol-Kelvin
 Total                   74.203             30.013             97.600
 Electronic               0.000              0.000              1.377
 Translational            0.889              2.981             40.136
 Rotational               0.889              2.981             28.826
 Vibrational             72.425             24.051             27.261
 Vibration     1          0.593              1.986              7.332
 Vibration     2          0.599              1.966              4.040
 Vibration     3          0.602              1.954              3.595
 Vibration     4          0.615              1.912              2.783
 Vibration     5          0.634              1.852              2.214
 Vibration     6          0.676              1.723              1.577
 Vibration     7          0.716              1.606              1.236
 Vibration     8          0.779              1.435              0.905
 Vibration     9          0.790              1.408              0.864
 Vibration    10          0.919              1.111              0.517
 Vibration    11          0.969              1.010              0.432

 1\1\GINC-AJ\Freq\UM062X\6-311++G(d,p)\C5H7O3(2)\AAYUSH\23-Jun-2025\0\\
 # freq 6-311++g(d,p) m062x\\Title Card Required\\0,2\O,2.288586,1.7201
 98,-0.321911\H,1.469785,1.80107,0.203318\C,-3.372663,0.211376,-0.50731
 5\H,-4.38861,0.28181,-0.819117\C,-2.230473,0.131595,-0.155711\C,-0.845
 408,0.086508,0.282585\O,-0.284501,1.015948,0.804722\O,-0.300372,-1.098
 766,0.040982\C,1.068042,-1.293853,0.458323\C,2.045444,-0.807951,-0.583
 038\H,1.144399,-2.372625,0.588353\H,1.218606,-0.803427,1.421151\H,3.04
 9633,-1.175948,-0.369664\H,1.745022,-1.100538,-1.589742\H,2.141803,0.3

 Normal termination of Gaussian 16 at Mon Jun 23 02:26:10 2025.
