 Gaussian 16, Revision A.03,
 Gaussian 16:  ES64L-G16RevA.03 25-Dec-2016

 --------------------------
 # freq 6-311++g(d,p) m062x
 --------------------------

 -------------------
 Title Card Required
 -------------------
 Symbolic Z-matrix:
 Charge =  0 Multiplicity = 2

                         Standard orientation:
 ---------------------------------------------------------------------
 Center     Atomic      Atomic             Coordinates (Angstroms)
 Number     Number       Type             X           Y           Z
 ---------------------------------------------------------------------
      1          8           0        2.288347    1.715545   -0.321897
      2          1           0        1.470477    1.800714    0.203688
      3          6           0       -3.372718    0.211649   -0.507161
      4          1           0       -4.388671    0.282382   -0.818877
      5          6           0       -2.230525    0.131549   -0.155667
      6          6           0       -0.845553    0.086304    0.282662
      7          8           0       -0.284629    1.015153    0.805460
      8          8           0       -0.300297   -1.099083    0.040239
      9          6           0        1.067994   -1.293612    0.457201
     10          6           0        2.045370   -0.804618   -0.582625
     11          1           0        1.145680   -2.372619    0.585421
     12          1           0        1.218518   -0.804833    1.420909
     13          1           0        3.050505   -1.170886   -0.370884
     14          1           0        1.744816   -1.088980   -1.591578
     15          1           0        2.143907    0.313670   -0.585556
 ---------------------------------------------------------------------

 SCF Done:  E(UM062X) =  -420.202035867     A.U. after   20 cycles

 The electronic state is 2-A.
 Alpha  occ. eigenvalues --  -19.69814 -19.65583 -19.64796 -10.72329 -10.61870
 Alpha  occ. eigenvalues --  -10.57977 -10.57504 -10.55054  -1.27251  -1.17912
 Alpha  occ. eigenvalues --   -1.12185  -0.91649  -0.88096  -0.79500  -0.71885
 Alpha  occ. eigenvalues --   -0.65943  -0.62084  -0.60547  -0.59077  -0.56772
 Alpha  occ. eigenvalues --   -0.53870  -0.51539  -0.49238  -0.48322  -0.45038
 Alpha  occ. eigenvalues --   -0.41342  -0.40898  -0.40333  -0.38170  -0.37347
 Alpha  occ. eigenvalues --   -0.37025
 Alpha virt. eigenvalues --   -0.02852  -0.00396   0.00450   0.01727   0.02316
 Alpha virt. eigenvalues --    0.02987   0.03440   0.04933   0.05629   0.06434
 Alpha virt. eigenvalues --    0.06635   0.07378   0.07862   0.09309   0.10105

  Beta  occ. eigenvalues --  -19.69814 -19.64800 -19.64141 -10.72329 -10.61881
  Beta  occ. eigenvalues --  -10.57977 -10.57504 -10.54793  -1.27249  -1.17906
  Beta  occ. eigenvalues --   -1.05818  -0.91467  -0.87807  -0.78938  -0.71512
  Beta  occ. eigenvalues --   -0.65872  -0.62048  -0.60352  -0.58589  -0.54527
  Beta  occ. eigenvalues --   -0.51968  -0.49786  -0.48065  -0.46000  -0.43005
  Beta  occ. eigenvalues --   -0.40900  -0.39824  -0.38204  -0.37785  -0.37287
  Beta virt. eigenvalues --   -0.09313  -0.02829  -0.00349   0.00470   0.01811
  Beta virt. eigenvalues --    0.02539   0.03100   0.03452   0.05345   0.05703
  Beta virt. eigenvalues --    0.06538   0.06870   0.07511   0.07906   0.09525

 Mulliken charges and spin densities:
               1          2
     1  O   -0.294485   0.812367
     2  H    0.268087  -0.009768
     3  C   -0.637562  -0.001193
     4  H    0.181868  -0.000026
     5  C    1.219237   0.006544
     6  C   -0.661229   0.004975
     7  O   -0.276194  -0.002275
     8  O    0.026795  -0.000323
     9  C   -0.420277  -0.025671
    10  C   -0.445292   0.252726
    11  H    0.196076   0.010632
    12  H    0.228457   0.003311
    13  H    0.176687  -0.007624
    14  H    0.193173  -0.002104
    15  H    0.244659  -0.041573
 Sum of Mulliken charges =  -0.00000   1.00000

 Dipole moment (field-independent basis, Debye):
    X=             -1.8878    Y=             -2.6612    Z=             -0.0094  Tot=              3.2628
 Quadrupole moment (field-independent basis, Debye-Ang):
   XX=            -40.3072   YY=            -50.3934   ZZ=            -48.0313
   XY=             -7.4320   XZ=              4.1996   YZ=             -0.8136

  Exact polarizability:  93.095  -1.640  74.495   7.720   2.428  52.082
 Approx polarizability: 100.010   0.404  82.718  12.280   5.851  62.883

 ******    2 imaginary frequencies (negative Signs) ******

                      1                      2                      3
                      A                      A                      A
 Frequencies --   -409.4741              -121.0692                32.2175
 Red. masses --      2.1511                 2.2055                 4.1194
 Frc consts  --      0.2125                 0.0190                 0.0025
 IR Inten    --    103.8455                 0.7145                 1.6523

                      4                      5                      6
                      A                      A                      A
 Frequencies --     80.3003               105.4692               142.3984
 Red. masses --      4.2585                 1.9222                 5.6142
 Frc consts  --      0.0162                 0.0126                 0.0671
 IR Inten    --      3.0347                 5.3379                 1.0202

                      7                      8                      9
                      A                      A                      A
 Frequencies --    192.2767               273.0785               335.3498
 Red. masses --      4.1246                 4.2567                 3.3759
 Frc consts  --      0.0898                 0.1870                 0.2237
 IR Inten    --      7.5021                 2.2109                12.8989

                     10                     11                     12
                      A                      A                      A
 Frequencies --    417.0912               426.9353               563.6627
 Red. masses --      3.6306                 1.0600                 4.2058
 Frc consts  --      0.3721                 0.1138                 0.7873
 IR Inten    --      4.3421                91.6023                 1.4171

                     13                     14                     15
                      A                      A                      A
 Frequencies --    610.4974               694.6709               746.3080
 Red. masses --      7.2064                 1.1524                 1.3140
 Frc consts  --      1.5825                 0.3276                 0.4312
 IR Inten    --      9.9407                86.1848                38.8082

                     16                     17                     18
                      A                      A                      A
 Frequencies --    779.5941               789.8070               847.3965
 Red. masses --      1.4430                 5.8231                 1.3383
 Frc consts  --      0.5167                 2.1402                 0.5662
 IR Inten    --     18.6027                48.7202                70.5325

                     19                     20                     21
                      A                      A                      A
 Frequencies --    892.0648               936.5290              1083.5241
 Red. masses --      2.4126                 2.9657                 3.8940
 Frc consts  --      1.1311                 1.5326                 2.6936
 IR Inten    --     42.5581                18.6799                28.3158

                     22                     23                     24
                      A                      A                      A
 Frequencies --   1111.5637              1165.4453              1295.1653
 Red. masses --      2.1306                 1.8469                 2.8474
 Frc consts  --      1.5510                 1.4780                 2.8141
 IR Inten    --     20.8190                14.0413               439.5077

                     25                     26                     27
                      A                      A                      A
 Frequencies --   1339.0176              1353.4202              1398.1760
 Red. masses --      1.2217                 1.1114                 1.3456
 Frc consts  --      1.2906                 1.1995                 1.5498
 IR Inten    --    130.2399                22.6014                68.4851

                     28                     29                     30
                      A                      A                      A
 Frequencies --   1435.7009              1449.9558              1504.1476
 Red. masses --      1.3988                 1.0770                 1.1051
 Frc consts  --      1.6988                 1.3341                 1.4731
 IR Inten    --     30.0932                 3.6458                21.8142

                     31                     32                     33
                      A                      A                      A
 Frequencies --   1816.8454              2059.5592              2271.5894
 Red. masses --     10.8474                 1.1333                 5.7391
 Frc consts  --     21.0966                 2.8323                17.4484
 IR Inten    --    252.8209               979.9048                86.8675

                     34                     35                     36
                      A                      A                      A
 Frequencies --   3102.6101              3103.6931              3157.4005
 Red. masses --      1.0563                 1.0609                 1.1077
 Frc consts  --      5.9911                 6.0210                 6.5061
 IR Inten    --      7.4639                16.6413                 6.2717

                     37                     38                     39
                      A                      A                      A
 Frequencies --   3171.3504              3490.2920              3724.4302
 Red. masses --      1.1053                 1.1715                 1.0665
 Frc consts  --      6.5496                 8.4083                 8.7167
 IR Inten    --      6.7649                63.2852               144.8151

 - Thermochemistry -
 -------------------
 Temperature   298.150 Kelvin.  Pressure   1.00000 Atm.
 Atom     1 has atomic number  8 and mass  15.99491

 Molecular mass:   115.03952 amu.
 Principal axes and moments of inertia in atomic units:
                           1         2         3
     Eigenvalues --   545.464561519.840551857.49093
           X            0.99965  -0.02631   0.00295
           Y            0.02632   0.99964  -0.00422
           Z           -0.00284   0.00430   0.99999
 This molecule is an asymmetric top.
 Rotational symmetry number  1.
 Warning -- assumption of classical behavior for rotation
           may cause significant error
 Rotational temperatures (Kelvin)      0.15879     0.05699     0.04663
 Rotational constants (GHZ):           3.30863     1.18745     0.97160
    2 imaginary frequencies ignored.
 Zero-point vibrational energy     286502.8 (Joules/Mol)
                                   68.47582 (Kcal/Mol)
 Warning -- explicit consideration of  11 degrees of freedom as
           vibrations may cause significant error
 Vibrational temperatures:     46.35   115.53   151.75   204.88   276.64
          (Kelvin)            392.90   482.49   600.10   614.26   810.98
                              878.37   999.48  1073.77  1121.66  1136.36
                             1219.21  1283.48  1347.46  1558.95  1599.29
                             1676.82  1863.45  1926.55  1947.27  2011.66
                             2065.65  2086.16  2164.13  2614.04  2963.25
                             3268.31  4463.96  4465.52  4542.80  4562.87
                             5021.75  5358.62

 Zero-point correction=                           0.109123 (Hartree/Particle)
 Thermal correction to Energy=                    0.117971
 Thermal correction to Enthalpy=                  0.118915
 Thermal correction to Gibbs Free Energy=         0.073530
 Sum of electronic and zero-point Energies=           -420.092913
 Sum of electronic and thermal Energies=              -420.084065
 Sum of electronic and thermal Enthalpies=            -420.083120
 Sum of electronic and thermal Free Energies=         -420.128506

                     E (Thermal)             CV                S
                      KCal/Mol        Cal/Mol-Kelvin    Cal/Mol-Kelvin
 Total                   74.028             29.978             95.521
 Electronic               0.000              0.000              1.377
 Translational            0.889              2.981             40.136
 Rotational               0.889              2.981             28.823
 Vibrational             72.251             24.017             25.186
 Vibration     1          0.594              1.983              5.688
 Vibration     2          0.600              1.963              3.884
 Vibration     3          0.605              1.945              3.351
 Vibration     4          0.616              1.911              2.771
 Vibration     5          0.634              1.851              2.206
 Vibration     6          0.676              1.723              1.577
 Vibration     7          0.716              1.605              1.234
 Vibration     8          0.780              1.433              0.902
 Vibration     9          0.789              1.412              0.869
 Vibration    10          0.919              1.110              0.517
 Vibration    11          0.970              1.010              0.432

 1\1\GINC-AJ\Freq\UM062X\6-311++G(d,p)\C5H7O3(2)\AAYUSH\23-Jun-2025\0\\
 # freq 6-311++g(d,p) m062x\\Title Card Required\\0,2\O,2.288347,1.7155
 45,-0.321897\H,1.470477,1.800714,0.203688\C,-3.372718,0.211649,-0.5071
 61\H,-4.388671,0.282382,-0.818877\C,-2.230525,0.131549,-0.155667\C,-0.
 845553,0.086304,0.282662\O,-0.284629,1.015153,0.80546\O,-0.300297,-1.0
 99083,0.040239\C,1.067994,-1.293612,0.457201\C,2.04537,-0.804618,-0.58
 2625\H,1.14568,-2.372619,0.585421\H,1.218518,-0.804833,1.420909\H,3.05
 0505,-1.170886,-0.370884\H,1.744816,-1.08898,-1.591578\H,2.143907,0.31

 Normal termination of Gaussian 16 at Mon Jun 23 02:35:52 2025.
