 Gaussian 16, Revision A.03,
 Gaussian 16:  ES64L-G16RevA.03 25-Dec-2016

 --------------------------
 # freq 6-311++g(d,p) m062x
 --------------------------

 -------------------
 Title Card Required
 -------------------
 Symbolic Z-matrix:
 Charge =  0 Multiplicity = 2

                         Standard orientation:
 ---------------------------------------------------------------------
 Center     Atomic      Atomic             Coordinates (Angstroms)
 Number     Number       Type             X           Y           Z
 ---------------------------------------------------------------------
      1          8           0        2.288834    1.724831   -0.321912
      2          1           0        1.469169    1.801450    0.202965
      3          6           0       -3.372605    0.211130   -0.507466
      4          1           0       -4.388545    0.281277   -0.819355
      5          6           0       -2.230419    0.131658   -0.155753
      6          6           0       -0.845271    0.086742    0.282509
      7          8           0       -0.284355    1.016734    0.803965
      8          8           0       -0.300453   -1.098478    0.041730
      9          6           0        1.068039   -1.294108    0.459459
     10          6           0        2.045489   -0.811494   -0.583506
     11          1           0        1.143093   -2.372648    0.591412
     12          1           0        1.218751   -0.801962    1.421353
     13          1           0        3.048903   -1.180622   -0.368305
     14          1           0        1.745267   -1.112215   -1.587945
     15          1           0        2.139743    0.296452   -0.601851
 ---------------------------------------------------------------------

 SCF Done:  E(UM062X) =  -420.202658281     A.U. after   20 cycles

 The electronic state is 2-A.
 Alpha  occ. eigenvalues --  -19.69786 -19.65859 -19.64782 -10.72319 -10.61790
 Alpha  occ. eigenvalues --  -10.57964 -10.57493 -10.54817  -1.27229  -1.17884
 Alpha  occ. eigenvalues --   -1.12347  -0.91608  -0.88053  -0.79444  -0.71842
 Alpha  occ. eigenvalues --   -0.65900  -0.62071  -0.60521  -0.58997  -0.56679
 Alpha  occ. eigenvalues --   -0.53929  -0.51605  -0.49158  -0.48228  -0.44975
 Alpha  occ. eigenvalues --   -0.41506  -0.40942  -0.40321  -0.38159  -0.37541
 Alpha  occ. eigenvalues --   -0.37313
 Alpha virt. eigenvalues --   -0.02839  -0.00378   0.00462   0.01745   0.02311
 Alpha virt. eigenvalues --    0.03008   0.03451   0.04926   0.05642   0.06422
 Alpha virt. eigenvalues --    0.06626   0.07379   0.07876   0.09323   0.10116

  Beta  occ. eigenvalues --  -19.69786 -19.64786 -19.64392 -10.72319 -10.61800
  Beta  occ. eigenvalues --  -10.57964 -10.57493 -10.54581  -1.27227  -1.17878
  Beta  occ. eigenvalues --   -1.05688  -0.91446  -0.87792  -0.78936  -0.71502
  Beta  occ. eigenvalues --   -0.65838  -0.62037  -0.60335  -0.58548  -0.54525
  Beta  occ. eigenvalues --   -0.51931  -0.49792  -0.47986  -0.46012  -0.42966
  Beta  occ. eigenvalues --   -0.40892  -0.39815  -0.38222  -0.37925  -0.37282
  Beta virt. eigenvalues --   -0.09153  -0.02817  -0.00334   0.00482   0.01821
  Beta virt. eigenvalues --    0.02542   0.03115   0.03463   0.05347   0.05714
  Beta virt. eigenvalues --    0.06532   0.06842   0.07514   0.07917   0.09536

 Mulliken charges and spin densities:
               1          2
     1  O   -0.285583   0.837271
     2  H    0.268835  -0.010598
     3  C   -0.637955  -0.001211
     4  H    0.181825  -0.000027
     5  C    1.219369   0.006633
     6  C   -0.661363   0.004405
     7  O   -0.276920  -0.001921
     8  O    0.026900  -0.000420
     9  C   -0.421595  -0.024424
    10  C   -0.440367   0.226846
    11  H    0.195446   0.009149
    12  H    0.227665   0.002646
    13  H    0.175161  -0.006991
    14  H    0.191684  -0.001645
    15  H    0.236898  -0.039711
 Sum of Mulliken charges =  -0.00000   1.00000

 Dipole moment (field-independent basis, Debye):
    X=             -1.8742    Y=             -2.5849    Z=             -0.0041  Tot=              3.1929
 Quadrupole moment (field-independent basis, Debye-Ang):
   XX=            -40.3102   YY=            -50.2844   ZZ=            -48.0568
   XY=             -7.2341   XZ=              4.2169   YZ=             -0.8387

  Exact polarizability:  93.053  -1.993  72.900   7.718   2.375  52.084
 Approx polarizability:  99.976   0.210  81.305  12.272   5.764  62.833

 ******    3 imaginary frequencies (negative Signs) ******

                      1                      2                      3
                      A                      A                      A
 Frequencies --   -332.4695              -143.5427               -16.7889
 Red. masses --      1.7611                 2.1414                 4.2728
 Frc consts  --      0.1147                 0.0260                 0.0007
 IR Inten    --     50.5048                 1.7837                 1.5602

                      4                      5                      6
                      A                      A                      A
 Frequencies --     65.4341                88.4368               141.2899
 Red. masses --      3.3774                 2.9463                 5.6028
 Frc consts  --      0.0085                 0.0136                 0.0659
 IR Inten    --      4.0775                 3.3845                 1.0349

                      7                      8                      9
                      A                      A                      A
 Frequencies --    191.1433               273.0578               334.8141
 Red. masses --      4.4430                 4.2774                 3.4552
 Frc consts  --      0.0956                 0.1879                 0.2282
 IR Inten    --      8.3839                 2.2433                12.6695

                     10                     11                     12
                      A                      A                      A
 Frequencies --    415.5648               429.5912               563.0093
 Red. masses --      3.6466                 1.0558                 4.2339
 Frc consts  --      0.3710                 0.1148                 0.7907
 IR Inten    --      2.8327                93.9033                 1.5044

                     13                     14                     15
                      A                      A                      A
 Frequencies --    610.3854               685.8663               746.1352
 Red. masses --      7.1914                 1.1420                 1.3139
 Frc consts  --      1.5786                 0.3165                 0.4310
 IR Inten    --      9.8727               109.1211                38.8113

                     16                     17                     18
                      A                      A                      A
 Frequencies --    779.4901               789.8211               830.9687
 Red. masses --      1.4426                 5.7478                 1.2269
 Frc consts  --      0.5164                 2.1126                 0.4991
 IR Inten    --     18.4404                50.4933                72.9550

                     19                     20                     21
                      A                      A                      A
 Frequencies --    889.2088               935.7048              1082.5089
 Red. masses --      2.7345                 3.0403                 3.8821
 Frc consts  --      1.2739                 1.5684                 2.6803
 IR Inten    --     29.6502                13.9007                28.9205

                     22                     23                     24
                      A                      A                      A
 Frequencies --   1109.9859              1167.2898              1297.5240
 Red. masses --      2.1550                 1.8447                 2.7973
 Frc consts  --      1.5644                 1.4809                 2.7747
 IR Inten    --     19.4387                 8.6257               447.0775

                     25                     26                     27
                      A                      A                      A
 Frequencies --   1342.6486              1366.1251              1400.6859
 Red. masses --      1.2917                 1.0775                 1.3369
 Frc consts  --      1.3720                 1.1848                 1.5453
 IR Inten    --    151.0518                 8.9993                60.6407

                     28                     29                     30
                      A                      A                      A
 Frequencies --   1437.3982              1455.0098              1505.3709
 Red. masses --      1.4026                 1.0620                 1.1057
 Frc consts  --      1.7074                 1.3247                 1.4763
 IR Inten    --     29.2090                 1.6403                21.5276

                     31                     32                     33
                      A                      A                      A
 Frequencies --   1816.6568              2271.4124              2294.6736
 Red. masses --     11.5175                 5.7382                 1.1104
 Frc consts  --     22.3952                17.4429                 3.4448
 IR Inten    --    303.6408                86.2117               740.3446

                     34                     35                     36
                      A                      A                      A
 Frequencies --   3102.6258              3104.6208              3158.9871
 Red. masses --      1.0577                 1.0605                 1.1073
 Frc consts  --      5.9991                 6.0223                 6.5102
 IR Inten    --      8.2630                17.2576                 7.3825

                     37                     38                     39
                      A                      A                      A
 Frequencies --   3169.2093              3490.2739              3717.9122
 Red. masses --      1.1050                 1.1715                 1.0666
 Frc consts  --      6.5393                 8.4081                 8.6865
 IR Inten    --      7.2627                63.2978               148.4284

 - Thermochemistry -
 -------------------
 Temperature   298.150 Kelvin.  Pressure   1.00000 Atm.
 Atom     1 has atomic number  8 and mass  15.99491

 Molecular mass:   115.03952 amu.
 Principal axes and moments of inertia in atomic units:
                           1         2         3
     Eigenvalues --   548.180541519.875771860.10773
           X            0.99964  -0.02673   0.00292
           Y            0.02674   0.99963  -0.00390
           Z           -0.00281   0.00397   0.99999
 This molecule is an asymmetric top.
 Rotational symmetry number  1.
 Warning -- assumption of classical behavior for rotation
           may cause significant error
 Rotational temperatures (Kelvin)      0.15800     0.05699     0.04656
 Rotational constants (GHZ):           3.29224     1.18743     0.97023
    3 imaginary frequencies ignored.
 Zero-point vibrational energy     287467.7 (Joules/Mol)
                                   68.70642 (Kcal/Mol)
 Warning -- explicit consideration of  10 degrees of freedom as
           vibrations may cause significant error
 Vibrational temperatures:     94.15   127.24   203.28   275.01   392.87
          (Kelvin)            481.72   597.91   618.09   810.04   878.21
                              986.81  1073.52  1121.51  1136.38  1195.58
                             1279.37  1346.27  1557.49  1597.02  1679.47
                             1866.85  1931.77  1965.55  2015.27  2068.10
                             2093.43  2165.89  2613.76  3268.06  3301.52
                             4463.99  4466.86  4545.08  4559.79  5021.73
                             5349.25

 Zero-point correction=                           0.109491 (Hartree/Particle)
 Thermal correction to Energy=                    0.117540
 Thermal correction to Enthalpy=                  0.118484
 Thermal correction to Gibbs Free Energy=         0.075421
 Sum of electronic and zero-point Energies=           -420.093168
 Sum of electronic and thermal Energies=              -420.085118
 Sum of electronic and thermal Enthalpies=            -420.084174
 Sum of electronic and thermal Free Energies=         -420.127237

                     E (Thermal)             CV                S
                      KCal/Mol        Cal/Mol-Kelvin    Cal/Mol-Kelvin
 Total                   73.758             28.051             90.634
 Electronic               0.000              0.000              1.377
 Translational            0.889              2.981             40.136
 Rotational               0.889              2.981             28.829
 Vibrational             71.980             22.089             20.292
 Vibration     1          0.597              1.971              4.286
 Vibration     2          0.601              1.957              3.694
 Vibration     3          0.615              1.912              2.786
 Vibration     4          0.634              1.852              2.217
 Vibration     5          0.676              1.723              1.577
 Vibration     6          0.716              1.606              1.237
 Vibration     7          0.779              1.436              0.907
 Vibration     8          0.791              1.406              0.860
 Vibration     9          0.919              1.111              0.518
 Vibration    10          0.969              1.010              0.432

 1\1\GINC-AJ\Freq\UM062X\6-311++G(d,p)\C5H7O3(2)\AAYUSH\16-Aug-2025\0\\
 # freq 6-311++g(d,p) m062x\\Title Card Required\\0,2\O,2.345259,1.6975
 76,-0.325678\H,1.525738,1.772835,0.199622\C,-3.317465,0.189309,-0.5162
 22\H,-4.333394,0.261511,-0.827677\C,-2.175291,0.107523,-0.165\C,-0.790
 113,0.059754,0.272866\O,-0.228344,0.987246,0.797844\O,-0.246318,-1.124
 974,0.027397\C,1.122076,-1.323362,0.444148\C,2.099766,-0.837511,-0.597
 088\H,1.196254,-2.402469,0.571897\H,1.273345,-0.835083,1.407923\H,3.10
 2906,-1.208305,-0.38348\H,1.799139,-1.134077,-1.60264\H,2.194938,0.270

 Normal termination of Gaussian 16 at Sat Aug 16 16:07:20 2025.
