 Gaussian 16, Revision A.03,
 Gaussian 16:  ES64L-G16RevA.03 25-Dec-2016

 --------------------------
 # freq 6-311++g(d,p) m062x
 --------------------------

 -------------------
 Title Card Required
 -------------------
 Symbolic Z-matrix:
 Charge =  0 Multiplicity = 2

                         Standard orientation:
 ---------------------------------------------------------------------
 Center     Atomic      Atomic             Coordinates (Angstroms)
 Number     Number       Type             X           Y           Z
 ---------------------------------------------------------------------
      1          8           0        2.289027    1.676418   -0.320027
      2          1           0        1.486428    1.803829    0.206494
      3          6           0       -3.372949    0.219228   -0.505651
      4          1           0       -4.388857    0.294582   -0.816593
      5          6           0       -2.230884    0.134168   -0.155073
      6          6           0       -0.846843    0.085493    0.283497
      7          8           0       -0.283388    1.007157    0.810799
      8          8           0       -0.302307   -1.103492    0.034113
      9          6           0        1.063341   -1.296346    0.448504
     10          6           0        2.040550   -0.810231   -0.583405
     11          1           0        1.149286   -2.379623    0.567199
     12          1           0        1.218471   -0.819322    1.418300
     13          1           0        3.061777   -1.123056   -0.373965
     14          1           0        1.738122   -1.011957   -1.609361
     15          1           0        2.188831    0.601008   -0.518386
 ---------------------------------------------------------------------

 SCF Done:  E(UM062X) =  -420.209721375     A.U. after   17 cycles

 The electronic state is 2-A.
 Alpha  occ. eigenvalues --  -19.70326 -19.65046 -19.60804 -10.72559 -10.63153
 Alpha  occ. eigenvalues --  -10.58175 -10.58170 -10.57689  -1.27680  -1.18333
 Alpha  occ. eigenvalues --   -1.10252  -0.92360  -0.88662  -0.79924  -0.72267
 Alpha  occ. eigenvalues --   -0.66704  -0.62279  -0.60975  -0.59756  -0.57212
 Alpha  occ. eigenvalues --   -0.54367  -0.51540  -0.50065  -0.47647  -0.45986
 Alpha  occ. eigenvalues --   -0.41382  -0.40856  -0.38393  -0.37659  -0.37483
 Alpha  occ. eigenvalues --   -0.31550
 Alpha virt. eigenvalues --   -0.03052  -0.00750   0.00275   0.01365   0.02235
 Alpha virt. eigenvalues --    0.02734   0.03269   0.05108   0.05439   0.06406
 Alpha virt. eigenvalues --    0.06847   0.07263   0.07615   0.09227   0.09911

  Beta  occ. eigenvalues --  -19.70324 -19.65045 -19.60146 -10.72559 -10.63188
  Beta  occ. eigenvalues --  -10.58175 -10.57688 -10.57510  -1.27670  -1.18318
  Beta  occ. eigenvalues --   -1.07709  -0.91835  -0.88027  -0.78667  -0.71443
  Beta  occ. eigenvalues --   -0.66467  -0.62223  -0.60683  -0.59104  -0.54628
  Beta  occ. eigenvalues --   -0.53276  -0.50473  -0.49144  -0.46034  -0.44028
  Beta  occ. eigenvalues --   -0.41248  -0.40314  -0.38347  -0.37473  -0.36369
  Beta virt. eigenvalues --   -0.08746  -0.03027  -0.00647   0.00308   0.01555
  Beta virt. eigenvalues --    0.02398   0.02900   0.03279   0.05335   0.05548
  Beta virt. eigenvalues --    0.06447   0.07107   0.07352   0.07637   0.09379

 Mulliken charges and spin densities:
               1          2
     1  O   -0.465941   0.302274
     2  H    0.266462   0.008032
     3  C   -0.632682  -0.000303
     4  H    0.182583   0.000038
     5  C    1.214887   0.000361
     6  C   -0.651683   0.006422
     7  O   -0.268954  -0.002873
     8  O    0.028513   0.000015
     9  C   -0.431274  -0.050573
    10  C   -0.436478   0.785140
    11  H    0.207583   0.041334
    12  H    0.241098   0.014824
    13  H    0.194946  -0.026649
    14  H    0.216163  -0.016802
    15  H    0.334778  -0.061240
 Sum of Mulliken charges =  -0.00000   1.00000

 Dipole moment (field-independent basis, Debye):
    X=             -2.1619    Y=             -3.9508    Z=             -0.0690  Tot=              4.5041
 Quadrupole moment (field-independent basis, Debye-Ang):
   XX=            -40.7482   YY=            -52.3762   ZZ=            -47.6277
   XY=            -10.7081   XZ=              3.9565   YZ=             -0.4602

  Exact polarizability:  93.323  -1.313  73.243   7.434   2.221  52.434
 Approx polarizability: 100.267   1.123  85.016  12.137   5.726  63.490

 ******    2 imaginary frequencies (negative Signs) ******

                      1                      2                      3
                      A                      A                      A
 Frequencies --   -842.0369               -31.8200                86.7933
 Red. masses --      1.3870                 6.1860                 3.8247
 Frc consts  --      0.5794                 0.0037                 0.0170
 IR Inten    --    127.3937                 2.7663                 3.3530

                      4                      5                      6
                      A                      A                      A
 Frequencies --    115.0339               179.2029               192.4009
 Red. masses --      5.2728                 3.8932                 6.0414
 Frc consts  --      0.0411                 0.0737                 0.1318
 IR Inten    --      3.1670                 0.7673                 5.4872

                      7                      8                      9
                      A                      A                      A
 Frequencies --    272.9268               335.6441               387.9944
 Red. masses --      4.3748                 3.1833                 1.1993
 Frc consts  --      0.1920                 0.2113                 0.1064
 IR Inten    --      2.2856                11.9865                31.8824

                     10                     11                     12
                      A                      A                      A
 Frequencies --    416.3322               479.7301               570.8968
 Red. masses --      1.5867                 1.8036                 3.2017
 Frc consts  --      0.1620                 0.2446                 0.6148
 IR Inten    --     45.0876                10.6849                 0.7659

                     13                     14                     15
                      A                      A                      A
 Frequencies --    611.6215               683.1584               703.8803
 Red. masses --      7.4071                 1.6939                 1.1422
 Frc consts  --      1.6325                 0.4658                 0.3334
 IR Inten    --     10.1736                10.3665                77.0166

                     16                     17                     18
                      A                      A                      A
 Frequencies --    748.1533               780.4226               787.8295
 Red. masses --      1.3138                 1.5476                 4.5134
 Frc consts  --      0.4333                 0.5554                 1.6505
 IR Inten    --     40.0296                14.1089                48.5291

                     19                     20                     21
                      A                      A                      A
 Frequencies --    848.0958               887.0163               947.8256
 Red. masses --      2.0142                 1.7536                 2.1723
 Frc consts  --      0.8536                 0.8129                 1.1498
 IR Inten    --     13.8445                17.5865                 6.1184

                     22                     23                     24
                      A                      A                      A
 Frequencies --    961.9093              1091.1601              1134.5592
 Red. masses --      1.3670                 3.9007                 1.8950
 Frc consts  --      0.7452                 2.7363                 1.4372
 IR Inten    --     53.9801                19.1431                 4.9718

                     25                     26                     27
                      A                      A                      A
 Frequencies --   1238.1335              1283.1955              1342.1121
 Red. masses --      1.6620                 2.4484                 1.6212
 Frc consts  --      1.5011                 2.3753                 1.7206
 IR Inten    --      1.0756               427.4116               233.6200

                     28                     29                     30
                      A                      A                      A
 Frequencies --   1410.2244              1445.2106              1481.5493
 Red. masses --      1.3467                 1.1845                 1.1035
 Frc consts  --      1.5780                 1.4577                 1.4271
 IR Inten    --     34.9424                 5.5463                26.9619

                     31                     32                     33
                      A                      A                      A
 Frequencies --   1624.8575              1830.1604              2272.1756
 Red. masses --      1.0585                11.4621                 5.7375
 Frc consts  --      1.6465                22.6201                17.4524
 IR Inten    --    143.3610               306.2629                89.1466

                     34                     35                     36
                      A                      A                      A
 Frequencies --   3076.7885              3119.0125              3131.4216
 Red. masses --      1.0590                 1.0583                 1.1002
 Frc consts  --      5.9068                 6.0661                 6.3561
 IR Inten    --     10.7236                 1.7078                 2.0474

                     37                     38                     39
                      A                      A                      A
 Frequencies --   3208.5656              3490.0243              3827.4989
 Red. masses --      1.1117                 1.1716                 1.0650
 Frc consts  --      6.7430                 8.4081                 9.1925
 IR Inten    --      1.5464                63.4357               128.7664

 - Thermochemistry -
 -------------------
 Temperature   298.150 Kelvin.  Pressure   1.00000 Atm.
 Atom     1 has atomic number  8 and mass  15.99491

 Molecular mass:   115.03952 amu.
 Principal axes and moments of inertia in atomic units:
                           1         2         3
     Eigenvalues --   538.720171519.765431850.92587
           X            0.99973  -0.02292   0.00316
           Y            0.02294   0.99971  -0.00680
           Z           -0.00300   0.00687   0.99997
 This molecule is an asymmetric top.
 Rotational symmetry number  1.
 Warning -- assumption of classical behavior for rotation
           may cause significant error
 Rotational temperatures (Kelvin)      0.16078     0.05699     0.04679
 Rotational constants (GHZ):           3.35005     1.18751     0.97505
    2 imaginary frequencies ignored.
 Zero-point vibrational energy     281143.5 (Joules/Mol)
                                   67.19490 (Kcal/Mol)
 Warning -- explicit consideration of  11 degrees of freedom as
           vibrations may cause significant error
 Vibrational temperatures:    124.88   165.51   257.83   276.82   392.68
          (Kelvin)            482.92   558.24   599.01   690.22   821.39
                              879.99   982.91  1012.73  1076.43  1122.85
                             1133.51  1220.22  1276.22  1363.71  1383.97
                             1569.94  1632.38  1781.40  1846.23  1931.00
                             2029.00  2079.34  2131.62  2337.81  2633.19
                             3269.15  4426.81  4487.56  4505.42  4616.41
                             5021.37  5506.92

 Zero-point correction=                           0.107082 (Hartree/Particle)
 Thermal correction to Energy=                    0.115373
 Thermal correction to Enthalpy=                  0.116317
 Thermal correction to Gibbs Free Energy=         0.073428
 Sum of electronic and zero-point Energies=           -420.102639
 Sum of electronic and thermal Energies=              -420.094348
 Sum of electronic and thermal Enthalpies=            -420.093404
 Sum of electronic and thermal Free Energies=         -420.136293

                     E (Thermal)             CV                S
                      KCal/Mol        Cal/Mol-Kelvin    Cal/Mol-Kelvin
 Total                   72.398             30.313             90.268
 Electronic               0.000              0.000              1.377
 Translational            0.889              2.981             40.136
 Rotational               0.889              2.981             28.807
 Vibrational             70.620             24.352             19.948
 Vibration     1          0.601              1.958              3.731
 Vibration     2          0.608              1.937              3.182
 Vibration     3          0.629              1.868              2.337
 Vibration     4          0.634              1.850              2.205
 Vibration     5          0.676              1.723              1.578
 Vibration     6          0.717              1.604              1.233
 Vibration     7          0.756              1.496              1.008
 Vibration     8          0.780              1.435              0.905
 Vibration     9          0.836              1.295              0.711
 Vibration    10          0.927              1.094              0.503
 Vibration    11          0.971              1.007              0.430

 1\1\GINC-AJ\Freq\UM062X\6-311++G(d,p)\C5H7O3(2)\AAYUSH\23-Jun-2025\0\\
 # freq 6-311++g(d,p) m062x\\Title Card Required\\0,2\O,2.289027,1.6764
 18,-0.320027\H,1.486428,1.803829,0.206494\C,-3.372949,0.219228,-0.5056
 51\H,-4.388857,0.294582,-0.816593\C,-2.230884,0.134168,-0.155073\C,-0.
 846843,0.085493,0.283497\O,-0.283388,1.007157,0.810799\O,-0.302307,-1.
 103492,0.034113\C,1.063341,-1.296346,0.448504\C,2.04055,-0.810231,-0.5
 83405\H,1.149286,-2.379623,0.567199\H,1.218471,-0.819322,1.4183\H,3.06
 1777,-1.123056,-0.373965\H,1.738122,-1.011957,-1.609361\H,2.188831,0.6

 Normal termination of Gaussian 16 at Mon Jun 23 01:52:01 2025.
