 Gaussian 16, Revision A.03,
 Gaussian 16:  ES64L-G16RevA.03 25-Dec-2016

 --------------------------
 # ccsd(t)/6-311++g(d,p) sp
 --------------------------

 -------------------
 Title Card Required
 -------------------
 Symbolic Z-matrix:
 Charge =  0 Multiplicity = 2

                         Standard orientation:
 ---------------------------------------------------------------------
 Center     Atomic      Atomic             Coordinates (Angstroms)
 Number     Number       Type             X           Y           Z
 ---------------------------------------------------------------------
      1          8           0        2.289348    1.734020   -0.321889
      2          1           0        1.468108    1.802234    0.202308
      3          6           0       -3.372481    0.210697   -0.507758
      4          1           0       -4.388407    0.280294   -0.819817
      5          6           0       -2.230307    0.131824   -0.155828
      6          6           0       -0.845008    0.087267    0.282359
      7          8           0       -0.284017    1.018285    0.802412
      8          8           0       -0.300630   -1.097970    0.043242
      9          6           0        1.067931   -1.294636    0.461758
     10          6           0        2.045505   -0.818971   -0.584579
     11          1           0        1.140455   -2.372697    0.597865
     12          1           0        1.219179   -0.798831    1.421623
     13          1           0        3.047788   -1.188877   -0.365239
     14          1           0        1.745949   -1.135754   -1.584400
     15          1           0        2.135485    0.281875   -0.618174
 ---------------------------------------------------------------------

 SCF Done:  E(UHF) =  -417.983591238     A.U. after   28 cycles
 E2 =    -0.1268462205D+01 EUMP2 =    -0.41925205344360D+03
 CCSD(T)= -0.41935345293D+03

 The electronic state is 2-A.
 Alpha  occ. eigenvalues --  -20.62793 -20.61532 -20.57781 -11.43485 -11.30484
 Alpha  occ. eigenvalues --  -11.27682 -11.26851 -11.22500  -1.49866  -1.39758
 Alpha  occ. eigenvalues --   -1.37861  -1.08927  -1.04988  -0.93834  -0.85131
 Alpha  occ. eigenvalues --   -0.77835  -0.73968  -0.72152  -0.70252  -0.68305
 Alpha  occ. eigenvalues --   -0.65490  -0.62724  -0.58310  -0.56439  -0.54709
 Alpha  occ. eigenvalues --   -0.53430  -0.50369  -0.48670  -0.46886  -0.43680
 Alpha  occ. eigenvalues --   -0.43512
 Alpha virt. eigenvalues --    0.03551   0.04502   0.06048   0.06841   0.07428
 Alpha virt. eigenvalues --    0.07713   0.09331   0.10259   0.11064   0.11366
 Alpha virt. eigenvalues --    0.12241   0.13870   0.14263   0.15167   0.16322

  Beta  occ. eigenvalues --  -20.62792 -20.57791 -20.57537 -11.43487 -11.30523
  Beta  occ. eigenvalues --  -11.27683 -11.26850 -11.21953  -1.49867  -1.39732
  Beta  occ. eigenvalues --   -1.22935  -1.08812  -1.04438  -0.93114  -0.84557
  Beta  occ. eigenvalues --   -0.77798  -0.73920  -0.71784  -0.68406  -0.63964
  Beta  occ. eigenvalues --   -0.62430  -0.58637  -0.56264  -0.54288  -0.50945
  Beta  occ. eigenvalues --   -0.49979  -0.49102  -0.47749  -0.43668  -0.43508
  Beta virt. eigenvalues --    0.03553   0.04507   0.06009   0.06484   0.07305
  Beta virt. eigenvalues --    0.07447   0.08135   0.10104   0.11025   0.11136
  Beta virt. eigenvalues --    0.12019   0.12552   0.13955   0.14265   0.15402

 Mulliken charges and spin densities:
               1          2
     1  O   -0.274589   0.932366
     2  H    0.291100  -0.024958
     3  C   -0.702963  -0.001482
     4  H    0.205366   0.000032
     5  C    1.378710   0.004671
     6  C   -0.691940   0.002854
     7  O   -0.353256  -0.002494
     8  O   -0.056876   0.000106
     9  C   -0.287371  -0.033522
    10  C   -0.412776   0.203440
    11  H    0.162807   0.005743
    12  H    0.203864   0.003287
    13  H    0.135748  -0.012074
    14  H    0.161777  -0.007001
    15  H    0.240399  -0.070967
 Sum of Mulliken charges =  -0.00000   1.00000

 Dipole moment (field-independent basis, Debye):
    X=             -2.0297    Y=             -2.1005    Z=              0.0065  Tot=              2.9209
 Quadrupole moment (field-independent basis, Debye-Ang):
   XX=            -39.7169   YY=            -50.1734   ZZ=            -48.3291
   XY=             -6.0487   XZ=              4.7276   YZ=             -1.2344

 PMP3-0=-419.2792189\MP4SDQ=-419.3016219\CCSD=-419.3004247\CCSD(T)=-419
 Normal termination of Gaussian 16 at Thu Aug 21 19:05:43 2025.
