 Gaussian 16, Revision A.03,
 Gaussian 16:  ES64L-G16RevA.03 25-Dec-2016

 --------------------------
 # ccsd(t)/6-311++g(d,p) sp
 --------------------------

 -------------------
 Title Card Required
 -------------------
 Symbolic Z-matrix:
 Charge =  0 Multiplicity = 2

                         Standard orientation:
 ---------------------------------------------------------------------
 Center     Atomic      Atomic             Coordinates (Angstroms)
 Number     Number       Type             X           Y           Z
 ---------------------------------------------------------------------
      1          8           0        2.289090    1.729440   -0.321903
      2          1           0        1.468613    1.801842    0.202631
      3          6           0       -3.372544    0.210907   -0.507613
      4          1           0       -4.388477    0.280774   -0.819588
      5          6           0       -2.230364    0.131736   -0.155791
      6          6           0       -0.845137    0.086996    0.282434
      7          8           0       -0.284192    1.017512    0.803195
      8          8           0       -0.300541   -1.098214    0.042483
      9          6           0        1.067999   -1.294372    0.460605
     10          6           0        2.045509   -0.815175   -0.584024
     11          1           0        1.141777   -2.372676    0.594583
     12          1           0        1.218945   -0.800433    1.421510
     13          1           0        3.048294   -1.184914   -0.366826
     14          1           0        1.745571   -1.123936   -1.586169
     15          1           0        2.137650    0.288885   -0.610000
 ---------------------------------------------------------------------

 SCF Done:  E(UHF) =  -417.982604505     A.U. after   28 cycles
 E2 =    -0.1269012396D+01 EUMP2 =    -0.41925161690084D+03
 CCSD(T)= -0.41935310869D+03

 The electronic state is 2-A.
 Alpha  occ. eigenvalues --  -20.62792 -20.61512 -20.57782 -11.43483 -11.30482
 Alpha  occ. eigenvalues --  -11.27682 -11.26852 -11.22532  -1.49865  -1.39761
 Alpha  occ. eigenvalues --   -1.37885  -1.08928  -1.04990  -0.93842  -0.85137
 Alpha  occ. eigenvalues --   -0.77833  -0.73968  -0.72173  -0.70341  -0.68306
 Alpha  occ. eigenvalues --   -0.65479  -0.62718  -0.58311  -0.56449  -0.54700
 Alpha  occ. eigenvalues --   -0.53425  -0.50366  -0.48642  -0.46732  -0.43680
 Alpha  occ. eigenvalues --   -0.43513
 Alpha virt. eigenvalues --    0.03551   0.04502   0.06051   0.06840   0.07427
 Alpha virt. eigenvalues --    0.07707   0.09330   0.10258   0.11071   0.11372
 Alpha virt. eigenvalues --    0.12243   0.13871   0.14264   0.15163   0.16323

  Beta  occ. eigenvalues --  -20.62790 -20.57792 -20.57527 -11.43485 -11.30524
  Beta  occ. eigenvalues --  -11.27684 -11.26850 -11.21959  -1.49866  -1.39735
  Beta  occ. eigenvalues --   -1.23027  -1.08808  -1.04415  -0.93090  -0.84538
  Beta  occ. eigenvalues --   -0.77793  -0.73920  -0.71785  -0.68417  -0.63949
  Beta  occ. eigenvalues --   -0.62458  -0.58622  -0.56270  -0.54266  -0.50939
  Beta  occ. eigenvalues --   -0.49954  -0.49096  -0.47726  -0.43668  -0.43509
  Beta virt. eigenvalues --    0.03553   0.04508   0.06011   0.06469   0.07298
  Beta virt. eigenvalues --    0.07445   0.08124   0.10100   0.11016   0.11132
  Beta virt. eigenvalues --    0.12038   0.12547   0.13954   0.14267   0.15399

 Mulliken charges and spin densities:
               1          2
     1  O   -0.275746   0.927609
     2  H    0.291058  -0.024564
     3  C   -0.702752  -0.001473
     4  H    0.205369   0.000032
     5  C    1.378690   0.004677
     6  C   -0.691535   0.003185
     7  O   -0.353233  -0.002625
     8  O   -0.056924   0.000119
     9  C   -0.287644  -0.034945
    10  C   -0.414156   0.213475
    11  H    0.162728   0.006106
    12  H    0.203991   0.003527
    13  H    0.135883  -0.012546
    14  H    0.161985  -0.007546
    15  H    0.242285  -0.075033
 Sum of Mulliken charges =  -0.00000   1.00000

 Dipole moment (field-independent basis, Debye):
    X=             -2.0285    Y=             -2.0973    Z=              0.0049  Tot=              2.9178
 Quadrupole moment (field-independent basis, Debye-Ang):
   XX=            -39.7027   YY=            -50.1768   ZZ=            -48.3291
   XY=             -6.0487   XZ=              4.7251   YZ=             -1.2339

 419.2787258\MP4SDQ=-419.3011443\CCSD=-419.3000017\CCSD(T)=-419.3531087
 Normal termination of Gaussian 16 at Wed Jul  9 18:53:14 2025.
