 Gaussian 16, Revision A.03,
 Gaussian 16:  ES64L-G16RevA.03 25-Dec-2016

 --------------------------
 # ccsd(t)/6-311++g(d,p) sp
 --------------------------

 -------------------
 Title Card Required
 -------------------
 Symbolic Z-matrix:
 Charge =  0 Multiplicity = 2

                         Standard orientation:
 ---------------------------------------------------------------------
 Center     Atomic      Atomic             Coordinates (Angstroms)
 Number     Number       Type             X           Y           Z
 ---------------------------------------------------------------------
      1          8           0        2.287968    1.706290   -0.321781
      2          1           0        1.472232    1.800116    0.204481
      3          6           0       -3.372818    0.212384   -0.506843
      4          1           0       -4.388782    0.283798   -0.818380
      5          6           0       -2.230625    0.131570   -0.155569
      6          6           0       -0.845864    0.086004    0.282835
      7          8           0       -0.284798    1.013501    0.806876
      8          8           0       -0.300221   -1.099835    0.038762
      9          6           0        1.067656   -1.293285    0.455020
     10          6           0        2.045067   -0.799115   -0.582056
     11          1           0        1.148069   -2.372817    0.579969
     12          1           0        1.218537   -0.807597    1.420315
     13          1           0        3.052759   -1.159448   -0.372780
     14          1           0        1.744326   -1.066376   -1.595412
     15          1           0        2.148768    0.337330   -0.569378
 ---------------------------------------------------------------------

 SCF Done:  E(UHF) =  -417.975917671     A.U. after   33 cycles
 E2 =    -0.1273209985D+01 EUMP2 =    -0.41924912765557D+03
 CCSD(T)= -0.41935126265D+03

 The electronic state is 2-A.
 Alpha  occ. eigenvalues --  -20.62806 -20.61272 -20.57803 -11.43482 -11.30530
 Alpha  occ. eigenvalues --  -11.27697 -11.26862 -11.22974  -1.49871  -1.39800
 Alpha  occ. eigenvalues --   -1.37913  -1.08951  -1.05026  -0.93884  -0.85166
 Alpha  occ. eigenvalues --   -0.77845  -0.73982  -0.72334  -0.70752  -0.68283
 Alpha  occ. eigenvalues --   -0.65330  -0.62701  -0.58397  -0.56563  -0.54576
 Alpha  occ. eigenvalues --   -0.53426  -0.50363  -0.48567  -0.45498  -0.43691
 Alpha  occ. eigenvalues --   -0.43531
 Alpha virt. eigenvalues --    0.03547   0.04489   0.06056   0.06832   0.07413
 Alpha virt. eigenvalues --    0.07668   0.09337   0.10254   0.11099   0.11420
 Alpha virt. eigenvalues --    0.12249   0.13864   0.14262   0.15137   0.16316

  Beta  occ. eigenvalues --  -20.62804 -20.57814 -20.57386 -11.43484 -11.30587
  Beta  occ. eigenvalues --  -11.27699 -11.26860 -11.22194  -1.49872  -1.39777
  Beta  occ. eigenvalues --   -1.23635  -1.08800  -1.04263  -0.92896  -0.84391
  Beta  occ. eigenvalues --   -0.77788  -0.73930  -0.71805  -0.68490  -0.63841
  Beta  occ. eigenvalues --   -0.62588  -0.58555  -0.56343  -0.54152  -0.50905
  Beta  occ. eigenvalues --   -0.49773  -0.48980  -0.47519  -0.43677  -0.43525
  Beta virt. eigenvalues --    0.03549   0.04497   0.05989   0.06370   0.07228
  Beta virt. eigenvalues --    0.07429   0.08032   0.10069   0.10917   0.11124
  Beta virt. eigenvalues --    0.12140   0.12484   0.13930   0.14265   0.15370

 Mulliken charges and spin densities:
               1          2
     1  O   -0.286309   0.889787
     2  H    0.290900  -0.021590
     3  C   -0.701535  -0.001620
     4  H    0.205429   0.000048
     5  C    1.378932   0.004918
     6  C   -0.688410   0.005553
     7  O   -0.352483  -0.003567
     8  O   -0.056747   0.000172
     9  C   -0.289924  -0.046588
    10  C   -0.421232   0.295934
    11  H    0.162614   0.009272
    12  H    0.205198   0.005514
    13  H    0.138326  -0.016821
    14  H    0.165081  -0.011710
    15  H    0.250159  -0.109300
 Sum of Mulliken charges =  -0.00000   1.00000

 Dipole moment (field-independent basis, Debye):
    X=             -2.0360    Y=             -2.1364    Z=             -0.0037  Tot=              2.9512
 Quadrupole moment (field-independent basis, Debye-Ang):
   XX=            -39.6428   YY=            -50.2887   ZZ=            -48.3094
   XY=             -6.1957   XZ=              4.7068   YZ=             -1.2048

 MP3-0=-419.2758197\MP4SDQ=-419.2983235\CCSD=-419.2975719\CCSD(T)=-419.
 Normal termination of Gaussian 16 at Thu Aug 21 14:01:17 2025.
