 Gaussian 16, Revision A.03,
 Gaussian 16:  ES64L-G16RevA.03 25-Dec-2016

 --------------------------
 # ccsd(t)/6-311++g(d,p) sp
 --------------------------

 -------------------
 Title Card Required
 -------------------
 Symbolic Z-matrix:
 Charge =  0 Multiplicity = 2

                         Standard orientation:
 ---------------------------------------------------------------------
 Center     Atomic      Atomic             Coordinates (Angstroms)
 Number     Number       Type             X           Y           Z
 ---------------------------------------------------------------------
      1          8           0        2.289450    1.672894   -0.319671
      2          1           0        1.489583    1.806934    0.206764
      3          6           0       -3.372951    0.220662   -0.505497
      4          1           0       -4.388835    0.296729   -0.816364
      5          6           0       -2.230923    0.134824   -0.155003
      6          6           0       -0.846989    0.085437    0.283574
      7          8           0       -0.282978    1.006298    0.811204
      8          8           0       -0.302892   -1.104065    0.033613
      9          6           0        1.062472   -1.297138    0.447749
     10          6           0        2.039400   -0.815660   -0.583802
     11          1           0        1.148505   -2.380930    0.566382
     12          1           0        1.218343   -0.821006    1.418088
     13          1           0        3.063185   -1.117341   -0.373540
     14          1           0        1.736695   -1.005204   -1.611343
     15          1           0        2.197833    0.651051   -0.513280
 ---------------------------------------------------------------------

 SCF Done:  E(UHF) =  -417.974668638     A.U. after   26 cycles
 E2 =    -0.1292936076D+01 EUMP2 =    -0.41926760471342D+03
 CCSD(T)= -0.41936217136D+03

 The electronic state is 2-A.
 Alpha  occ. eigenvalues --  -20.63702 -20.58133 -20.53579 -11.43773 -11.32469
 Alpha  occ. eigenvalues --  -11.27953 -11.27688 -11.27105  -1.50550  -1.40369
 Alpha  occ. eigenvalues --   -1.32362  -1.10099  -1.06782  -0.95271  -0.86151
 Alpha  occ. eigenvalues --   -0.78894  -0.74250  -0.72622  -0.70624  -0.68459
 Alpha  occ. eigenvalues --   -0.64400  -0.61218  -0.59048  -0.57738  -0.55516
 Alpha  occ. eigenvalues --   -0.50660  -0.49609  -0.47641  -0.43908  -0.43783
 Alpha  occ. eigenvalues --   -0.41121
 Alpha virt. eigenvalues --    0.03325   0.03952   0.05601   0.06544   0.07179
 Alpha virt. eigenvalues --    0.07320   0.09780   0.10453   0.10866   0.11789
 Alpha virt. eigenvalues --    0.12109   0.13410   0.13876   0.14918   0.15918

  Beta  occ. eigenvalues --  -20.63700 -20.58120 -20.52267 -11.43782 -11.32672
  Beta  occ. eigenvalues --  -11.27965 -11.27092 -11.25291  -1.50538  -1.40335
  Beta  occ. eigenvalues --   -1.28170  -1.09221  -1.04673  -0.92356  -0.84003
  Beta  occ. eigenvalues --   -0.78642  -0.74185  -0.72246  -0.69337  -0.64095
  Beta  occ. eigenvalues --   -0.63090  -0.59710  -0.57840  -0.55264  -0.53148
  Beta  occ. eigenvalues --   -0.50407  -0.48891  -0.46146  -0.43878  -0.43772
  Beta virt. eigenvalues --    0.03343   0.03942   0.05348   0.06420   0.06591
  Beta virt. eigenvalues --    0.07196   0.07496   0.09897   0.10680   0.10870
  Beta virt. eigenvalues --    0.12109   0.12807   0.13432   0.13892   0.15053

 Mulliken charges and spin densities:
               1          2
     1  O   -0.560439   0.248944
     2  H    0.280586   0.000974
     3  C   -0.694047  -0.006826
     4  H    0.206441   0.000469
     5  C    1.371151   0.004506
     6  C   -0.686939   0.005197
     7  O   -0.334130   0.000806
     8  O   -0.050832  -0.002227
     9  C   -0.308090  -0.134396
    10  C   -0.396545   1.035376
    11  H    0.180510   0.052098
    12  H    0.224620   0.021875
    13  H    0.171318  -0.056821
    14  H    0.201497  -0.049663
    15  H    0.394900  -0.120312
 Sum of Mulliken charges =  -0.00000   1.00000

 Dipole moment (field-independent basis, Debye):
    X=             -2.4035    Y=             -4.3572    Z=             -0.1814  Tot=              4.9794
 Quadrupole moment (field-independent basis, Debye-Ang):
   XX=            -40.2460   YY=            -53.4341   ZZ=            -47.5659
   XY=            -11.7186   XZ=              4.1684   YZ=             -0.5244

 3-0=-419.2863322\MP4SDQ=-419.3103125\CCSD=-419.3077292\CCSD(T)=-419.36
 Normal termination of Gaussian 16 at Wed Aug 20 18:35:30 2025.
