 Gaussian 16, Revision A.03,
 Gaussian 16:  ES64L-G16RevA.03 25-Dec-2016

 --------------------------
 # ccsd(t)/6-311++g(d,p) sp
 --------------------------

 -------------------
 Title Card Required
 -------------------
 Symbolic Z-matrix:
 Charge =  0 Multiplicity = 2

                         Standard orientation:
 ---------------------------------------------------------------------
 Center     Atomic      Atomic             Coordinates (Angstroms)
 Number     Number       Type             X           Y           Z
 ---------------------------------------------------------------------
      1          8           0        2.288136    1.710887   -0.321856
      2          1           0        1.471280    1.800393    0.204079
      3          6           0       -3.372771    0.211978   -0.507003
      4          1           0       -4.388730    0.283036   -0.818630
      5          6           0       -2.230576    0.131536   -0.155620
      6          6           0       -0.845706    0.086131    0.282745
      7          8           0       -0.284732    1.014336    0.806181
      8          8           0       -0.300243   -1.099438    0.039497
      9          6           0        1.067872   -1.293413    0.456093
     10          6           0        2.045250   -0.801586   -0.582291
     11          1           0        1.146923   -2.372666    0.582608
     12          1           0        1.218493   -0.806218    1.420628
     13          1           0        3.051552   -1.165341   -0.371939
     14          1           0        1.744603   -1.077472   -1.593474
     15          1           0        2.146174    0.324113   -0.577392
 ---------------------------------------------------------------------

 SCF Done:  E(UHF) =  -417.977681391     A.U. after   34 cycles
 E2 =    -0.1272020322D+01 EUMP2 =    -0.41924970171322D+03
 CCSD(T)= -0.41935166595D+03

 The electronic state is 2-A.
 Alpha  occ. eigenvalues --  -20.62797 -20.61355 -20.57796 -11.43480 -11.30505
 Alpha  occ. eigenvalues --  -11.27692 -11.26858 -11.22814  -1.49866  -1.39787
 Alpha  occ. eigenvalues --   -1.37934  -1.08942  -1.05010  -0.93875  -0.85160
 Alpha  occ. eigenvalues --   -0.77836  -0.73977  -0.72292  -0.70677  -0.68293
 Alpha  occ. eigenvalues --   -0.65384  -0.62702  -0.58359  -0.56525  -0.54620
 Alpha  occ. eigenvalues --   -0.53421  -0.50361  -0.48569  -0.45848  -0.43687
 Alpha  occ. eigenvalues --   -0.43525
 Alpha virt. eigenvalues --    0.03549   0.04495   0.06058   0.06835   0.07418
 Alpha virt. eigenvalues --    0.07679   0.09332   0.10255   0.11095   0.11406
 Alpha virt. eigenvalues --    0.12249   0.13869   0.14265   0.15144   0.16320

  Beta  occ. eigenvalues --  -20.62796 -20.57806 -20.57436 -11.43482 -11.30558
  Beta  occ. eigenvalues --  -11.27694 -11.26857 -11.22094  -1.49867  -1.39762
  Beta  occ. eigenvalues --   -1.23480  -1.08800  -1.04300  -0.92952  -0.84433
  Beta  occ. eigenvalues --   -0.77783  -0.73926  -0.71797  -0.68471  -0.63871
  Beta  occ. eigenvalues --   -0.62563  -0.58565  -0.56317  -0.54174  -0.50914
  Beta  occ. eigenvalues --   -0.49824  -0.49023  -0.47585  -0.43674  -0.43520
  Beta virt. eigenvalues --    0.03551   0.04503   0.06002   0.06397   0.07251
  Beta virt. eigenvalues --    0.07434   0.08059   0.10079   0.10948   0.11126
  Beta virt. eigenvalues --    0.12119   0.12507   0.13939   0.14268   0.15379

 Mulliken charges and spin densities:
               1          2
     1  O   -0.282884   0.900864
     2  H    0.290923  -0.022430
     3  C   -0.701842  -0.001575
     4  H    0.205407   0.000043
     5  C    1.378855   0.004847
     6  C   -0.689294   0.004893
     7  O   -0.352765  -0.003306
     8  O   -0.056889   0.000167
     9  C   -0.289325  -0.043084
    10  C   -0.419662   0.271219
    11  H    0.162543   0.008295
    12  H    0.204802   0.004919
    13  H    0.137437  -0.015486
    14  H    0.163928  -0.010517
    15  H    0.248766  -0.098850
 Sum of Mulliken charges =  -0.00000   1.00000

 Dipole moment (field-independent basis, Debye):
    X=             -2.0315    Y=             -2.1134    Z=             -0.0016  Tot=              2.9315
 Quadrupole moment (field-independent basis, Debye-Ang):
   XX=            -39.6505   YY=            -50.2434   ZZ=            -48.3181
   XY=             -6.1270   XZ=              4.7125   YZ=             -1.2173

 5\PMP3-0=-419.2765078\MP4SDQ=-419.2989949\CCSD=-419.2981377\CCSD(T)=-4
 Normal termination of Gaussian 16 at Thu Aug 21 14:50:35 2025.
