 Gaussian 16, Revision A.03,
 Gaussian 16:  ES64L-G16RevA.03 25-Dec-2016

 -------------------
 # freq 6-31+g m062x
 -------------------

 -------------------
 Title Card Required
 -------------------
 Symbolic Z-matrix:
 Charge =  0 Multiplicity = 2

                         Standard orientation:
 ---------------------------------------------------------------------
 Center     Atomic      Atomic             Coordinates (Angstroms)
 Number     Number       Type             X           Y           Z
 ---------------------------------------------------------------------
      1          8           0        2.288846    1.678361   -0.320183
      2          1           0        1.484980    1.802760    0.206383
      3          6           0       -3.372947    0.218550   -0.505733
      4          1           0       -4.388865    0.293561   -0.816715
      5          6           0       -2.230866    0.133867   -0.155111
      6          6           0       -0.846777    0.085532    0.283458
      7          8           0       -0.283580    1.007598    0.810578
      8          8           0       -0.302037   -1.103208    0.034388
      9          6           0        1.063752   -1.295959    0.448908
     10          6           0        2.041055   -0.807982   -0.583208
     11          1           0        1.149580   -2.378947    0.567759
     12          1           0        1.218542   -0.818438    1.418409
     13          1           0        3.061146   -1.125496   -0.374082
     14          1           0        1.738775   -1.015057   -1.608388
     15          1           0        2.184710    0.575562   -0.521514
 ---------------------------------------------------------------------

 SCF Done:  E(UM062X) =  -419.954554964     A.U. after   21 cycles

 The electronic state is 2-A.
 Alpha  occ. eigenvalues --  -19.72864 -19.68445 -19.63848 -10.75097 -10.64228
 Alpha  occ. eigenvalues --  -10.59850 -10.59488 -10.59019  -1.30198  -1.20763
 Alpha  occ. eigenvalues --   -1.11867  -0.93161  -0.89507  -0.80614  -0.72985
 Alpha  occ. eigenvalues --   -0.67102  -0.62641  -0.61100  -0.60462  -0.57793
 Alpha  occ. eigenvalues --   -0.54817  -0.51878  -0.50466  -0.47358  -0.45870
 Alpha  occ. eigenvalues --   -0.41481  -0.40865  -0.38763  -0.38006  -0.37847
 Alpha  occ. eigenvalues --   -0.31839
 Alpha virt. eigenvalues --   -0.03410   0.01246   0.01896   0.03118   0.03354
 Alpha virt. eigenvalues --    0.03964   0.04569   0.05994   0.07134   0.07492
 Alpha virt. eigenvalues --    0.08085   0.08741   0.09408   0.11001   0.11885

  Beta  occ. eigenvalues --  -19.72862 -19.68446 -19.63035 -10.75097 -10.64264
  Beta  occ. eigenvalues --  -10.59850 -10.59488 -10.58387  -1.30191  -1.20750
  Beta  occ. eigenvalues --   -1.09076  -0.92703  -0.88959  -0.79443  -0.72271
  Beta  occ. eigenvalues --   -0.66864  -0.62597  -0.60749  -0.59835  -0.55345
  Beta  occ. eigenvalues --   -0.53608  -0.50825  -0.49485  -0.45762  -0.43565
  Beta  occ. eigenvalues --   -0.41315  -0.40125  -0.38708  -0.37912  -0.36290
  Beta virt. eigenvalues --   -0.09457  -0.03383   0.01127   0.01886   0.03040
  Beta virt. eigenvalues --    0.03310   0.04003   0.04573   0.06016   0.07013
  Beta virt. eigenvalues --    0.07552   0.08187   0.08873   0.09488   0.11096

 Mulliken charges and spin densities:
               1          2
     1  O   -0.664726   0.387271
     2  H    0.473041  -0.005744
     3  C    0.304197   0.007108
     4  H    0.351088   0.000025
     5  C    0.479917   0.021876
     6  C   -0.793045  -0.013271
     7  O   -0.444683  -0.006258
     8  O   -0.215696  -0.000018
     9  C   -0.297123  -0.066942
    10  C   -0.490104   0.763424
    11  H    0.242774   0.036131
    12  H    0.253104   0.014060
    13  H    0.239043  -0.029709
    14  H    0.244549  -0.024101
    15  H    0.317662  -0.083851
 Sum of Mulliken charges =  -0.00000   1.00000

 Dipole moment (field-independent basis, Debye):
    X=             -2.4287    Y=             -3.9995    Z=              0.1011  Tot=              4.6802
 Quadrupole moment (field-independent basis, Debye-Ang):
   XX=            -41.9136   YY=            -53.5180   ZZ=            -48.1587
   XY=            -11.7058   XZ=              4.2806   YZ=             -0.5596

  Exact polarizability:  88.978  -0.676  72.553   7.868   2.775  48.713
 Approx polarizability:  94.366   2.087  81.337  13.252   7.296  54.781

 ******    3 imaginary frequencies (negative Signs) ******

                      1                      2                      3
                      A                      A                      A
 Frequencies --  -1204.9219              -331.9858               -89.6539
 Red. masses --      1.1556                 1.0773                 5.5869
 Frc consts  --      0.9885                 0.0700                 0.0265
 IR Inten    --    386.3627                97.6722                 0.1083

                      4                      5                      6
                      A                      A                      A
 Frequencies --     39.9985                82.4802               130.5513
 Red. masses --      4.6217                 4.2346                 3.3979
 Frc consts  --      0.0044                 0.0170                 0.0341
 IR Inten    --      6.5202                 7.9268                 1.3179

                      7                      8                      9
                      A                      A                      A
 Frequencies --    177.7393               254.5375               313.9425
 Red. masses --      6.0394                 3.6426                 3.1859
 Frc consts  --      0.1124                 0.1390                 0.1850
 IR Inten    --     10.4261                 2.3482                16.4170

                     10                     11                     12
                      A                      A                      A
 Frequencies --    396.5725               440.0952               566.3113
 Red. masses --      1.6971                 1.7631                 3.3608
 Frc consts  --      0.1573                 0.2012                 0.6350
 IR Inten    --     17.4302                31.1890                 4.8479

                     13                     14                     15
                      A                      A                      A
 Frequencies --    602.0804               627.7859               649.9127
 Red. masses --      3.2326                 4.5518                 1.2482
 Frc consts  --      0.6904                 1.0570                 0.3106
 IR Inten    --      1.4202                10.5717               104.3513

                     16                     17                     18
                      A                      A                      A
 Frequencies --    781.9821               818.6136               862.3168
 Red. masses --      3.3099                 1.4258                 2.4701
 Frc consts  --      1.1925                 0.5629                 1.0822
 IR Inten    --     68.2707                59.0472                14.3686

                     19                     20                     21
                      A                      A                      A
 Frequencies --    875.1611               912.7231               963.3096
 Red. masses --      1.8541                 1.8873                 2.1892
 Frc consts  --      0.8367                 0.9264                 1.1969
 IR Inten    --     19.8413                10.7588                 7.7923

                     22                     23                     24
                      A                      A                      A
 Frequencies --   1037.9735              1132.9621              1157.7124
 Red. masses --      1.1605                 4.0728                 1.8339
 Frc consts  --      0.7367                 3.0801                 1.4482
 IR Inten    --     94.3475                 3.2214                 2.5746

                     25                     26                     27
                      A                      A                      A
 Frequencies --   1208.5339              1306.8297              1373.9230
 Red. masses --      1.6196                 1.4836                 2.4659
 Frc consts  --      1.3938                 1.4928                 2.7425
 IR Inten    --      6.8742               188.6038               395.2775

                     28                     29                     30
                      A                      A                      A
 Frequencies --   1437.6542              1471.3252              1516.5383
 Red. masses --      1.4605                 1.1315                 1.0974
 Frc consts  --      1.7785                 1.4432                 1.4870
 IR Inten    --     72.6050                10.2521                30.6077

                     31                     32                     33
                      A                      A                      A
 Frequencies --   1658.1625              1897.8435              2335.5423
 Red. masses --      1.0579                11.9726                 5.5405
 Frc consts  --      1.7137                25.4073                17.8063
 IR Inten    --    252.7314               276.5507                91.7851

                     34                     35                     36
                      A                      A                      A
 Frequencies --   3108.3279              3156.0263              3166.0483
 Red. masses --      1.0584                 1.0626                 1.0944
 Frc consts  --      6.0248                 6.2356                 6.4635
 IR Inten    --     11.3027                 2.0122                 3.3724

                     37                     38                     39
                      A                      A                      A
 Frequencies --   3249.6042              3532.6090              3840.7078
 Red. masses --      1.1097                 1.1799                 1.0639
 Frc consts  --      6.9040                 8.6753                 9.2465
 IR Inten    --      2.8590                55.3086                74.9511

 - Thermochemistry -
 -------------------
 Temperature   298.150 Kelvin.  Pressure   1.00000 Atm.
 Atom     1 has atomic number  8 and mass  15.99491

 Molecular mass:   115.03952 amu.
 Principal axes and moments of inertia in atomic units:
                           1         2         3
     Eigenvalues --   538.777281519.763481850.97996
           X            0.99973  -0.02318   0.00315
           Y            0.02320   0.99971  -0.00661
           Z           -0.00299   0.00668   0.99997
 This molecule is an asymmetric top.
 Rotational symmetry number  1.
 Warning -- assumption of classical behavior for rotation
           may cause significant error
 Rotational temperatures (Kelvin)      0.16076     0.05699     0.04679
 Rotational constants (GHZ):           3.34970     1.18751     0.97502
    3 imaginary frequencies ignored.
 Zero-point vibrational energy     281627.5 (Joules/Mol)
                                   67.31058 (Kcal/Mol)
 Warning -- explicit consideration of  10 degrees of freedom as
           vibrations may cause significant error
 Vibrational temperatures:     57.55   118.67   187.83   255.73   366.22
          (Kelvin)            451.69   570.58   633.20   814.80   866.26
                              903.24   935.08  1125.10  1177.80  1240.68
                             1259.16  1313.21  1385.99  1493.41  1630.08
                             1665.69  1738.81  1880.24  1976.77  2068.46
                             2116.91  2181.96  2385.73  2730.57  3360.32
                             4472.19  4540.82  4555.24  4675.46  5082.64
                             5525.92

 Zero-point correction=                           0.107266 (Hartree/Particle)
 Thermal correction to Energy=                    0.115585
 Thermal correction to Enthalpy=                  0.116530
 Thermal correction to Gibbs Free Energy=         0.072548
 Sum of electronic and zero-point Energies=           -419.847289
 Sum of electronic and thermal Energies=              -419.838970
 Sum of electronic and thermal Enthalpies=            -419.838025
 Sum of electronic and thermal Free Energies=         -419.882007

                     E (Thermal)             CV                S
                      KCal/Mol        Cal/Mol-Kelvin    Cal/Mol-Kelvin
 Total                   72.531             28.878             92.566
 Electronic               0.000              0.000              1.377
 Translational            0.889              2.981             40.136
 Rotational               0.889              2.981             28.807
 Vibrational             70.753             22.917             22.246
 Vibration     1          0.594              1.981              5.259
 Vibration     2          0.600              1.961              3.831
 Vibration     3          0.612              1.923              2.938
 Vibration     4          0.628              1.870              2.352
 Vibration     5          0.665              1.755              1.699
 Vibration     6          0.702              1.647              1.341
 Vibration     7          0.763              1.477              0.975
 Vibration     8          0.800              1.383              0.826
 Vibration     9          0.922              1.104              0.511
 Vibration    10          0.960              1.027              0.446

 Normal termination of Gaussian 16 at Fri Jun 20 12:57:57 2025.
