 Gaussian 16, Revision A.03,
 Gaussian 16:  ES64L-G16RevA.03 25-Dec-2016

 --------------------------
 # freq 6-311++g(d,p) m062x
 --------------------------

 -------------------
 Title Card Required
 -------------------
 Symbolic Z-matrix:
 Charge =  0 Multiplicity = 2

                         Standard orientation:
 ---------------------------------------------------------------------
 Center     Atomic      Atomic             Coordinates (Angstroms)
 Number     Number       Type             X           Y           Z
 ---------------------------------------------------------------------
      1          8           0        2.289450    1.672894   -0.319671
      2          1           0        1.489583    1.806934    0.206764
      3          6           0       -3.372951    0.220662   -0.505497
      4          1           0       -4.388835    0.296728   -0.816364
      5          6           0       -2.230923    0.134824   -0.155003
      6          6           0       -0.846989    0.085437    0.283574
      7          8           0       -0.282978    1.006298    0.811204
      8          8           0       -0.302892   -1.104065    0.033613
      9          6           0        1.062472   -1.297138    0.447749
     10          6           0        2.039400   -0.815660   -0.583802
     11          1           0        1.148505   -2.380930    0.566382
     12          1           0        1.218343   -0.821006    1.418088
     13          1           0        3.063185   -1.117341   -0.373540
     14          1           0        1.736695   -1.005204   -1.611343
     15          1           0        2.197833    0.651051   -0.513280
 ---------------------------------------------------------------------

 SCF Done:  E(UM062X) =  -420.213621197     A.U. after   17 cycles

 The electronic state is 2-A.
 Alpha  occ. eigenvalues --  -19.70350 -19.65068 -19.60139 -10.72574 -10.63204
 Alpha  occ. eigenvalues --  -10.58229 -10.58189 -10.57702  -1.27703  -1.18362
 Alpha  occ. eigenvalues --   -1.10598  -0.92401  -0.88688  -0.79911  -0.72264
 Alpha  occ. eigenvalues --   -0.66746  -0.62289  -0.61046  -0.59887  -0.57344
 Alpha  occ. eigenvalues --   -0.54526  -0.51721  -0.50153  -0.47317  -0.46010
 Alpha  occ. eigenvalues --   -0.41417  -0.40867  -0.38399  -0.37554  -0.37388
 Alpha  occ. eigenvalues --   -0.31283
 Alpha virt. eigenvalues --   -0.03066  -0.00767   0.00266   0.01344   0.02223
 Alpha virt. eigenvalues --    0.02718   0.03258   0.05117   0.05430   0.06411
 Alpha virt. eigenvalues --    0.06866   0.07271   0.07603   0.09233   0.09908

  Beta  occ. eigenvalues --  -19.70348 -19.65066 -19.59616 -10.72574 -10.63243
  Beta  occ. eigenvalues --  -10.58190 -10.57701 -10.57523  -1.27692  -1.18346
  Beta  occ. eigenvalues --   -1.08556  -0.91829  -0.87991  -0.78522  -0.71338
  Beta  occ. eigenvalues --   -0.66486  -0.62233  -0.60718  -0.59202  -0.54899
  Beta  occ. eigenvalues --   -0.53724  -0.50639  -0.49229  -0.46014  -0.44327
  Beta  occ. eigenvalues --   -0.41281  -0.40413  -0.38364  -0.37494  -0.36460
  Beta virt. eigenvalues --   -0.07880  -0.03041  -0.00660   0.00301   0.01539
  Beta virt. eigenvalues --    0.02383   0.02888   0.03268   0.05326   0.05531
  Beta virt. eigenvalues --    0.06444   0.07112   0.07366   0.07611   0.09362

 Mulliken charges and spin densities:
               1          2
     1  O   -0.483530   0.225448
     2  H    0.267226   0.008581
     3  C   -0.631877  -0.000103
     4  H    0.182640   0.000048
     5  C    1.212603  -0.001318
     6  C   -0.649322   0.005023
     7  O   -0.269100  -0.001949
     8  O    0.028425  -0.000385
     9  C   -0.433364  -0.052523
    10  C   -0.425635   0.858030
    11  H    0.208271   0.044831
    12  H    0.241414   0.016247
    13  H    0.196131  -0.029460
    14  H    0.217076  -0.020186
    15  H    0.339042  -0.052283
 Sum of Mulliken charges =  -0.00000   1.00000

 Dipole moment (field-independent basis, Debye):
    X=             -2.1783    Y=             -4.0120    Z=             -0.0784  Tot=              4.5659
 Quadrupole moment (field-independent basis, Debye-Ang):
   XX=            -40.7529   YY=            -52.5731   ZZ=            -47.5770
   XY=            -10.9008   XZ=              3.9307   YZ=             -0.4555

  Exact polarizability:  93.168  -1.958  70.088   7.392   2.114  52.455
 Approx polarizability: 100.114   0.622  81.345  12.111   5.467  63.443

 ******    1 imaginary frequencies (negative Signs) ******

                      1                      2                      3
                      A                      A                      A
 Frequencies --    -66.5427                78.6633                92.7284
 Red. masses --      5.2984                 4.5683                 4.3014
 Frc consts  --      0.0138                 0.0167                 0.0218
 IR Inten    --      3.0775                 1.3571                 3.7075

                      4                      5                      6
                      A                      A                      A
 Frequencies --    152.6217               173.4831               190.0911
 Red. masses --      4.6215                 3.8928                 4.9278
 Frc consts  --      0.0634                 0.0690                 0.1049
 IR Inten    --     11.7746                 6.5516                 4.0274

                      7                      8                      9
                      A                      A                      A
 Frequencies --    272.7071               332.3681               352.2427
 Red. masses --      4.4097                 2.7622                 1.2046
 Frc consts  --      0.1932                 0.1798                 0.0881
 IR Inten    --      2.5375                 9.2302                21.1835

                     10                     11                     12
                      A                      A                      A
 Frequencies --    409.1906               454.4270               561.9651
 Red. masses --      1.4272                 2.0750                 2.8280
 Frc consts  --      0.1408                 0.2525                 0.5262
 IR Inten    --     43.7029                13.2208                 4.6490

                     13                     14                     15
                      A                      A                      A
 Frequencies --    604.3667               611.7210               748.2924
 Red. masses --      1.2162                 5.9005                 1.3134
 Frc consts  --      0.2617                 1.3009                 0.4333
 IR Inten    --     76.4997                 7.5972                39.9870

                     16                     17                     18
                      A                      A                      A
 Frequencies --    765.2371               780.7649               791.1983
 Red. masses --      1.2678                 1.4072                 3.7574
 Frc consts  --      0.4374                 0.5054                 1.3858
 IR Inten    --     59.5838                15.8896                76.0760

                     19                     20                     21
                      A                      A                      A
 Frequencies --    806.8077               889.9440               922.5370
 Red. masses --      1.2590                 2.7862                 2.1327
 Frc consts  --      0.4829                 1.3001                 1.0694
 IR Inten    --      5.5360                23.9735                 1.8827

                     22                     23                     24
                      A                      A                      A
 Frequencies --   1031.8590              1091.5044              1130.9057
 Red. masses --      2.1122                 4.0199                 1.9150
 Frc consts  --      1.3250                 2.8217                 1.4430
 IR Inten    --      0.2670                19.0355                 5.9792

                     25                     26                     27
                      A                      A                      A
 Frequencies --   1277.3298              1334.5292              1409.3499
 Red. masses --      2.0942                 1.7788                 1.3409
 Frc consts  --      2.0131                 1.8665                 1.5693
 IR Inten    --    343.9154               314.8020                32.8304

                     28                     29                     30
                      A                      A                      A
 Frequencies --   1444.9833              1480.0890              1530.9286
 Red. masses --      1.2001                 1.1038                 1.1356
 Frc consts  --      1.4763                 1.4246                 1.5682
 IR Inten    --      5.5775                27.0668                90.7767

                     31                     32                     33
                      A                      A                      A
 Frequencies --   1830.8902              2069.9889              2272.2482
 Red. masses --     11.7551                 1.1038                 5.7369
 Frc consts  --     23.2167                 2.7865                17.4518
 IR Inten    --    330.5119                28.4696                89.1972

                     34                     35                     36
                      A                      A                      A
 Frequencies --   3071.9137              3121.4256              3128.8169
 Red. masses --      1.0597                 1.0680                 1.0883
 Frc consts  --      5.8916                 6.1309                 6.2774
 IR Inten    --     11.1128                 1.2140                 2.4785

                     37                     38                     39
                      A                      A                      A
 Frequencies --   3214.8842              3489.9849              3845.9016
 Red. masses --      1.1123                 1.1716                 1.0645
 Frc consts  --      6.7736                 8.4080                 9.2770
 IR Inten    --      1.3300                63.4344               127.0876

 - Thermochemistry -
 -------------------
 Temperature   298.150 Kelvin.  Pressure   1.00000 Atm.
 Atom     1 has atomic number  8 and mass  15.99491

 Molecular mass:   115.03952 amu.
 Principal axes and moments of inertia in atomic units:
                           1         2         3
     Eigenvalues --   538.765761519.776691850.97778
           X            0.99974  -0.02239   0.00317
           Y            0.02241   0.99972  -0.00718
           Z           -0.00301   0.00725   0.99997
 This molecule is an asymmetric top.
 Rotational symmetry number  1.
 Warning -- assumption of classical behavior for rotation
           may cause significant error
 Rotational temperatures (Kelvin)      0.16076     0.05699     0.04679
 Rotational constants (GHZ):           3.34977     1.18750     0.97502
    1 imaginary frequencies ignored.
 Zero-point vibrational energy     285721.4 (Joules/Mol)
                                   68.28906 (Kcal/Mol)
 Warning -- explicit consideration of  13 degrees of freedom as
           vibrations may cause significant error
 Vibrational temperatures:    113.18   133.42   219.59   249.60   273.50
          (Kelvin)            392.36   478.20   506.80   588.73   653.82
                              808.54   869.55   880.13  1076.63  1101.01
                             1123.35  1138.36  1160.82  1280.43  1327.33
                             1484.62  1570.43  1627.12  1837.79  1920.09
                             2027.74  2079.01  2129.52  2202.66  2634.24
                             2978.25  3269.26  4419.80  4491.04  4501.67
                             4625.50  5021.31  5533.39

 Zero-point correction=                           0.108826 (Hartree/Particle)
 Thermal correction to Energy=                    0.117909
 Thermal correction to Enthalpy=                  0.118853
 Thermal correction to Gibbs Free Energy=         0.074231
 Sum of electronic and zero-point Energies=           -420.104796
 Sum of electronic and thermal Energies=              -420.095712
 Sum of electronic and thermal Enthalpies=            -420.094768
 Sum of electronic and thermal Free Energies=         -420.139390

                     E (Thermal)             CV                S
                      KCal/Mol        Cal/Mol-Kelvin    Cal/Mol-Kelvin
 Total                   73.989             32.333             93.916
 Electronic               0.000              0.000              1.377
 Translational            0.889              2.981             40.136
 Rotational               0.889              2.981             28.807
 Vibrational             72.212             26.371             23.596
 Vibration     1          0.600              1.964              3.924
 Vibration     2          0.602              1.954              3.602
 Vibration     3          0.619              1.900              2.639
 Vibration     4          0.627              1.875              2.397
 Vibration     5          0.633              1.854              2.227
 Vibration     6          0.676              1.724              1.579
 Vibration     7          0.714              1.611              1.249
 Vibration     8          0.729              1.571              1.156
 Vibration     9          0.774              1.450              0.929
 Vibration    10          0.813              1.351              0.782
 Vibration    11          0.918              1.114              0.520
 Vibration    12          0.963              1.023              0.442
 Vibration    13          0.971              1.007              0.430

 1\1\GINC-AJ\Freq\UM062X\6-311++G(d,p)\C5H7O3(2)\AAYUSH\23-Jun-2025\0\\
 # freq 6-311++g(d,p) m062x\\Title Card Required\\0,2\O,2.28945,1.67289
 4,-0.319671\H,1.489583,1.806934,0.206764\C,-3.372951,0.220662,-0.50549
 7\H,-4.388835,0.296729,-0.816364\C,-2.230923,0.134824,-0.155003\C,-0.8
 46989,0.085437,0.283574\O,-0.282978,1.006298,0.811204\O,-0.302892,-1.1
 04065,0.033613\C,1.062472,-1.297138,0.447749\C,2.0394,-0.81566,-0.5838
 02\H,1.148505,-2.38093,0.566382\H,1.218343,-0.821006,1.418088\H,3.0631
 85,-1.117341,-0.37354\H,1.736695,-1.005204,-1.611343\H,2.197833,0.6510

 Normal termination of Gaussian 16 at Mon Jun 23 02:23:41 2025.
