 Gaussian 16, Revision A.03,
 Gaussian 16:  ES64L-G16RevA.03 25-Dec-2016

 --------------------------
 # ccsd(t)/6-311++g(d,p) sp
 --------------------------

 -------------------
 Title Card Required
 -------------------
 Symbolic Z-matrix:
 Charge =  0 Multiplicity = 2

                         Standard orientation:
 ---------------------------------------------------------------------
 Center     Atomic      Atomic             Coordinates (Angstroms)
 Number     Number       Type             X           Y           Z
 ---------------------------------------------------------------------
      1          8           0        2.287865    1.698150   -0.321499
      2          1           0        1.474583    1.799762    0.205172
      3          6           0       -3.372885    0.213463   -0.506542
      4          1           0       -4.388851    0.285650   -0.817919
      5          6           0       -2.230705    0.131831   -0.155464
      6          6           0       -0.846153    0.085872    0.283021
      7          8           0       -0.284767    1.011906    0.808055
      8          8           0       -0.300343   -1.100672    0.037451
      9          6           0        1.066957   -1.293377    0.453165
     10          6           0        2.044467   -0.797024   -0.581943
     11          1           0        1.149680   -2.373603    0.575659
     12          1           0        1.218710   -0.810258    1.419713
     13          1           0        3.055199   -1.148489   -0.373746
     14          1           0        1.743455   -1.048133   -1.599014
     15          1           0        2.155089    0.375410   -0.555339
 ---------------------------------------------------------------------

 SCF Done:  E(UHF) =  -417.971038325     A.U. after   33 cycles
 E2 =    -0.1276767176D+01 EUMP2 =    -0.41924780550140D+03
 CCSD(T)= -0.41935033151D+03

 The electronic state is 2-A.
 Alpha  occ. eigenvalues --  -20.62851 -20.60941 -20.57823 -11.43494 -11.30650
 Alpha  occ. eigenvalues --  -11.27714 -11.26876 -11.23561  -1.49901  -1.39840
 Alpha  occ. eigenvalues --   -1.37711  -1.08995  -1.05118  -0.93928  -0.85191
 Alpha  occ. eigenvalues --   -0.77898  -0.73997  -0.72421  -0.70866  -0.68254
 Alpha  occ. eigenvalues --   -0.65106  -0.62703  -0.58559  -0.56706  -0.54426
 Alpha  occ. eigenvalues --   -0.53415  -0.50371  -0.48621  -0.44545  -0.43699
 Alpha  occ. eigenvalues --   -0.43548
 Alpha virt. eigenvalues --    0.03539   0.04456   0.06036   0.06824   0.07399
 Alpha virt. eigenvalues --    0.07637   0.09364   0.10254   0.11097   0.11460
 Alpha virt. eigenvalues --    0.12245   0.13839   0.14243   0.15117   0.16297

  Beta  occ. eigenvalues --  -20.62850 -20.57834 -20.57174 -11.43496 -11.30723
  Beta  occ. eigenvalues --  -11.27716 -11.26874 -11.22593  -1.49902  -1.39822
  Beta  occ. eigenvalues --   -1.24037  -1.08812  -1.04196  -0.92743  -0.84273
  Beta  occ. eigenvalues --   -0.77824  -0.73945  -0.71832  -0.68544  -0.63765
  Beta  occ. eigenvalues --   -0.62621  -0.58560  -0.56443  -0.54143  -0.50885
  Beta  occ. eigenvalues --   -0.49620  -0.48853  -0.47306  -0.43688  -0.43541
  Beta virt. eigenvalues --    0.03541   0.04463   0.05912   0.06299   0.07144
  Beta virt. eigenvalues --    0.07412   0.07949   0.10039   0.10823   0.11113
  Beta virt. eigenvalues --    0.12181   0.12411   0.13894   0.14246   0.15338

 Mulliken charges and spin densities:
               1          2
     1  O   -0.299593   0.853601
     2  H    0.290830  -0.019050
     3  C   -0.700747  -0.001838
     4  H    0.205503   0.000067
     5  C    1.379022   0.005191
     6  C   -0.686151   0.007467
     7  O   -0.351480  -0.004279
     8  O   -0.056103   0.000132
     9  C   -0.291480  -0.058023
    10  C   -0.423725   0.376478
    11  H    0.163309   0.012600
    12  H    0.206768   0.007443
    13  H    0.141386  -0.021288
    14  H    0.169368  -0.015404
    15  H    0.253092  -0.143098
 Sum of Mulliken charges =  -0.00000   1.00000

 Dipole moment (field-independent basis, Debye):
    X=             -2.0564    Y=             -2.2604    Z=             -0.0117  Tot=              3.0559
 Quadrupole moment (field-independent basis, Debye-Ang):
   XX=            -39.6573   YY=            -50.4703   ZZ=            -48.2702
   XY=             -6.5232   XZ=              4.6809   YZ=             -1.1511

 P3-0=-419.2741634\MP4SDQ=-419.2966749\CCSD=-419.296182\CCSD(T)=-419.35
 Normal termination of Gaussian 16 at Tue Jul  8 19:11:23 2025.
