 Gaussian 16, Revision A.03,
 Gaussian 16:  ES64L-G16RevA.03 25-Dec-2016

 --------------------------
 # freq 6-311++g(d,p) m062x
 --------------------------

 -------------------
 Title Card Required
 -------------------
 Symbolic Z-matrix:
 Charge =  0 Multiplicity = 2

                         Standard orientation:
 ---------------------------------------------------------------------
 Center     Atomic      Atomic             Coordinates (Angstroms)
 Number     Number       Type             X           Y           Z
 ---------------------------------------------------------------------
      1          8           0        2.289090    1.729440   -0.321903
      2          1           0        1.468613    1.801842    0.202631
      3          6           0       -3.372544    0.210907   -0.507613
      4          1           0       -4.388477    0.280775   -0.819588
      5          6           0       -2.230364    0.131736   -0.155791
      6          6           0       -0.845137    0.086996    0.282434
      7          8           0       -0.284192    1.017512    0.803195
      8          8           0       -0.300541   -1.098214    0.042483
      9          6           0        1.067999   -1.294372    0.460605
     10          6           0        2.045509   -0.815175   -0.584024
     11          1           0        1.141777   -2.372676    0.594583
     12          1           0        1.218945   -0.800433    1.421510
     13          1           0        3.048294   -1.184914   -0.366826
     14          1           0        1.745571   -1.123936   -1.586169
     15          1           0        2.137650    0.288885   -0.610000
 ---------------------------------------------------------------------

 SCF Done:  E(UM062X) =  -420.202986110     A.U. after   20 cycles

 The electronic state is 2-A.
 Alpha  occ. eigenvalues --  -19.69776 -19.65969 -19.64778 -10.72316 -10.61759
 Alpha  occ. eigenvalues --  -10.57960 -10.57489 -10.54725  -1.27221  -1.17874
 Alpha  occ. eigenvalues --   -1.12407  -0.91592  -0.88035  -0.79419  -0.71823
 Alpha  occ. eigenvalues --   -0.65884  -0.62067  -0.60511  -0.58960  -0.56631
 Alpha  occ. eigenvalues --   -0.53956  -0.51625  -0.49127  -0.48190  -0.44951
 Alpha  occ. eigenvalues --   -0.41579  -0.40954  -0.40317  -0.38155  -0.37745
 Alpha  occ. eigenvalues --   -0.37316
 Alpha virt. eigenvalues --   -0.02835  -0.00371   0.00466   0.01752   0.02309
 Alpha virt. eigenvalues --    0.03017   0.03455   0.04924   0.05647   0.06415
 Alpha virt. eigenvalues --    0.06624   0.07378   0.07881   0.09329   0.10120

  Beta  occ. eigenvalues --  -19.69776 -19.64781 -19.64492 -10.72316 -10.61768
  Beta  occ. eigenvalues --  -10.57960 -10.57490 -10.54501  -1.27219  -1.17868
  Beta  occ. eigenvalues --   -1.05626  -0.91438  -0.87787  -0.78934  -0.71498
  Beta  occ. eigenvalues --   -0.65826  -0.62033  -0.60329  -0.58530  -0.54524
  Beta  occ. eigenvalues --   -0.51910  -0.49798  -0.47955  -0.46018  -0.42950
  Beta  occ. eigenvalues --   -0.40890  -0.39813  -0.38239  -0.37972  -0.37280
  Beta virt. eigenvalues --   -0.09082  -0.02812  -0.00329   0.00486   0.01825
  Beta virt. eigenvalues --    0.02543   0.03122   0.03467   0.05349   0.05718
  Beta virt. eigenvalues --    0.06527   0.06831   0.07514   0.07921   0.09540

 Mulliken charges and spin densities:
               1          2
     1  O   -0.282113   0.847448
     2  H    0.269169  -0.010921
     3  C   -0.638135  -0.001219
     4  H    0.181809  -0.000028
     5  C    1.219456   0.006668
     6  C   -0.661364   0.004161
     7  O   -0.277191  -0.001772
     8  O    0.026965  -0.000459
     9  C   -0.422376  -0.023959
    10  C   -0.437869   0.216244
    11  H    0.195197   0.008552
    12  H    0.227358   0.002373
    13  H    0.174574  -0.006755
    14  H    0.191108  -0.001456
    15  H    0.233411  -0.038875
 Sum of Mulliken charges =  -0.00000   1.00000

 Dipole moment (field-independent basis, Debye):
    X=             -1.8697    Y=             -2.5561    Z=             -0.0015  Tot=              3.1669
 Quadrupole moment (field-independent basis, Debye-Ang):
   XX=            -40.3145   YY=            -50.2439   ZZ=            -48.0667
   XY=             -7.1586   XZ=              4.2246   YZ=             -0.8477

  Exact polarizability:  93.037  -2.143  72.187   7.717   2.349  52.085
 Approx polarizability:  99.964   0.132  80.702  12.268   5.724  62.812

 ******    3 imaginary frequencies (negative Signs) ******

                      1                      2                      3
                      A                      A                      A
 Frequencies --   -307.5585              -136.6179               -24.1188
 Red. masses --      1.5198                 2.5526                 4.1644
 Frc consts  --      0.0847                 0.0281                 0.0014
 IR Inten    --     34.6224                 3.0931                 1.5656

                      4                      5                      6
                      A                      A                      A
 Frequencies --     56.3971                86.5237               141.5708
 Red. masses --      3.3469                 3.2621                 5.5378
 Frc consts  --      0.0063                 0.0144                 0.0654
 IR Inten    --      4.0227                 3.0812                 1.0286

                      7                      8                      9
                      A                      A                      A
 Frequencies --    191.1246               273.0558               334.6739
 Red. masses --      4.5003                 4.2842                 3.4841
 Frc consts  --      0.0969                 0.1882                 0.2299
 IR Inten    --      8.6541                 2.2539                12.5899

                     10                     11                     12
                      A                      A                      A
 Frequencies --    414.9922               430.5787               562.7654
 Red. masses --      3.6368                 1.0556                 4.2430
 Frc consts  --      0.3690                 0.1153                 0.7917
 IR Inten    --      2.6057                94.4521                 1.5496

                     13                     14                     15
                      A                      A                      A
 Frequencies --    610.3398               681.4510               746.0643
 Red. masses --      7.1850                 1.1375                 1.3138
 Frc consts  --      1.5769                 0.3112                 0.4309
 IR Inten    --      9.8440               120.3034                38.8153

                     16                     17                     18
                      A                      A                      A
 Frequencies --    779.4436               789.7796               823.7627
 Red. masses --      1.4436                 5.6460                 1.2035
 Frc consts  --      0.5167                 2.0749                 0.4812
 IR Inten    --     18.2665                51.7109                69.2386

                     19                     20                     21
                      A                      A                      A
 Frequencies --    888.4339               935.5042              1082.0538
 Red. masses --      2.8272                 3.0633                 3.8793
 Frc consts  --      1.3148                 1.5796                 2.6761
 IR Inten    --     26.1097                12.6041                29.1359

                     22                     23                     24
                      A                      A                      A
 Frequencies --   1109.5654              1168.1490              1298.3762
 Red. masses --      2.1630                 1.8449                 2.7777
 Frc consts  --      1.5690                 1.4832                 2.7589
 IR Inten    --     18.9282                 7.1961               449.0048

                     25                     26                     27
                      A                      A                      A
 Frequencies --   1343.5812              1371.9362              1401.6466
 Red. masses --      1.3066                 1.0750                 1.3350
 Frc consts  --      1.3897                 1.1921                 1.5453
 IR Inten    --    155.6297                 7.4845                58.7310

                     28                     29                     30
                      A                      A                      A
 Frequencies --   1438.1329              1457.1616              1505.8545
 Red. masses --      1.3985                 1.0587                 1.1059
 Frc consts  --      1.7041                 1.3245                 1.4775
 IR Inten    --     28.3014                 1.7617                21.4471

                     31                     32                     33
                      A                      A                      A
 Frequencies --   1816.3589              2271.3410              2388.8877
 Red. masses --     11.5939                 5.7392                 1.1037
 Frc consts  --     22.5363                17.4450                 3.7112
 IR Inten    --    314.9453                86.4533               641.9809

                     34                     35                     36
                      A                      A                      A
 Frequencies --   3102.6196              3105.0316              3159.5396
 Red. masses --      1.0583                 1.0604                 1.1070
 Frc consts  --      6.0023                 6.0235                 6.5108
 IR Inten    --      8.8921                17.2661                 7.9087

                     37                     38                     39
                      A                      A                      A
 Frequencies --   3168.3802              3490.2616              3715.2130
 Red. masses --      1.1051                 1.1715                 1.0666
 Frc consts  --      6.5359                 8.4080                 8.6740
 IR Inten    --      7.4247                63.3047               150.1369

 - Thermochemistry -
 -------------------
 Temperature   298.150 Kelvin.  Pressure   1.00000 Atm.
 Atom     1 has atomic number  8 and mass  15.99491

 Molecular mass:   115.03952 amu.
 Principal axes and moments of inertia in atomic units:
                           1         2         3
     Eigenvalues --   549.564781519.890881861.43409
           X            0.99963  -0.02693   0.00290
           Y            0.02694   0.99963  -0.00374
           Z           -0.00280   0.00382   0.99999
 This molecule is an asymmetric top.
 Rotational symmetry number  1.
 Warning -- assumption of classical behavior for rotation
           may cause significant error
 Rotational temperatures (Kelvin)      0.15760     0.05699     0.04653
 Rotational constants (GHZ):           3.28395     1.18741     0.96954
    3 imaginary frequencies ignored.
 Zero-point vibrational energy     287944.4 (Joules/Mol)
                                   68.82037 (Kcal/Mol)
 Warning -- explicit consideration of  10 degrees of freedom as
           vibrations may cause significant error
 Vibrational temperatures:     81.14   124.49   203.69   274.99   392.87
          (Kelvin)            481.52   597.08   619.51   809.69   878.14
                              980.46  1073.42  1121.45  1136.32  1185.21
                             1278.26  1345.98  1556.83  1596.42  1680.71
                             1868.07  1933.11  1973.91  2016.66  2069.15
                             2096.53  2166.59  2613.34  3267.95  3437.08
                             4463.98  4467.45  4545.87  4558.59  5021.71
                             5345.36

 Zero-point correction=                           0.109672 (Hartree/Particle)
 Thermal correction to Energy=                    0.117747
 Thermal correction to Enthalpy=                  0.118691
 Thermal correction to Gibbs Free Energy=         0.075464
 Sum of electronic and zero-point Energies=           -420.093314
 Sum of electronic and thermal Energies=              -420.085239
 Sum of electronic and thermal Enthalpies=            -420.084295
 Sum of electronic and thermal Free Energies=         -420.127522

                     E (Thermal)             CV                S
                      KCal/Mol        Cal/Mol-Kelvin    Cal/Mol-Kelvin
 Total                   73.888             28.072             90.980
 Electronic               0.000              0.000              1.377
 Translational            0.889              2.981             40.136
 Rotational               0.889              2.981             28.832
 Vibrational             72.110             22.110             20.635
 Vibration     1          0.596              1.975              4.579
 Vibration     2          0.601              1.959              3.737
 Vibration     3          0.615              1.912              2.783
 Vibration     4          0.634              1.852              2.217
 Vibration     5          0.676              1.723              1.577
 Vibration     6          0.716              1.606              1.237
 Vibration     7          0.778              1.438              0.909
 Vibration     8          0.792              1.404              0.857
 Vibration     9          0.919              1.112              0.518
 Vibration    10          0.969              1.010              0.432

 1\1\GINC-AJ\Freq\UM062X\6-311++G(d,p)\C5H7O3(2)\AAYUSH\16-Aug-2025\0\\
 # freq 6-311++g(d,p) m062x\\Title Card Required\\0,2\O,2.345535,1.7021
 11,-0.324681\H,1.525212,1.772863,0.200319\C,-3.317443,0.189321,-0.5162
 1\H,-4.333369,0.261469,-0.827688\C,-2.175271,0.107583,-0.16495\C,-0.79
 0007,0.059676,0.272824\O,-0.228167,0.987357,0.797663\O,-0.246478,-1.12
 4913,0.027452\C,1.121964,-1.324131,0.444446\C,2.099707,-0.841089,-0.59
 8192\H,1.194833,-2.40309,0.573563\H,1.273504,-0.834647,1.407534\H,3.10
 221,-1.212667,-0.382836\H,1.799329,-1.145084,-1.601661\H,2.192799,0.26

 Normal termination of Gaussian 16 at Sat Aug 16 16:09:40 2025.
