 Gaussian 16, Revision A.03,
 Gaussian 16:  ES64L-G16RevA.03 25-Dec-2016

 -------------------
 # freq 6-31+g m062x
 -------------------

 -------------------
 Title Card Required
 -------------------
 Symbolic Z-matrix:
 Charge =  0 Multiplicity = 2

                         Standard orientation:
 ---------------------------------------------------------------------
 Center     Atomic      Atomic             Coordinates (Angstroms)
 Number     Number       Type             X           Y           Z
 ---------------------------------------------------------------------
      1          8           0        2.288379    1.684732   -0.320651
      2          1           0        1.480902    1.800631    0.206038
      3          6           0       -3.372937    0.216592   -0.506000
      4          1           0       -4.388880    0.290578   -0.817110
      5          6           0       -2.230813    0.133025   -0.155233
      6          6           0       -0.846580    0.085671    0.283332
      7          8           0       -0.284108    1.009006    0.809826
      8          8           0       -0.301292   -1.102345    0.035323
      9          6           0        1.064948   -1.294848    0.450236
     10          6           0        2.042438   -0.802353   -0.582643
     11          1           0        1.150177   -2.376884    0.569888
     12          1           0        1.218729   -0.815643    1.418775
     13          1           0        3.059235   -1.132613   -0.374222
     14          1           0        1.740625   -1.024695   -1.605323
     15          1           0        2.173055    0.498953   -0.532190
 ---------------------------------------------------------------------

 SCF Done:  E(UM062X) =  -419.952788922     A.U. after   22 cycles

 The electronic state is 2-A.
 Alpha  occ. eigenvalues --  -19.72732 -19.68361 -19.65093 -10.75021 -10.63945
 Alpha  occ. eigenvalues --  -10.59794 -10.59434 -10.58430  -1.30081  -1.20642
 Alpha  occ. eigenvalues --   -1.11896  -0.92971  -0.89366  -0.80501  -0.72892
 Alpha  occ. eigenvalues --   -0.66899  -0.62588  -0.60927  -0.60252  -0.57634
 Alpha  occ. eigenvalues --   -0.54486  -0.51468  -0.50151  -0.48203  -0.45675
 Alpha  occ. eigenvalues --   -0.41392  -0.40765  -0.38808  -0.38513  -0.37933
 Alpha  occ. eigenvalues --   -0.32772
 Alpha virt. eigenvalues --   -0.03347   0.01334   0.01927   0.03213   0.03421
 Alpha virt. eigenvalues --    0.04020   0.04590   0.06044   0.07170   0.07568
 Alpha virt. eigenvalues --    0.08168   0.08719   0.09390   0.11023   0.11930

  Beta  occ. eigenvalues --  -19.72731 -19.68363 -19.64045 -10.75021 -10.63974
  Beta  occ. eigenvalues --  -10.59794 -10.59434 -10.57886  -1.30076  -1.20633
  Beta  occ. eigenvalues --   -1.08277  -0.92604  -0.88896  -0.79513  -0.72294
  Beta  occ. eigenvalues --   -0.66709  -0.62548  -0.60643  -0.59672  -0.55224
  Beta  occ. eigenvalues --   -0.52957  -0.50462  -0.49226  -0.45710  -0.43441
  Beta  occ. eigenvalues --   -0.41208  -0.39979  -0.38657  -0.37855  -0.36404
  Beta virt. eigenvalues --   -0.09906  -0.03322   0.01259   0.01917   0.03172
  Beta virt. eigenvalues --    0.03380   0.04078   0.04634   0.06081   0.07088
  Beta virt. eigenvalues --    0.07635   0.08276   0.08881   0.09509   0.11161

 Mulliken charges and spin densities:
               1          2
     1  O   -0.602630   0.530551
     2  H    0.470082  -0.011411
     3  C    0.296835   0.008923
     4  H    0.350832   0.000020
     5  C    0.468328   0.022638
     6  C   -0.777163  -0.016234
     7  O   -0.444278  -0.006477
     8  O   -0.215112  -0.000197
     9  C   -0.290739  -0.054558
    10  C   -0.507747   0.624413
    11  H    0.239462   0.028551
    12  H    0.250396   0.011062
    13  H    0.238760  -0.023074
    14  H    0.244405  -0.017573
    15  H    0.278570  -0.096634
 Sum of Mulliken charges =  -0.00000   1.00000

 Dipole moment (field-independent basis, Debye):
    X=             -2.3504    Y=             -3.6831    Z=              0.1160  Tot=              4.3708
 Quadrupole moment (field-independent basis, Debye-Ang):
   XX=            -41.7577   YY=            -52.9370   ZZ=            -48.2589
   XY=            -10.8758   XZ=              4.3409   YZ=             -0.6361

  Exact polarizability:  88.969  -0.299  74.884   7.969   2.859  48.606
 Approx polarizability:  94.366   2.366  84.180  13.326   7.515  54.683

 ******    3 imaginary frequencies (negative Signs) ******

                      1                      2                      3
                      A                      A                      A
 Frequencies --  -1448.3622              -322.4535               -82.3806
 Red. masses --      1.0865                 1.0944                 5.6201
 Frc consts  --      1.3429                 0.0670                 0.0225
 IR Inten    --    692.3988               111.7308                 0.1384

                      4                      5                      6
                      A                      A                      A
 Frequencies --     41.8687                87.2006               131.4448
 Red. masses --      4.5933                 4.2657                 3.3636
 Frc consts  --      0.0047                 0.0191                 0.0342
 IR Inten    --      7.2533                 8.5276                 1.1176

                      7                      8                      9
                      A                      A                      A
 Frequencies --    174.2812               255.6665               314.3093
 Red. masses --      5.9755                 3.6458                 3.1876
 Frc consts  --      0.1069                 0.1404                 0.1855
 IR Inten    --     12.0403                 2.1814                16.9031

                     10                     11                     12
                      A                      A                      A
 Frequencies --    394.1364               439.2288               552.8898
 Red. masses --      1.5744                 1.9385                 4.0786
 Frc consts  --      0.1441                 0.2203                 0.7346
 IR Inten    --     15.5644                23.1973                 4.0205

                     13                     14                     15
                      A                      A                      A
 Frequencies --    576.2232               627.9276               712.4627
 Red. masses --      3.6880                 5.5555                 1.1678
 Frc consts  --      0.7215                 1.2906                 0.3492
 IR Inten    --      0.6875                13.8363               149.3566

                     16                     17                     18
                      A                      A                      A
 Frequencies --    782.2449               818.3275               872.8421
 Red. masses --      3.2927                 1.4246                 2.8700
 Frc consts  --      1.1871                 0.5621                 1.2883
 IR Inten    --     72.0963                55.8421                12.1703

                     19                     20                     21
                      A                      A                      A
 Frequencies --    875.2841               927.8234               970.7973
 Red. masses --      1.9501                 1.8753                 1.9132
 Frc consts  --      0.8802                 0.9512                 1.0624
 IR Inten    --     17.8168                14.1363                14.0679

                     22                     23                     24
                      A                      A                      A
 Frequencies --   1128.4430              1142.8259              1181.1979
 Red. masses --      2.8915                 2.2299                 1.4417
 Frc consts  --      2.1694                 1.7159                 1.1852
 IR Inten    --     30.8613                26.8328                12.7219

                     25                     26                     27
                      A                      A                      A
 Frequencies --   1219.6707              1310.6668              1375.6422
 Red. masses --      1.2157                 1.5031                 2.3758
 Frc consts  --      1.0655                 1.5214                 2.6489
 IR Inten    --     27.7299               195.6087               386.5825

                     28                     29                     30
                      A                      A                      A
 Frequencies --   1440.9614              1474.1610              1521.7532
 Red. masses --      1.4593                 1.1254                 1.0978
 Frc consts  --      1.7853                 1.4410                 1.4978
 IR Inten    --     73.0720                11.1720                29.8615

                     31                     32                     33
                      A                      A                      A
 Frequencies --   1554.3792              1895.8887              2335.5023
 Red. masses --      1.0583                12.1498                 5.5411
 Frc consts  --      1.5065                25.7303                17.8075
 IR Inten    --    216.8042               283.3516                91.2736

                     34                     35                     36
                      A                      A                      A
 Frequencies --   3116.4204              3152.1138              3171.7323
 Red. masses --      1.0578                 1.0570                 1.1028
 Frc consts  --      6.0527                 6.1874                 6.5366
 IR Inten    --     12.2975                 3.2346                 2.7382

                     37                     38                     39
                      A                      A                      A
 Frequencies --   3240.0941              3532.6906              3814.2609
 Red. masses --      1.1084                 1.1799                 1.0647
 Frc consts  --      6.8562                 8.6755                 9.1267
 IR Inten    --      3.5111                55.2189                76.8920

 - Thermochemistry -
 -------------------
 Temperature   298.150 Kelvin.  Pressure   1.00000 Atm.
 Atom     1 has atomic number  8 and mass  15.99491

 Molecular mass:   115.03952 amu.
 Principal axes and moments of inertia in atomic units:
                           1         2         3
     Eigenvalues --   539.197611519.765571851.38998
           X            0.99971  -0.02395   0.00311
           Y            0.02397   0.99969  -0.00605
           Z           -0.00297   0.00613   0.99998
 This molecule is an asymmetric top.
 Rotational symmetry number  1.
 Warning -- assumption of classical behavior for rotation
           may cause significant error
 Rotational temperatures (Kelvin)      0.16063     0.05699     0.04678
 Rotational constants (GHZ):           3.34709     1.18751     0.97480
    3 imaginary frequencies ignored.
 Zero-point vibrational energy     282099.6 (Joules/Mol)
                                   67.42341 (Kcal/Mol)
 Warning -- explicit consideration of  10 degrees of freedom as
           vibrations may cause significant error
 Vibrational temperatures:     60.24   125.46   189.12   250.75   367.85
          (Kelvin)            452.22   567.07   631.95   795.49   829.06
                              903.45  1025.07  1125.48  1177.39  1255.83
                             1259.34  1334.93  1396.76  1623.58  1644.27
                             1699.48  1754.83  1885.76  1979.24  2073.22
                             2120.99  2189.46  2236.40  2727.76  3360.27
                             4483.83  4535.19  4563.42  4661.77  5082.75
                             5487.87

 Zero-point correction=                           0.107446 (Hartree/Particle)
 Thermal correction to Energy=                    0.115735
 Thermal correction to Enthalpy=                  0.116679
 Thermal correction to Gibbs Free Energy=         0.072806
 Sum of electronic and zero-point Energies=           -419.845343
 Sum of electronic and thermal Energies=              -419.837054
 Sum of electronic and thermal Enthalpies=            -419.836110
 Sum of electronic and thermal Free Energies=         -419.879982

                     E (Thermal)             CV                S
                      KCal/Mol        Cal/Mol-Kelvin    Cal/Mol-Kelvin
 Total                   72.625             28.702             92.338
 Electronic               0.000              0.000              1.377
 Translational            0.889              2.981             40.136
 Rotational               0.889              2.981             28.808
 Vibrational             70.847             22.740             22.017
 Vibration     1          0.594              1.980              5.169
 Vibration     2          0.601              1.958              3.722
 Vibration     3          0.612              1.922              2.925
 Vibration     4          0.627              1.874              2.389
 Vibration     5          0.666              1.753              1.691
 Vibration     6          0.702              1.646              1.340
 Vibration     7          0.761              1.483              0.984
 Vibration     8          0.799              1.385              0.829
 Vibration     9          0.908              1.133              0.538
 Vibration    10          0.933              1.083              0.492

 Normal termination of Gaussian 16 at Fri Jun 20 12:51:27 2025.
