 Gaussian 16, Revision A.03,
 Gaussian 16:  ES64L-G16RevA.03 25-Dec-2016

 --------------------------
 # ccsd(t)/6-311++g(d,p) sp
 --------------------------

 -------------------
 Title Card Required
 -------------------
 Symbolic Z-matrix:
 Charge =  0 Multiplicity = 2

                         Standard orientation:
 ---------------------------------------------------------------------
 Center     Atomic      Atomic             Coordinates (Angstroms)
 Number     Number       Type             X           Y           Z
 ---------------------------------------------------------------------
      1          8           0        2.288524    1.682517   -0.320492
      2          1           0        1.482226    1.801190    0.206159
      3          6           0       -3.372942    0.217236   -0.505908
      4          1           0       -4.388876    0.291565   -0.816973
      5          6           0       -2.230831    0.133297   -0.155191
      6          6           0       -0.846647    0.085622    0.283377
      7          8           0       -0.283940    1.008521    0.810094
      8          8           0       -0.301531   -1.102637    0.034993
      9          6           0        1.064551   -1.295209    0.449771
     10          6           0        2.041994   -0.804066   -0.582826
     11          1           0        1.150025   -2.377575    0.569104
     12          1           0        1.218674   -0.816600    1.418645
     13          1           0        3.059889   -1.130198   -0.374205
     14          1           0        1.740022   -1.021343   -1.606380
     15          1           0        2.176852    0.524471   -0.528438
 ---------------------------------------------------------------------

 SCF Done:  E(UHF) =  -417.960689117     A.U. after   29 cycles
 E2 =    -0.1292282932D+01 EUMP2 =    -0.41925297204889D+03
 CCSD(T)= -0.41935199623D+03

 The electronic state is 2-A.
 Alpha  occ. eigenvalues --  -20.63410 -20.57993 -20.56996 -11.43664 -11.31889
 Alpha  occ. eigenvalues --  -11.27861 -11.27017 -11.26877  -1.50313  -1.40161
 Alpha  occ. eigenvalues --   -1.34112  -1.09651  -1.06299  -0.94854  -0.85841
 Alpha  occ. eigenvalues --   -0.78546  -0.74154  -0.72434  -0.70526  -0.68342
 Alpha  occ. eigenvalues --   -0.64063  -0.61034  -0.59853  -0.57862  -0.55114
 Alpha  occ. eigenvalues --   -0.50665  -0.50091  -0.49293  -0.43836  -0.43694
 Alpha  occ. eigenvalues --   -0.42257
 Alpha virt. eigenvalues --    0.03417   0.04104   0.05758   0.06673   0.07263
 Alpha virt. eigenvalues --    0.07437   0.09678   0.10337   0.10954   0.11690
 Alpha virt. eigenvalues --    0.12166   0.13562   0.14014   0.14976   0.16052

  Beta  occ. eigenvalues --  -20.63408 -20.57995 -20.54345 -11.43670 -11.32042
  Beta  occ. eigenvalues --  -11.27869 -11.27009 -11.24956  -1.50309  -1.40148
  Beta  occ. eigenvalues --   -1.25299  -1.09077  -1.04545  -0.92543  -0.84186
  Beta  occ. eigenvalues --   -0.78372  -0.74097  -0.72072  -0.68998  -0.63780
  Beta  occ. eigenvalues --   -0.62040  -0.59243  -0.57339  -0.54889  -0.51245
  Beta  occ. eigenvalues --   -0.49716  -0.47655  -0.47012  -0.43796  -0.43677
  Beta virt. eigenvalues --    0.03427   0.04074   0.05212   0.06099   0.06726
  Beta virt. eigenvalues --    0.07277   0.07585   0.09925   0.10657   0.10957
  Beta virt. eigenvalues --    0.12175   0.12461   0.13590   0.14024   0.15140

 Mulliken charges and spin densities:
               1          2
     1  O   -0.442960   0.561077
     2  H    0.285536  -0.006532
     3  C   -0.696956  -0.004458
     4  H    0.206079   0.000274
     5  C    1.375920   0.005858
     6  C   -0.685233   0.010969
     7  O   -0.340022  -0.003955
     8  O   -0.053132  -0.000802
     9  C   -0.303475  -0.111732
    10  C   -0.402152   0.803490
    11  H    0.173743   0.035263
    12  H    0.220231   0.017177
    13  H    0.160939  -0.044044
    14  H    0.192745  -0.034458
    15  H    0.308734  -0.228127
 Sum of Mulliken charges =  -0.00000   1.00000

 Dipole moment (field-independent basis, Debye):
    X=             -2.2817    Y=             -3.6564    Z=             -0.1069  Tot=              4.3113
 Quadrupole moment (field-independent basis, Debye-Ang):
   XX=            -40.0760   YY=            -52.2287   ZZ=            -47.8354
   XY=             -9.9483   XZ=              4.3831   YZ=             -0.6845

 -0=-419.2755649\MP4SDQ=-419.2983232\CCSD=-419.2967804\CCSD(T)=-419.351
 Normal termination of Gaussian 16 at Tue Jul  8 12:36:31 2025.
