 Gaussian 16, Revision A.03,
 Gaussian 16:  ES64L-G16RevA.03 25-Dec-2016

 -------------------
 # freq 6-31+g m062x
 -------------------

 -------------------
 Title Card Required
 -------------------
 Symbolic Z-matrix:
 Charge =  0 Multiplicity = 2

                         Standard orientation:
 ---------------------------------------------------------------------
 Center     Atomic      Atomic             Coordinates (Angstroms)
 Number     Number       Type             X           Y           Z
 ---------------------------------------------------------------------
      1          8           0        2.288679    1.680394   -0.320337
      2          1           0        1.483584    1.801894    0.206272
      3          6           0       -3.372945    0.217888   -0.505819
      4          1           0       -4.388871    0.292558   -0.816842
      5          6           0       -2.230848    0.133577   -0.155150
      6          6           0       -0.846712    0.085576    0.283419
      7          8           0       -0.283763    1.008052    0.810343
      8          8           0       -0.301779   -1.102925    0.034682
      9          6           0        1.064154   -1.295580    0.449328
     10          6           0        2.041534   -0.805937   -0.583014
     11          1           0        1.149825   -2.378263    0.568395
     12          1           0        1.218612   -0.817532    1.418523
     13          1           0        3.060523   -1.127843   -0.374160
     14          1           0        1.739406   -1.018151   -1.607399
     15          1           0        2.180730    0.550023   -0.524876
 ---------------------------------------------------------------------

 SCF Done:  E(UM062X) =  -419.953770620     A.U. after   22 cycles

 The electronic state is 2-A.
 Alpha  occ. eigenvalues --  -19.72824 -19.68418 -19.64260 -10.75073 -10.64143
 Alpha  occ. eigenvalues --  -10.59832 -10.59471 -10.58854  -1.30161  -1.20725
 Alpha  occ. eigenvalues --   -1.11827  -0.93102  -0.89464  -0.80581  -0.72957
 Alpha  occ. eigenvalues --   -0.67039  -0.62624  -0.61041  -0.60392  -0.57738
 Alpha  occ. eigenvalues --   -0.54704  -0.51740  -0.50365  -0.47639  -0.45816
 Alpha  occ. eigenvalues --   -0.41452  -0.40837  -0.38756  -0.38105  -0.37953
 Alpha  occ. eigenvalues --   -0.32095
 Alpha virt. eigenvalues --   -0.03390   0.01272   0.01905   0.03148   0.03374
 Alpha virt. eigenvalues --    0.03982   0.04575   0.06009   0.07144   0.07516
 Alpha virt. eigenvalues --    0.08110   0.08735   0.09399   0.11007   0.11899

  Beta  occ. eigenvalues --  -19.72822 -19.68419 -19.63368 -10.75073 -10.64177
  Beta  occ. eigenvalues --  -10.59832 -10.59471 -10.58251  -1.30155  -1.20714
  Beta  occ. eigenvalues --   -1.08764  -0.92674  -0.88943  -0.79473  -0.72285
  Beta  occ. eigenvalues --   -0.66817  -0.62582  -0.60715  -0.59778  -0.55291
  Beta  occ. eigenvalues --   -0.53368  -0.50702  -0.49406  -0.45742  -0.43520
  Beta  occ. eigenvalues --   -0.41281  -0.40073  -0.38691  -0.37893  -0.36313
  Beta virt. eigenvalues --   -0.09657  -0.03364   0.01168   0.01896   0.03081
  Beta virt. eigenvalues --    0.03331   0.04027   0.04593   0.06037   0.07036
  Beta virt. eigenvalues --    0.07579   0.08215   0.08877   0.09491   0.11117

 Mulliken charges and spin densities:
               1          2
     1  O   -0.643637   0.435227
     2  H    0.472065  -0.007468
     3  C    0.301671   0.007783
     4  H    0.351007   0.000023
     5  C    0.475885   0.022345
     6  C   -0.787458  -0.014302
     7  O   -0.444574  -0.006495
     8  O   -0.215387  -0.000045
     9  C   -0.294714  -0.062786
    10  C   -0.496680   0.718062
    11  H    0.241763   0.033708
    12  H    0.252296   0.013077
    13  H    0.239147  -0.027451
    14  H    0.244702  -0.021810
    15  H    0.303914  -0.089867
 Sum of Mulliken charges =  -0.00000   1.00000

 Dipole moment (field-independent basis, Debye):
    X=             -2.4042    Y=             -3.9031    Z=              0.1063  Tot=              4.5854
 Quadrupole moment (field-independent basis, Debye-Ang):
   XX=            -41.8670   YY=            -53.3320   ZZ=            -48.1923
   XY=            -11.4495   XZ=              4.3000   YZ=             -0.5819

  Exact polarizability:  88.991  -0.491  73.564   7.900   2.802  48.679
 Approx polarizability:  94.382   2.241  82.656  13.277   7.390  54.757

 ******    3 imaginary frequencies (negative Signs) ******

                      1                      2                      3
                      A                      A                      A
 Frequencies --  -1364.2216              -326.6881               -85.7825
 Red. masses --      1.1083                 1.0843                 5.6068
 Frc consts  --      1.2153                 0.0682                 0.0243
 IR Inten    --    508.6647               103.9244                 0.1138

                      4                      5                      6
                      A                      A                      A
 Frequencies --     40.9343                85.4646               132.6672
 Red. masses --      4.5989                 4.2362                 3.4152
 Frc consts  --      0.0045                 0.0182                 0.0354
 IR Inten    --      6.8918                 8.1358                 1.3137

                      7                      8                      9
                      A                      A                      A
 Frequencies --    177.9909               254.9977               314.3543
 Red. masses --      5.9857                 3.6404                 3.1792
 Frc consts  --      0.1117                 0.1395                 0.1851
 IR Inten    --     10.7080                 2.2730                16.5198

                     10                     11                     12
                      A                      A                      A
 Frequencies --    398.1529               444.6495               559.8767
 Red. masses --      1.7546                 1.7480                 3.7798
 Frc consts  --      0.1639                 0.2036                 0.6981
 IR Inten    --     15.3062                28.8637                 2.5126

                     13                     14                     15
                      A                      A                      A
 Frequencies --    578.2635               627.9835               674.5256
 Red. masses --      3.4870                 5.3390                 1.1710
 Frc consts  --      0.6870                 1.2405                 0.3139
 IR Inten    --      0.8102                13.0373               114.9050

                     16                     17                     18
                      A                      A                      A
 Frequencies --    782.0900               818.5443               866.8531
 Red. masses --      3.3053                 1.4254                 2.6936
 Frc consts  --      1.1912                 0.5627                 1.1925
 IR Inten    --     69.6840                57.8656                13.2212

                     19                     20                     21
                      A                      A                      A
 Frequencies --    875.1798               918.9663               965.9191
 Red. masses --      1.8635                 1.8752                 2.0712
 Frc consts  --      0.8410                 0.9330                 1.1386
 IR Inten    --     18.9908                 9.9088                 8.7498

                     22                     23                     24
                      A                      A                      A
 Frequencies --   1083.6711              1133.7020              1162.5173
 Red. masses --      1.2433                 3.9923                 1.7011
 Frc consts  --      0.8602                 3.0232                 1.3545
 IR Inten    --     88.0401                 2.0369                 1.7408

                     25                     26                     27
                      A                      A                      A
 Frequencies --   1203.1257              1307.6717              1374.3749
 Red. masses --      1.5474                 1.4866                 2.4394
 Frc consts  --      1.3197                 1.4978                 2.7148
 IR Inten    --     11.3832               188.8146               393.4175

                     28                     29                     30
                      A                      A                      A
 Frequencies --   1438.6340              1472.0985              1518.1525
 Red. masses --      1.4611                 1.1293                 1.0974
 Frc consts  --      1.7817                 1.4419                 1.4902
 IR Inten    --     73.1653                10.4540                30.1712

                     31                     32                     33
                      A                      A                      A
 Frequencies --   1616.0346              1897.1736              2335.5239
 Red. masses --      1.0561                12.0653                 5.5407
 Frc consts  --      1.6250                25.5860                17.8068
 IR Inten    --    238.1800               279.0846                91.6322

                     34                     35                     36
                      A                      A                      A
 Frequencies --   3111.0540              3154.9577              3167.7498
 Red. masses --      1.0581                 1.0593                 1.0987
 Frc consts  --      6.0340                 6.2126                 6.4956
 IR Inten    --     11.5202                 2.4509                 3.0480

                     37                     38                     39
                      A                      A                      A
 Frequencies --   3246.4925              3532.6428              3831.8669
 Red. masses --      1.1093                 1.1799                 1.0642
 Frc consts  --      6.8885                 8.6754                 9.2066
 IR Inten    --      3.0308                55.2807                75.8950

 - Thermochemistry -
 -------------------
 Temperature   298.150 Kelvin.  Pressure   1.00000 Atm.
 Atom     1 has atomic number  8 and mass  15.99491

 Molecular mass:   115.03952 amu.
 Principal axes and moments of inertia in atomic units:
                           1         2         3
     Eigenvalues --   538.876671519.763151851.07625
           X            0.99972  -0.02344   0.00314
           Y            0.02346   0.99970  -0.00643
           Z           -0.00299   0.00650   0.99997
 This molecule is an asymmetric top.
 Rotational symmetry number  1.
 Warning -- assumption of classical behavior for rotation
           may cause significant error
 Rotational temperatures (Kelvin)      0.16073     0.05699     0.04679
 Rotational constants (GHZ):           3.34908     1.18751     0.97497
    3 imaginary frequencies ignored.
 Zero-point vibrational energy     281749.6 (Joules/Mol)
                                   67.33977 (Kcal/Mol)
 Warning -- explicit consideration of  10 degrees of freedom as
           vibrations may cause significant error
 Vibrational temperatures:     58.90   122.96   190.88   256.09   366.88
          (Kelvin)            452.29   572.85   639.75   805.54   831.99
                              903.53   970.49  1125.25  1177.70  1247.21
                             1259.19  1322.19  1389.74  1559.16  1631.14
                             1672.60  1731.03  1881.45  1977.42  2069.87
                             2118.02  2184.28  2325.11  2729.61  3360.30
                             4476.11  4539.28  4557.69  4670.98  5082.69
                             5513.20

 Zero-point correction=                           0.107313 (Hartree/Particle)
 Thermal correction to Energy=                    0.115612
 Thermal correction to Enthalpy=                  0.116556
 Thermal correction to Gibbs Free Energy=         0.072657
 Sum of electronic and zero-point Energies=           -419.846458
 Sum of electronic and thermal Energies=              -419.838159
 Sum of electronic and thermal Enthalpies=            -419.837215
 Sum of electronic and thermal Free Energies=         -419.881114

                     E (Thermal)             CV                S
                      KCal/Mol        Cal/Mol-Kelvin    Cal/Mol-Kelvin
 Total                   72.547             28.818             92.393
 Electronic               0.000              0.000              1.377
 Translational            0.889              2.981             40.136
 Rotational               0.889              2.981             28.807
 Vibrational             70.770             22.856             22.073
 Vibration     1          0.594              1.981              5.213
 Vibration     2          0.601              1.959              3.761
 Vibration     3          0.613              1.921              2.907
 Vibration     4          0.628              1.869              2.349
 Vibration     5          0.665              1.754              1.696
 Vibration     6          0.702              1.646              1.339
 Vibration     7          0.764              1.474              0.969
 Vibration     8          0.804              1.373              0.812
 Vibration     9          0.915              1.118              0.524
 Vibration    10          0.935              1.078              0.489

 Normal termination of Gaussian 16 at Fri Jun 20 12:50:38 2025.
