 Gaussian 16, Revision A.03,
 Gaussian 16:  ES64L-G16RevA.03 25-Dec-2016

 --------------------------
 # ccsd(t)/6-311++g(d,p) sp
 --------------------------

 -------------------
 Title Card Required
 -------------------
 Symbolic Z-matrix:
 Charge =  0 Multiplicity = 2

                         Standard orientation:
 ---------------------------------------------------------------------
 Center     Atomic      Atomic             Coordinates (Angstroms)
 Number     Number       Type             X           Y           Z
 ---------------------------------------------------------------------
      1          8           0        2.288846    1.678361   -0.320183
      2          1           0        1.484980    1.802760    0.206383
      3          6           0       -3.372947    0.218550   -0.505733
      4          1           0       -4.388865    0.293561   -0.816715
      5          6           0       -2.230866    0.133867   -0.155111
      6          6           0       -0.846777    0.085532    0.283458
      7          8           0       -0.283580    1.007598    0.810578
      8          8           0       -0.302037   -1.103208    0.034388
      9          6           0        1.063752   -1.295959    0.448908
     10          6           0        2.041055   -0.807982   -0.583208
     11          1           0        1.149580   -2.378947    0.567759
     12          1           0        1.218542   -0.818438    1.418409
     13          1           0        3.061146   -1.125496   -0.374082
     14          1           0        1.738775   -1.015057   -1.608388
     15          1           0        2.184710    0.575562   -0.521514
 ---------------------------------------------------------------------

 SCF Done:  E(UHF) =  -417.964482221     A.U. after   28 cycles
 E2 =    -0.1294600031D+01 EUMP2 =    -0.41925908225189D+03
 CCSD(T)= -0.41935564916D+03

 The electronic state is 2-A.
 Alpha  occ. eigenvalues --  -20.63607 -20.58072 -20.55215 -11.43733 -11.32294
 Alpha  occ. eigenvalues --  -11.27918 -11.27590 -11.27071  -1.50468  -1.40286
 Alpha  occ. eigenvalues --   -1.32755  -1.09946  -1.06639  -0.95176  -0.86079
 Alpha  occ. eigenvalues --   -0.78777  -0.74216  -0.72510  -0.70473  -0.68395
 Alpha  occ. eigenvalues --   -0.64176  -0.60929  -0.59383  -0.58063  -0.55398
 Alpha  occ. eigenvalues --   -0.50624  -0.49561  -0.48617  -0.43879  -0.43748
 Alpha  occ. eigenvalues --   -0.41725
 Alpha virt. eigenvalues --    0.03357   0.03997   0.05656   0.06592   0.07211
 Alpha virt. eigenvalues --    0.07368   0.09753   0.10407   0.10897   0.11755
 Alpha virt. eigenvalues --    0.12132   0.13463   0.13926   0.14936   0.15961

  Beta  occ. eigenvalues --  -20.63606 -20.58067 -20.53160 -11.43741 -11.32470
  Beta  occ. eigenvalues --  -11.27928 -11.27060 -11.25417  -1.50461  -1.40264
  Beta  occ. eigenvalues --   -1.26135  -1.09181  -1.04691  -0.92522  -0.84186
  Beta  occ. eigenvalues --   -0.78566  -0.74153  -0.72174  -0.69184  -0.63907
  Beta  occ. eigenvalues --   -0.62096  -0.59494  -0.57648  -0.55149  -0.51797
  Beta  occ. eigenvalues --   -0.50090  -0.48345  -0.46261  -0.43843  -0.43733
  Beta virt. eigenvalues --    0.03370   0.03966   0.05168   0.06123   0.06634
  Beta virt. eigenvalues --    0.07227   0.07505   0.09909   0.10681   0.10899
  Beta virt. eigenvalues --    0.12141   0.12601   0.13488   0.13939   0.15084

 Mulliken charges and spin densities:
               1          2
     1  O   -0.506032   0.416844
     2  H    0.282364  -0.002659
     3  C   -0.695549  -0.005706
     4  H    0.206296   0.000373
     5  C    1.373930   0.005477
     6  C   -0.686781   0.008848
     7  O   -0.335898  -0.001979
     8  O   -0.052035  -0.001371
     9  C   -0.306607  -0.123419
    10  C   -0.398144   0.921695
    11  H    0.177861   0.043555
    12  H    0.223986   0.019573
    13  H    0.167305  -0.050078
    14  H    0.198775  -0.040847
    15  H    0.350529  -0.190306
 Sum of Mulliken charges =  -0.00000   1.00000

 Dipole moment (field-independent basis, Debye):
    X=             -2.3618    Y=             -4.1298    Z=             -0.1481  Tot=              4.7597
 Quadrupole moment (field-independent basis, Debye-Ang):
   XX=            -40.2144   YY=            -52.9230   ZZ=            -47.6800
   XY=            -11.1122   XZ=              4.2603   YZ=             -0.5572

 -0=-419.279373\MP4SDQ=-419.3028125\CCSD=-419.3005842\CCSD(T)=-419.3556
 Normal termination of Gaussian 16 at Wed Aug 20 20:35:01 2025.
