 Gaussian 16, Revision A.03,
 Gaussian 16:  ES64L-G16RevA.03 25-Dec-2016

 -------------------
 # freq 6-31+g m062x
 -------------------

 -------------------
 Title Card Required
 -------------------
 Symbolic Z-matrix:
 Charge =  0 Multiplicity = 2

                         Standard orientation:
 ---------------------------------------------------------------------
 Center     Atomic      Atomic             Coordinates (Angstroms)
 Number     Number       Type             X           Y           Z
 ---------------------------------------------------------------------
      1          8           0        2.289348    1.734020   -0.321889
      2          1           0        1.468108    1.802234    0.202308
      3          6           0       -3.372481    0.210697   -0.507758
      4          1           0       -4.388407    0.280294   -0.819817
      5          6           0       -2.230307    0.131824   -0.155828
      6          6           0       -0.845008    0.087267    0.282359
      7          8           0       -0.284017    1.018285    0.802412
      8          8           0       -0.300630   -1.097970    0.043242
      9          6           0        1.067931   -1.294636    0.461758
     10          6           0        2.045505   -0.818971   -0.584579
     11          1           0        1.140455   -2.372697    0.597865
     12          1           0        1.219179   -0.798831    1.421623
     13          1           0        3.047788   -1.188877   -0.365239
     14          1           0        1.745949   -1.135754   -1.584400
     15          1           0        2.135485    0.281875   -0.618174
 ---------------------------------------------------------------------

 SCF Done:  E(UM062X) =  -419.958176515     A.U. after   22 cycles

 The electronic state is 2-A.
 Alpha  occ. eigenvalues --  -19.72294 -19.68593 -19.68108 -10.74802 -10.62836
 Alpha  occ. eigenvalues --  -10.59617 -10.59267 -10.55478  -1.29705  -1.20219
 Alpha  occ. eigenvalues --   -1.13544  -0.92373  -0.88833  -0.80012  -0.72507
 Alpha  occ. eigenvalues --   -0.66191  -0.62412  -0.60514  -0.59565  -0.56968
 Alpha  occ. eigenvalues --   -0.53947  -0.51574  -0.49430  -0.48404  -0.44853
 Alpha  occ. eigenvalues --   -0.41523  -0.41086  -0.40263  -0.38512  -0.38000
 Alpha  occ. eigenvalues --   -0.37731
 Alpha virt. eigenvalues --   -0.03157   0.01638   0.02038   0.03497   0.03706
 Alpha virt. eigenvalues --    0.04152   0.04714   0.06215   0.07339   0.07805
 Alpha virt. eigenvalues --    0.08513   0.08643   0.09474   0.11093   0.12123

  Beta  occ. eigenvalues --  -19.72294 -19.68112 -19.67042 -10.74802 -10.62846
  Beta  occ. eigenvalues --  -10.59617 -10.59267 -10.55249  -1.29704  -1.20216
  Beta  occ. eigenvalues --   -1.06894  -0.92242  -0.88616  -0.79556  -0.72223
  Beta  occ. eigenvalues --   -0.66130  -0.62386  -0.60345  -0.59230  -0.55133
  Beta  occ. eigenvalues --   -0.51822  -0.49923  -0.48142  -0.45949  -0.43136
  Beta  occ. eigenvalues --   -0.40971  -0.39739  -0.38522  -0.37874  -0.37689
  Beta virt. eigenvalues --   -0.09075  -0.03133   0.01656   0.02038   0.03514
  Beta virt. eigenvalues --    0.03716   0.04272   0.04803   0.06265   0.07358
  Beta virt. eigenvalues --    0.07885   0.08595   0.08818   0.09691   0.11285

 Mulliken charges and spin densities:
               1          2
     1  O   -0.453519   0.883841
     2  H    0.465453  -0.028356
     3  C    0.287938   0.009063
     4  H    0.349925   0.000005
     5  C    0.454499   0.016397
     6  C   -0.761290  -0.020078
     7  O   -0.445393  -0.000716
     8  O   -0.214660  -0.000496
     9  C   -0.282809  -0.020376
    10  C   -0.538796   0.222138
    11  H    0.228393   0.007385
    12  H    0.239606   0.002877
    13  H    0.225719  -0.006904
    14  H    0.231441  -0.002618
    15  H    0.213494  -0.062163
 Sum of Mulliken charges =  -0.00000   1.00000

 Dipole moment (field-independent basis, Debye):
    X=             -2.1160    Y=             -2.5365    Z=              0.1672  Tot=              3.3075
 Quadrupole moment (field-independent basis, Debye-Ang):
   XX=            -41.3810   YY=            -51.1478   ZZ=            -48.5511
   XY=             -7.9486   XZ=              4.5608   YZ=             -0.9766

  Exact polarizability:  88.502  -2.241  68.329   8.145   2.801  48.396
 Approx polarizability:  93.883   0.472  73.835  13.358   6.998  54.140

 ******    5 imaginary frequencies (negative Signs) ******

                      1                      2                      3
                      A                      A                      A
 Frequencies --   -325.5693              -234.1387              -129.0331
 Red. masses --      1.0436                 1.7684                 2.1416
 Frc consts  --      0.0652                 0.0571                 0.0210
 IR Inten    --     49.5922                69.8620                13.5934

                      4                      5                      6
                      A                      A                      A
 Frequencies --    -68.3679               -18.3488                69.6273
 Red. masses --      3.1981                 4.4331                 3.3000
 Frc consts  --      0.0088                 0.0009                 0.0094
 IR Inten    --      4.4924                 4.7761                19.4538

                      7                      8                      9
                      A                      A                      A
 Frequencies --    131.9553               192.7473               255.9943
 Red. masses --      3.6161                 5.1317                 3.7345
 Frc consts  --      0.0371                 0.1123                 0.1442
 IR Inten    --     12.8833                 2.8486                 2.7206

                     10                     11                     12
                      A                      A                      A
 Frequencies --    310.6868               404.9929               555.6911
 Red. masses --      3.8503                 3.2688                 1.6977
 Frc consts  --      0.2190                 0.3159                 0.3089
 IR Inten    --     14.6190                13.2221               130.5481

                     13                     14                     15
                      A                      A                      A
 Frequencies --    580.4125               626.1621               782.5062
 Red. masses --      2.2114                 5.5343                 3.1544
 Frc consts  --      0.4389                 1.2785                 1.1380
 IR Inten    --     84.3884                23.0487                77.9776

                     16                     17                     18
                      A                      A                      A
 Frequencies --    810.3363               819.4006               874.6080
 Red. masses --      1.2483                 1.3597                 1.8848
 Frc consts  --      0.4829                 0.5379                 0.8495
 IR Inten    --      1.9499                80.4338                18.4284

                     19                     20                     21
                      A                      A                      A
 Frequencies --    893.2856               950.6297              1120.0750
 Red. masses --      3.4406                 2.7358                 3.7624
 Frc consts  --      1.6176                 1.4566                 2.7810
 IR Inten    --     22.3133                10.4632                 4.0051

                     22                     23                     24
                      A                      A                      A
 Frequencies --   1138.0562              1192.6110              1328.3749
 Red. masses --      2.2150                 1.8491                 1.5087
 Frc consts  --      1.6903                 1.5496                 1.5685
 IR Inten    --     25.7662                 7.1696               184.4393

                     25                     26                     27
                      A                      A                      A
 Frequencies --   1376.7941              1418.0871              1449.6001
 Red. masses --      2.0308                 1.1141                 1.3965
 Frc consts  --      2.2681                 1.3201                 1.7290
 IR Inten    --    370.2912                11.8269                86.7662

                     28                     29                     30
                      A                      A                      A
 Frequencies --   1462.8627              1496.4761              1537.9820
 Red. masses --      1.2925                 1.0638                 1.1011
 Frc consts  --      1.6296                 1.4037                 1.5346
 IR Inten    --     27.4446                 4.6628                24.7580

                     31                     32                     33
                      A                      A                      A
 Frequencies --   1884.7841              2334.7130              2607.8306
 Red. masses --     12.0272                 5.5427                 1.0814
 Frc consts  --     25.1733                17.8007                 4.3329
 IR Inten    --    300.1392                89.0328               572.1573

                     34                     35                     36
                      A                      A                      A
 Frequencies --   3134.8832              3137.9972              3193.5813
 Red. masses --      1.0581                 1.0606                 1.1054
 Frc consts  --      6.1268                 6.1532                 6.6424
 IR Inten    --     16.1733                15.6712                 9.2349

                     37                     38                     39
                      A                      A                      A
 Frequencies --   3206.4789              3532.9279              3729.8677
 Red. masses --      1.1025                 1.1797                 1.0662
 Frc consts  --      6.6788                 8.6753                 8.7390
 IR Inten    --     10.0503                55.0460                86.7630

 - Thermochemistry -
 -------------------
 Temperature   298.150 Kelvin.  Pressure   1.00000 Atm.
 Atom     1 has atomic number  8 and mass  15.99491

 Molecular mass:   115.03952 amu.
 Principal axes and moments of inertia in atomic units:
                           1         2         3
     Eigenvalues --   550.959591519.902861862.76517
           X            0.99963  -0.02713   0.00289
           Y            0.02714   0.99963  -0.00360
           Z           -0.00279   0.00368   0.99999
 This molecule is an asymmetric top.
 Rotational symmetry number  1.
 Warning -- assumption of classical behavior for rotation
           may cause significant error
 Rotational temperatures (Kelvin)      0.15721     0.05699     0.04650
 Rotational constants (GHZ):           3.27563     1.18741     0.96885
    5 imaginary frequencies ignored.
 Zero-point vibrational energy     290351.7 (Joules/Mol)
                                   69.39573 (Kcal/Mol)
 Warning -- explicit consideration of   8 degrees of freedom as
           vibrations may cause significant error
 Vibrational temperatures:    100.18   189.85   277.32   368.32   447.01
          (Kelvin)            582.69   799.52   835.08   900.91  1125.85
                             1165.89  1178.93  1258.37  1285.24  1367.74
                             1611.54  1637.41  1715.90  1911.24  1980.90
                             2040.31  2085.65  2104.73  2153.10  2212.81
                             2711.78  3359.13  3752.09  4510.40  4514.88
                             4594.85  4613.41  5083.10  5366.45

 Zero-point correction=                           0.110589 (Hartree/Particle)
 Thermal correction to Energy=                    0.117657
 Thermal correction to Enthalpy=                  0.118601
 Thermal correction to Gibbs Free Energy=         0.077578
 Sum of electronic and zero-point Energies=           -419.847587
 Sum of electronic and thermal Energies=              -419.840520
 Sum of electronic and thermal Enthalpies=            -419.839576
 Sum of electronic and thermal Free Energies=         -419.880598

                     E (Thermal)             CV                S
                      KCal/Mol        Cal/Mol-Kelvin    Cal/Mol-Kelvin
 Total                   73.831             24.567             86.339
 Electronic               0.000              0.000              1.377
 Translational            0.889              2.981             40.136
 Rotational               0.889              2.981             28.835
 Vibrational             72.053             18.605             15.991
 Vibration     1          0.598              1.969              4.164
 Vibration     2          0.612              1.921              2.917
 Vibration     3          0.635              1.850              2.201
 Vibration     4          0.666              1.753              1.689
 Vibration     5          0.700              1.653              1.359
 Vibration     6          0.770              1.459              0.944
 Vibration     7          0.911              1.127              0.533
 Vibration     8          0.937              1.074              0.485

 Normal termination of Gaussian 16 at Fri Jun 20 12:53:53 2025.
