 Gaussian 16, Revision A.03,
 Gaussian 16:  ES64L-G16RevA.03 25-Dec-2016

 --------------------------
 # freq 6-311++g(d,p) m062x
 --------------------------

 -------------------
 Title Card Required
 -------------------
 Symbolic Z-matrix:
 Charge =  0 Multiplicity = 2

                         Standard orientation:
 ---------------------------------------------------------------------
 Center     Atomic      Atomic             Coordinates (Angstroms)
 Number     Number       Type             X           Y           Z
 ---------------------------------------------------------------------
      1          8           0        2.288136    1.710887   -0.321856
      2          1           0        1.471280    1.800393    0.204079
      3          6           0       -3.372771    0.211978   -0.507003
      4          1           0       -4.388730    0.283036   -0.818630
      5          6           0       -2.230576    0.131536   -0.155620
      6          6           0       -0.845706    0.086131    0.282745
      7          8           0       -0.284732    1.014336    0.806181
      8          8           0       -0.300243   -1.099438    0.039497
      9          6           0        1.067872   -1.293413    0.456093
     10          6           0        2.045250   -0.801586   -0.582291
     11          1           0        1.146923   -2.372666    0.582608
     12          1           0        1.218493   -0.806218    1.420628
     13          1           0        3.051552   -1.165341   -0.371939
     14          1           0        1.744603   -1.077472   -1.593474
     15          1           0        2.146174    0.324113   -0.577392
 ---------------------------------------------------------------------

 SCF Done:  E(UM062X) =  -420.201746988     A.U. after   20 cycles

 The electronic state is 2-A.
 Alpha  occ. eigenvalues --  -19.69834 -19.65401 -19.64807 -10.72337 -10.61925
 Alpha  occ. eigenvalues --  -10.57986 -10.57512 -10.55216  -1.27267  -1.17931
 Alpha  occ. eigenvalues --   -1.12073  -0.91676  -0.88124  -0.79532  -0.71911
 Alpha  occ. eigenvalues --   -0.65973  -0.62093  -0.60563  -0.59122  -0.56817
 Alpha  occ. eigenvalues --   -0.53840  -0.51487  -0.49291  -0.48382  -0.45082
 Alpha  occ. eigenvalues --   -0.41262  -0.40848  -0.40340  -0.38178  -0.37351
 Alpha  occ. eigenvalues --   -0.36727
 Alpha virt. eigenvalues --   -0.02860  -0.00408   0.00442   0.01714   0.02319
 Alpha virt. eigenvalues --    0.02974   0.03433   0.04938   0.05620   0.06438
 Alpha virt. eigenvalues --    0.06642   0.07375   0.07853   0.09301   0.10097

  Beta  occ. eigenvalues --  -19.69834 -19.64810 -19.63978 -10.72337 -10.61936
  Beta  occ. eigenvalues --  -10.57986 -10.57512 -10.54939  -1.27265  -1.17926
  Beta  occ. eigenvalues --   -1.05889  -0.91481  -0.87817  -0.78938  -0.71518
  Beta  occ. eigenvalues --   -0.65897  -0.62056  -0.60363  -0.58613  -0.54526
  Beta  occ. eigenvalues --   -0.51986  -0.49788  -0.48116  -0.45994  -0.43028
  Beta  occ. eigenvalues --   -0.40908  -0.39831  -0.38202  -0.37685  -0.37290
  Beta virt. eigenvalues --   -0.09405  -0.02838  -0.00360   0.00463   0.01802
  Beta virt. eigenvalues --    0.02537   0.03090   0.03445   0.05344   0.05695
  Beta virt. eigenvalues --    0.06539   0.06887   0.07507   0.07897   0.09519

 Mulliken charges and spin densities:
               1          2
     1  O   -0.300507   0.796301
     2  H    0.267665  -0.009189
     3  C   -0.637323  -0.001181
     4  H    0.181899  -0.000024
     5  C    1.219156   0.006487
     6  C   -0.661022   0.005329
     7  O   -0.275701  -0.002495
     8  O    0.026765  -0.000261
     9  C   -0.419794  -0.026586
    10  C   -0.447757   0.269527
    11  H    0.196501   0.011606
    12  H    0.228991   0.003737
    13  H    0.177705  -0.008072
    14  H    0.194188  -0.002404
    15  H    0.249233  -0.042773
 Sum of Mulliken charges =  -0.00000   1.00000

 Dipole moment (field-independent basis, Debye):
    X=             -1.8979    Y=             -2.7138    Z=             -0.0121  Tot=              3.3117
 Quadrupole moment (field-independent basis, Debye-Ang):
   XX=            -40.3106   YY=            -50.4694   ZZ=            -48.0143
   XY=             -7.5675   XZ=              4.1894   YZ=             -0.7960

  Exact polarizability:  93.125  -1.429  75.407   7.719   2.455  52.084
 Approx polarizability: 100.034   0.529  83.581  12.285   5.900  62.916

 ******    2 imaginary frequencies (negative Signs) ******

                      1                      2                      3
                      A                      A                      A
 Frequencies --   -468.5041               -94.8474                49.6641
 Red. masses --      2.1885                 3.0609                 3.8664
 Frc consts  --      0.2830                 0.0162                 0.0056
 IR Inten    --    154.8582                 1.0311                 1.9050

                      4                      5                      6
                      A                      A                      A
 Frequencies --     83.6502               128.9040               144.3025
 Red. masses --      4.2457                 1.6130                 5.4000
 Frc consts  --      0.0175                 0.0158                 0.0663
 IR Inten    --      2.7015                 6.1813                 1.3779

                      7                      8                      9
                      A                      A                      A
 Frequencies --    194.2948               273.1122               335.8252
 Red. masses --      3.5980                 4.2372                 3.3159
 Frc consts  --      0.0800                 0.1862                 0.2203
 IR Inten    --      6.3538                 2.1787                13.0851

                     10                     11                     12
                      A                      A                      A
 Frequencies --    418.1207               425.1356               564.1448
 Red. masses --      3.4610                 1.0775                 4.1833
 Frc consts  --      0.3565                 0.1147                 0.7844
 IR Inten    --      7.9626                87.4341                 1.3732

                     13                     14                     15
                      A                      A                      A
 Frequencies --    610.5681               699.0874               746.4131
 Red. masses --      7.2130                 1.1599                 1.3140
 Frc consts  --      1.5843                 0.3340                 0.4313
 IR Inten    --      9.9856                73.8877                38.8070

                     16                     17                     18
                      A                      A                      A
 Frequencies --    779.6513               789.7458               856.1032
 Red. masses --      1.4448                 5.8125                 1.4693
 Frc consts  --      0.5174                 2.1359                 0.6345
 IR Inten    --     18.5821                48.0554                60.6814

                     19                     20                     21
                      A                      A                      A
 Frequencies --    894.8360               937.3784              1084.0664
 Red. masses --      2.1594                 2.8963                 3.9041
 Frc consts  --      1.0188                 1.4994                 2.7032
 IR Inten    --     54.0188                23.5643                27.9378

                     22                     23                     24
                      A                      A                      A
 Frequencies --   1112.8557              1164.2530              1293.2519
 Red. masses --      2.1108                 1.8547                 2.8738
 Frc consts  --      1.5402                 1.4812                 2.8318
 IR Inten    --     21.7241                20.0528               428.9965

                     25                     26                     27
                      A                      A                      A
 Frequencies --   1334.1779              1347.1587              1396.1913
 Red. masses --      1.1450                 1.1677                 1.3595
 Frc consts  --      1.2008                 1.2486                 1.5614
 IR Inten    --    103.8641                46.6168                79.0764

                     28                     29                     30
                      A                      A                      A
 Frequencies --   1434.6533              1446.4755              1503.3238
 Red. masses --      1.3847                 1.0952                 1.1048
 Frc consts  --      1.6793                 1.3501                 1.4711
 IR Inten    --     28.7199                 9.1782                22.1335

                     31                     32                     33
                      A                      A                      A
 Frequencies --   1814.1944              1907.7680              2271.6852
 Red. masses --      7.4756                 1.2009                 5.7391
 Frc consts  --     14.4966                 2.5753                17.4497
 IR Inten    --    133.6173              1184.5572                86.9904

                     34                     35                     36
                      A                      A                      A
 Frequencies --   3102.3518              3103.4307              3156.2762
 Red. masses --      1.0566                 1.0601                 1.1078
 Frc consts  --      5.9914                 6.0156                 6.5025
 IR Inten    --     10.4166                12.8540                 5.6516

                     37                     38                     39
                      A                      A                      A
 Frequencies --   3172.8417              3490.2982              3728.6571
 Red. masses --      1.1056                 1.1715                 1.0665
 Frc consts  --      6.5575                 8.4084                 8.7363
 IR Inten    --      6.4047                63.2807               142.8989

 - Thermochemistry -
 -------------------
 Temperature   298.150 Kelvin.  Pressure   1.00000 Atm.
 Atom     1 has atomic number  8 and mass  15.99491

 Molecular mass:   115.03952 amu.
 Principal axes and moments of inertia in atomic units:
                           1         2         3
     Eigenvalues --   544.157021519.824311856.22631
           X            0.99966  -0.02608   0.00298
           Y            0.02609   0.99965  -0.00441
           Z           -0.00286   0.00448   0.99999
 This molecule is an asymmetric top.
 Rotational symmetry number  1.
 Warning -- assumption of classical behavior for rotation
           may cause significant error
 Rotational temperatures (Kelvin)      0.15917     0.05699     0.04666
 Rotational constants (GHZ):           3.31658     1.18747     0.97226
    2 imaginary frequencies ignored.
 Zero-point vibrational energy     285876.7 (Joules/Mol)
                                   68.32617 (Kcal/Mol)
 Warning -- explicit consideration of  11 degrees of freedom as
           vibrations may cause significant error
 Vibrational temperatures:     71.46   120.35   185.46   207.62   279.55
          (Kelvin)            392.95   483.18   601.58   611.68   811.68
                              878.47  1005.83  1073.92  1121.74  1136.27
                             1231.74  1287.47  1348.68  1559.73  1601.15
                             1675.10  1860.70  1919.58  1938.26  2008.81
                             2064.15  2081.16  2162.95  2610.22  2744.85
                             3268.45  4463.59  4465.14  4541.18  4565.01
                             5021.76  5364.71

 Zero-point correction=                           0.108885 (Hartree/Particle)
 Thermal correction to Energy=                    0.117635
 Thermal correction to Enthalpy=                  0.118579
 Thermal correction to Gibbs Free Energy=         0.073852
 Sum of electronic and zero-point Energies=           -420.092862
 Sum of electronic and thermal Energies=              -420.084112
 Sum of electronic and thermal Enthalpies=            -420.083168
 Sum of electronic and thermal Free Energies=         -420.127895

                     E (Thermal)             CV                S
                      KCal/Mol        Cal/Mol-Kelvin    Cal/Mol-Kelvin
 Total                   73.817             29.933             94.136
 Electronic               0.000              0.000              1.377
 Translational            0.889              2.981             40.136
 Rotational               0.889              2.981             28.819
 Vibrational             72.040             23.972             23.803
 Vibration     1          0.595              1.978              4.831
 Vibration     2          0.601              1.960              3.803
 Vibration     3          0.611              1.924              2.962
 Vibration     4          0.616              1.909              2.746
 Vibration     5          0.635              1.848              2.186
 Vibration     6          0.676              1.723              1.576
 Vibration     7          0.717              1.604              1.232
 Vibration     8          0.781              1.431              0.898
 Vibration     9          0.787              1.416              0.875
 Vibration    10          0.920              1.109              0.516
 Vibration    11          0.970              1.009              0.432

 1\1\GINC-AJ\Freq\UM062X\6-311++G(d,p)\C5H7O3(2)\AAYUSH\16-Aug-2025\0\\
 # freq 6-311++g(d,p) m062x\\Title Card Required\\0,2\O,2.344392,1.6841
 06,-0.328506\H,1.527641,1.773054,0.197688\C,-3.317508,0.189276,-0.5162
 48\H,-4.333448,0.261643,-0.827634\C,-2.175335,0.107361,-0.165136\C,-0.
 790455,0.060144,0.273009\O,-0.228829,0.986895,0.798318\O,-0.245788,-1.
 125274,0.027253\C,1.122238,-1.321005,0.443322\C,2.099844,-0.827663,-0.
 594129\H,1.200596,-2.400569,0.567591\H,1.273263,-0.83591,1.408851\H,3.
 105927,-1.192509,-0.384623\H,1.798926,-1.101255,-1.605854\H,2.201502,0

 Normal termination of Gaussian 16 at Sat Aug 16 16:00:26 2025.
