 Gaussian 16, Revision A.03,
 Gaussian 16:  ES64L-G16RevA.03 25-Dec-2016

 --------------------------
 # freq 6-311++g(d,p) m062x
 --------------------------

 -------------------
 Title Card Required
 -------------------
 Symbolic Z-matrix:
 Charge =  0 Multiplicity = 2

                         Standard orientation:
 ---------------------------------------------------------------------
 Center     Atomic      Atomic             Coordinates (Angstroms)
 Number     Number       Type             X           Y           Z
 ---------------------------------------------------------------------
      1          8           0        2.287870    1.701908   -0.321658
      2          1           0        1.473352    1.799885    0.204861
      3          6           0       -3.372858    0.212887   -0.506683
      4          1           0       -4.388824    0.284689   -0.818134
      5          6           0       -2.230670    0.131666   -0.155516
      6          6           0       -0.846020    0.085921    0.282932
      7          8           0       -0.284815    1.012663    0.807521
      8          8           0       -0.300248   -1.100263    0.038056
      9          6           0        1.067339   -1.293263    0.454012
     10          6           0        2.044807   -0.797458   -0.581938
     11          1           0        1.149043   -2.373122    0.577578
     12          1           0        1.218629   -0.808973    1.419992
     13          1           0        3.054046   -1.153516   -0.373383
     14          1           0        1.743941   -1.056178   -1.597323
     15          1           0        2.151761    0.354232   -0.561777
 ---------------------------------------------------------------------

 SCF Done:  E(UM062X) =  -420.201238417     A.U. after   20 cycles

 The electronic state is 2-A.
 Alpha  occ. eigenvalues --  -19.69897 -19.64856 -19.64839 -10.72364 -10.62099
 Alpha  occ. eigenvalues --  -10.58012 -10.57536 -10.55724  -1.27318  -1.17991
 Alpha  occ. eigenvalues --   -1.11716  -0.91762  -0.88204  -0.79609  -0.71976
 Alpha  occ. eigenvalues --   -0.66069  -0.62120  -0.60609  -0.59225  -0.56903
 Alpha  occ. eigenvalues --   -0.53786  -0.51303  -0.49447  -0.48550  -0.45215
 Alpha  occ. eigenvalues --   -0.41161  -0.40643  -0.40292  -0.38202  -0.37372
 Alpha  occ. eigenvalues --   -0.35889
 Alpha virt. eigenvalues --   -0.02887  -0.00450   0.00416   0.01670   0.02323
 Alpha virt. eigenvalues --    0.02934   0.03410   0.04958   0.05593   0.06439
 Alpha virt. eigenvalues --    0.06666   0.07359   0.07820   0.09282   0.10070

  Beta  occ. eigenvalues --  -19.69897 -19.64842 -19.63490 -10.72364 -10.62112
  Beta  occ. eigenvalues --  -10.58012 -10.57536 -10.55403  -1.27316  -1.17985
  Beta  occ. eigenvalues --   -1.06044  -0.91532  -0.87853  -0.78931  -0.71532
  Beta  occ. eigenvalues --   -0.65978  -0.62080  -0.60401  -0.58677  -0.54520
  Beta  occ. eigenvalues --   -0.52019  -0.49809  -0.48272  -0.45985  -0.43088
  Beta  occ. eigenvalues --   -0.40940  -0.39860  -0.38211  -0.37420  -0.37264
  Beta virt. eigenvalues --   -0.09632  -0.02864  -0.00395   0.00439   0.01772
  Beta virt. eigenvalues --    0.02526   0.03060   0.03421   0.05345   0.05674
  Beta virt. eigenvalues --    0.06533   0.06932   0.07489   0.07867   0.09501

 Mulliken charges and spin densities:
               1          2
     1  O   -0.319637   0.747931
     2  H    0.266682  -0.007239
     3  C   -0.636667  -0.001145
     4  H    0.181994  -0.000020
     5  C    1.218903   0.006320
     6  C   -0.660079   0.006331
     7  O   -0.274270  -0.003108
     8  O    0.026843  -0.000094
     9  C   -0.419599  -0.029873
    10  C   -0.452468   0.321349
    11  H    0.197836   0.014604
    12  H    0.230717   0.004998
    13  H    0.180623  -0.009628
    14  H    0.197467  -0.003332
    15  H    0.261653  -0.047092
 Sum of Mulliken charges =  -0.00000   1.00000

 Dipole moment (field-independent basis, Debye):
    X=             -1.9316    Y=             -2.8845    Z=             -0.0195  Tot=              3.4716
 Quadrupole moment (field-independent basis, Debye-Ang):
   XX=            -40.3453   YY=            -50.7091   ZZ=            -47.9631
   XY=             -7.9999   XZ=              4.1587   YZ=             -0.7396

  Exact polarizability:  93.217  -0.901  77.560   7.711   2.505  52.103
 Approx polarizability: 100.111   0.890  85.951  12.295   6.023  63.013

 ******    2 imaginary frequencies (negative Signs) ******

                      1                      2                      3
                      A                      A                      A
 Frequencies --   -719.9154               -41.8227                83.0456
 Red. masses --      1.7241                 6.9831                 3.8598
 Frc consts  --      0.5265                 0.0072                 0.0157
 IR Inten    --    474.4712                 1.8192                 3.7448

                      4                      5                      6
                      A                      A                      A
 Frequencies --     95.1101               150.4662               184.0796
 Red. masses --      4.2593                 4.6195                 4.2639
 Frc consts  --      0.0227                 0.0616                 0.0851
 IR Inten    --      2.0103                 0.4123                11.0292

                      7                      8                      9
                      A                      A                      A
 Frequencies --    237.9906               273.4682               337.7991
 Red. masses --      1.2260                 3.9987                 3.0623
 Frc consts  --      0.0409                 0.1762                 0.2059
 IR Inten    --      2.7034                 1.7987                13.9779

                     10                     11                     12
                      A                      A                      A
 Frequencies --    417.6972               424.4762               565.7680
 Red. masses --      1.3278                 2.1834                 4.0984
 Frc consts  --      0.1365                 0.2318                 0.7729
 IR Inten    --     73.7597                19.5585                 1.2760

                     13                     14                     15
                      A                      A                      A
 Frequencies --    610.7312               705.8607               746.6988
 Red. masses --      7.2061                 1.2085                 1.3142
 Frc consts  --      1.5836                 0.3548                 0.4317
 IR Inten    --     10.1791                40.2176                38.8233

                     16                     17                     18
                      A                      A                      A
 Frequencies --    779.7910               789.4689               871.0440
 Red. masses --      1.4545                 5.6791                 2.1197
 Frc consts  --      0.5211                 2.0855                 0.9476
 IR Inten    --     18.2513                46.8937                23.8905

                     19                     20                     21
                      A                      A                      A
 Frequencies --    906.4796               941.2055              1083.9050
 Red. masses --      1.6968                 2.5807                 3.8976
 Frc consts  --      0.8215                 1.3470                 2.6979
 IR Inten    --     78.3746                56.0291                31.8914

                     22                     23                     24
                      A                      A                      A
 Frequencies --   1113.2845              1153.1269              1257.9275
 Red. masses --      2.0012                 2.0989                 1.5426
 Frc consts  --      1.4614                 1.6443                 1.4382
 IR Inten    --     37.9672               102.5080               182.7271

                     25                     26                     27
                      A                      A                      A
 Frequencies --   1300.8761              1332.3679              1374.4680
 Red. masses --      1.6851                 1.1266                 1.6106
 Frc consts  --      1.6802                 1.1783                 1.7927
 IR Inten    --    402.0039                29.5218               280.3709

                     28                     29                     30
                      A                      A                      A
 Frequencies --   1425.5518              1433.8957              1499.2495
 Red. masses --      1.1550                 1.3828                 1.1020
 Frc consts  --      1.3829                 1.6751                 1.4594
 IR Inten    --     44.2223                74.8837                71.6709

                     31                     32                     33
                      A                      A                      A
 Frequencies --   1515.6795              1823.0508              2271.8790
 Red. masses --      1.0665                11.5703                 5.7388
 Frc consts  --      1.4436                22.6564                17.4520
 IR Inten    --    454.9131               384.3561                87.3731

                     34                     35                     36
                      A                      A                      A
 Frequencies --   3100.3173              3104.5892              3152.8719
 Red. masses --      1.0580                 1.0575                 1.1081
 Frc consts  --      5.9914                 6.0054                 6.4899
 IR Inten    --     14.0325                 6.9452                 4.1529

                     37                     38                     39
                      A                      A                      A
 Frequencies --   3177.5926              3490.2792              3741.1097
 Red. masses --      1.1066                 1.1715                 1.0665
 Frc consts  --      6.5831                 8.4086                 8.7942
 IR Inten    --      5.3294                63.2798               139.0255

 - Thermochemistry -
 -------------------
 Temperature   298.150 Kelvin.  Pressure   1.00000 Atm.
 Atom     1 has atomic number  8 and mass  15.99491

 Molecular mass:   115.03952 amu.
 Principal axes and moments of inertia in atomic units:
                           1         2         3
     Eigenvalues --   541.856561519.798341853.99210
           X            0.99967  -0.02555   0.00302
           Y            0.02557   0.99966  -0.00482
           Z           -0.00289   0.00490   0.99998
 This molecule is an asymmetric top.
 Rotational symmetry number  1.
 Warning -- assumption of classical behavior for rotation
           may cause significant error
 Rotational temperatures (Kelvin)      0.15985     0.05699     0.04672
 Rotational constants (GHZ):           3.33066     1.18749     0.97344
    2 imaginary frequencies ignored.
 Zero-point vibrational energy     283952.8 (Joules/Mol)
                                   67.86635 (Kcal/Mol)
 Warning -- explicit consideration of  11 degrees of freedom as
           vibrations may cause significant error
 Vibrational temperatures:    119.48   136.84   216.49   264.85   342.42
          (Kelvin)            393.46   486.02   600.97   610.73   814.01
                              878.71  1015.58  1074.33  1121.95  1135.87
                             1253.24  1304.22  1354.18  1559.50  1601.77
                             1659.09  1809.88  1871.67  1916.98  1977.55
                             2051.05  2063.06  2157.09  2180.72  2622.96
                             3268.73  4460.67  4466.81  4536.28  4571.85
                             5021.73  5382.62

 Zero-point correction=                           0.108152 (Hartree/Particle)
 Thermal correction to Energy=                    0.116638
 Thermal correction to Enthalpy=                  0.117582
 Thermal correction to Gibbs Free Energy=         0.073999
 Sum of electronic and zero-point Energies=           -420.093087
 Sum of electronic and thermal Energies=              -420.084600
 Sum of electronic and thermal Enthalpies=            -420.083656
 Sum of electronic and thermal Free Energies=         -420.127239

                     E (Thermal)             CV                S
                      KCal/Mol        Cal/Mol-Kelvin    Cal/Mol-Kelvin
 Total                   73.192             29.830             91.728
 Electronic               0.000              0.000              1.377
 Translational            0.889              2.981             40.136
 Rotational               0.889              2.981             28.814
 Vibrational             71.414             23.868             21.401
 Vibration     1          0.600              1.961              3.818
 Vibration     2          0.603              1.953              3.552
 Vibration     3          0.618              1.902              2.666
 Vibration     4          0.631              1.862              2.287
 Vibration     5          0.656              1.782              1.818
 Vibration     6          0.676              1.722              1.574
 Vibration     7          0.718              1.600              1.223
 Vibration     8          0.781              1.432              0.900
 Vibration     9          0.786              1.417              0.877
 Vibration    10          0.922              1.105              0.512
 Vibration    11          0.970              1.009              0.432

 1\1\GINC-AJ\Freq\UM062X\6-311++G(d,p)\C5H7O3(2)\AAYUSH\23-Jun-2025\0\\
 # freq 6-311++g(d,p) m062x\\Title Card Required\\0,2\O,2.28787,1.70190
 8,-0.321658\H,1.473352,1.799885,0.204861\C,-3.372858,0.212887,-0.50668
 3\H,-4.388824,0.284689,-0.818134\C,-2.23067,0.131666,-0.155516\C,-0.84
 602,0.085921,0.282932\O,-0.284815,1.012663,0.807521\O,-0.300248,-1.100
 263,0.038056\C,1.067339,-1.293263,0.454012\C,2.044807,-0.797458,-0.581
 938\H,1.149043,-2.373122,0.577578\H,1.218629,-0.808973,1.419992\H,3.05
 4046,-1.153516,-0.373383\H,1.743941,-1.056178,-1.597323\H,2.151761,0.3

 Normal termination of Gaussian 16 at Mon Jun 23 02:40:45 2025.
