 Gaussian 16, Revision A.03,
 Gaussian 16:  ES64L-G16RevA.03 25-Dec-2016

 --------------------------
 # ccsd(t)/6-311++g(d,p) sp
 --------------------------

 -------------------
 Title Card Required
 -------------------
 Symbolic Z-matrix:
 Charge =  0 Multiplicity = 2

                         Standard orientation:
 ---------------------------------------------------------------------
 Center     Atomic      Atomic             Coordinates (Angstroms)
 Number     Number       Type             X           Y           Z
 ---------------------------------------------------------------------
      1          8           0        2.287998    1.692085   -0.321155
      2          1           0        1.477079    1.799762    0.205609
      3          6           0       -3.372916    0.214689   -0.506302
      4          1           0       -4.388877    0.287621   -0.817557
      5          6           0       -2.230756    0.132261   -0.155366
      6          6           0       -0.846356    0.085805    0.283171
      7          8           0       -0.284560    1.010611    0.808889
      8          8           0       -0.300655   -1.101403    0.036468
      9          6           0        1.066144   -1.293857    0.451814
     10          6           0        2.043703   -0.798234   -0.582147
     11          1           0        1.150251   -2.374836    0.572821
     12          1           0        1.218805   -0.812571    1.419257
     13          1           0        3.057061   -1.140902   -0.374084
     14          1           0        1.742370   -1.036571   -1.601856
     15          1           0        2.162125    0.423171   -0.544818
 ---------------------------------------------------------------------

 SCF Done:  E(UHF) =  -417.965356595     A.U. after   33 cycles
 E2 =    -0.1281703326D+01 EUMP2 =    -0.41924705992168D+03
 CCSD(T)= -0.41934960155D+03

 The electronic state is 2-A.
 Alpha  occ. eigenvalues --  -20.62963 -20.60210 -20.57854 -11.43524 -11.30916
 Alpha  occ. eigenvalues --  -11.27744 -11.26904 -11.24504  -1.49979  -1.39907
 Alpha  occ. eigenvalues --   -1.37082  -1.09106  -1.05366  -0.94085  -0.85292
 Alpha  occ. eigenvalues --   -0.78027  -0.74027  -0.72454  -0.70868  -0.68235
 Alpha  occ. eigenvalues --   -0.64635  -0.62644  -0.58890  -0.56977  -0.54383
 Alpha  occ. eigenvalues --   -0.53055  -0.50390  -0.48784  -0.43777  -0.43588
 Alpha  occ. eigenvalues --   -0.43484
 Alpha virt. eigenvalues --    0.03518   0.04380   0.05982   0.06805   0.07371
 Alpha virt. eigenvalues --    0.07589   0.09432   0.10261   0.11075   0.11517
 Alpha virt. eigenvalues --    0.12231   0.13783   0.14199   0.15083   0.16250

  Beta  occ. eigenvalues --  -20.62961 -20.57865 -20.56667 -11.43527 -11.31012
  Beta  occ. eigenvalues --  -11.27748 -11.26901 -11.23256  -1.49980  -1.39895
  Beta  occ. eigenvalues --   -1.24468  -1.08856  -1.04204  -0.92602  -0.84168
  Beta  occ. eigenvalues --   -0.77928  -0.73975  -0.71880  -0.68635  -0.63691
  Beta  occ. eigenvalues --   -0.62572  -0.58662  -0.56638  -0.54254  -0.50900
  Beta  occ. eigenvalues --   -0.49399  -0.48666  -0.47077  -0.43707  -0.43568
  Beta virt. eigenvalues --    0.03523   0.04383   0.05724   0.06221   0.07013
  Beta virt. eigenvalues --    0.07383   0.07837   0.09996   0.10718   0.11084
  Beta virt. eigenvalues --    0.12218   0.12337   0.13827   0.14203   0.15287

 Mulliken charges and spin densities:
               1          2
     1  O   -0.327275   0.791831
     2  H    0.290351  -0.015435
     3  C   -0.699755  -0.002322
     4  H    0.205629   0.000107
     5  C    1.378740   0.005565
     6  C   -0.684260   0.009744
     7  O   -0.349326  -0.004966
     8  O   -0.055179  -0.000023
     9  C   -0.294282  -0.075028
    10  C   -0.421115   0.500039
    11  H    0.165265   0.018191
    12  H    0.209892   0.010372
    13  H    0.146265  -0.028140
    14  H    0.176027  -0.020880
    15  H    0.259023  -0.189057
 Sum of Mulliken charges =  -0.00000   1.00000

 Dipole moment (field-independent basis, Debye):
    X=             -2.1016    Y=             -2.5505    Z=             -0.0296  Tot=              3.3050
 Quadrupole moment (field-independent basis, Debye-Ang):
   XX=            -39.7356   YY=            -50.8332   ZZ=            -48.1814
   XY=             -7.2469   XZ=              4.6229   YZ=             -1.0421

 PMP3-0=-419.2728618\MP4SDQ=-419.2953039\CCSD=-419.2949279\CCSD(T)=-419
 Normal termination of Gaussian 16 at Tue Jul  8 16:08:25 2025.
