 Gaussian 16, Revision A.03,
 Gaussian 16:  ES64L-G16RevA.03 25-Dec-2016

 --------------------------
 # ccsd(t)/6-311++g(d,p) sp
 --------------------------

 -------------------
 Title Card Required
 -------------------
 Symbolic Z-matrix:
 Charge =  0 Multiplicity = 2

                         Standard orientation:
 ---------------------------------------------------------------------
 Center     Atomic      Atomic             Coordinates (Angstroms)
 Number     Number       Type             X           Y           Z
 ---------------------------------------------------------------------
      1          8           0        2.289225    1.674581   -0.319860
      2          1           0        1.487948    1.805173    0.206618
      3          6           0       -3.372950    0.219928   -0.505571
      4          1           0       -4.388848    0.295632   -0.816474
      5          6           0       -2.230902    0.134485   -0.155037
      6          6           0       -0.846912    0.085459    0.283536
      7          8           0       -0.283189    1.006724    0.811007
      8          8           0       -0.302590   -1.103775    0.033853
      9          6           0        1.062918   -1.296739    0.448118
     10          6           0        2.040006   -0.812745   -0.583604
     11          1           0        1.148934   -2.380286    0.566728
     12          1           0        1.218402   -0.820181    1.418195
     13          1           0        3.062440   -1.120409   -0.373795
     14          1           0        1.737436   -1.008738   -1.610335
     15          1           0        2.193167    0.626253   -0.515579
 ---------------------------------------------------------------------

 SCF Done:  E(UHF) =  -417.971080252     A.U. after   27 cycles
 E2 =    -0.1293972554D+01 EUMP2 =    -0.41926505280515D+03
 CCSD(T)= -0.41936007543D+03

 The electronic state is 2-A.
 Alpha  occ. eigenvalues --  -20.63693 -20.58120 -20.53996 -11.43767 -11.32458
 Alpha  occ. eigenvalues --  -11.27947 -11.27748 -11.27099  -1.50540  -1.40354
 Alpha  occ. eigenvalues --   -1.32291  -1.10083  -1.06770  -0.95281  -0.86158
 Alpha  occ. eigenvalues --   -0.78880  -0.74246  -0.72587  -0.70551  -0.68436
 Alpha  occ. eigenvalues --   -0.64323  -0.61146  -0.59091  -0.57866  -0.55501
 Alpha  occ. eigenvalues --   -0.50653  -0.49603  -0.47826  -0.43903  -0.43777
 Alpha  occ. eigenvalues --   -0.41281
 Alpha virt. eigenvalues --    0.03328   0.03955   0.05608   0.06551   0.07184
 Alpha virt. eigenvalues --    0.07330   0.09777   0.10447   0.10871   0.11784
 Alpha virt. eigenvalues --    0.12113   0.13417   0.13884   0.14920   0.15922

  Beta  occ. eigenvalues --  -20.63691 -20.58110 -20.52468 -11.43777 -11.32653
  Beta  occ. eigenvalues --  -11.27959 -11.27087 -11.25408  -1.50530  -1.40324
  Beta  occ. eigenvalues --   -1.27422  -1.09221  -1.04703  -0.92425  -0.84083
  Beta  occ. eigenvalues --   -0.78641  -0.74181  -0.72231  -0.69296  -0.63998
  Beta  occ. eigenvalues --   -0.62681  -0.59661  -0.57805  -0.55250  -0.52685
  Beta  occ. eigenvalues --   -0.50338  -0.48779  -0.46076  -0.43871  -0.43764
  Beta virt. eigenvalues --    0.03345   0.03938   0.05281   0.06289   0.06595
  Beta virt. eigenvalues --    0.07201   0.07485   0.09900   0.10686   0.10874
  Beta virt. eigenvalues --    0.12118   0.12740   0.13440   0.13899   0.15058

 Mulliken charges and spin densities:
               1          2
     1  O   -0.547466   0.296467
     2  H    0.280754   0.000049
     3  C   -0.694484  -0.006557
     4  H    0.206415   0.000445
     5  C    1.372113   0.004847
     6  C   -0.687228   0.006320
     7  O   -0.334242  -0.000011
     8  O   -0.051158  -0.001953
     9  C   -0.307918  -0.131157
    10  C   -0.397249   1.003970
    11  H    0.180046   0.049715
    12  H    0.224940   0.021207
    13  H    0.170594  -0.054774
    14  H    0.201231  -0.046792
    15  H    0.383651  -0.141774
 Sum of Mulliken charges =  -0.00000   1.00000

 Dipole moment (field-independent basis, Debye):
    X=             -2.3984    Y=             -4.3343    Z=             -0.1737  Tot=              4.9567
 Quadrupole moment (field-independent basis, Debye-Ang):
   XX=            -40.2555   YY=            -53.3279   ZZ=            -47.5925
   XY=            -11.6410   XZ=              4.1883   YZ=             -0.5196

 0=-419.2840237\MP4SDQ=-419.3079255\CCSD=-419.3053955\CCSD(T)=-419.3600
 Normal termination of Gaussian 16 at Wed Aug 20 19:14:31 2025.
