 Gaussian 16, Revision A.03,
 Gaussian 16:  ES64L-G16RevA.03 25-Dec-2016

 --------------------------
 # freq 6-311++g(d,p) m062x
 --------------------------

 -------------------
 Title Card Required
 -------------------
 Symbolic Z-matrix:
 Charge =  0 Multiplicity = 2

                         Standard orientation:
 ---------------------------------------------------------------------
 Center     Atomic      Atomic             Coordinates (Angstroms)
 Number     Number       Type             X           Y           Z
 ---------------------------------------------------------------------
      1          8           0        2.287998    1.692085   -0.321155
      2          1           0        1.477079    1.799762    0.205609
      3          6           0       -3.372916    0.214689   -0.506302
      4          1           0       -4.388877    0.287621   -0.817557
      5          6           0       -2.230756    0.132261   -0.155366
      6          6           0       -0.846356    0.085805    0.283171
      7          8           0       -0.284560    1.010611    0.808889
      8          8           0       -0.300655   -1.101403    0.036468
      9          6           0        1.066144   -1.293857    0.451814
     10          6           0        2.043703   -0.798234   -0.582147
     11          1           0        1.150251   -2.374836    0.572821
     12          1           0        1.218805   -0.812571    1.419257
     13          1           0        3.057061   -1.140902   -0.374084
     14          1           0        1.742370   -1.036571   -1.601856
     15          1           0        2.162125    0.423171   -0.544818
 ---------------------------------------------------------------------

 SCF Done:  E(UM062X) =  -420.201080802     A.U. after   20 cycles

 The electronic state is 2-A.
 Alpha  occ. eigenvalues --  -19.70056 -19.64906 -19.63596 -10.72430 -10.62508
 Alpha  occ. eigenvalues --  -10.58069 -10.57589 -10.56814  -1.27448  -1.18114
 Alpha  occ. eigenvalues --   -1.10903  -0.91974  -0.88381  -0.79744  -0.72095
 Alpha  occ. eigenvalues --   -0.66302  -0.62178  -0.60712  -0.59383  -0.56993
 Alpha  occ. eigenvalues --   -0.53830  -0.50985  -0.49669  -0.48781  -0.45516
 Alpha  occ. eigenvalues --   -0.41187  -0.40665  -0.39475  -0.38249  -0.37420
 Alpha  occ. eigenvalues --   -0.34177
 Alpha virt. eigenvalues --   -0.02944  -0.00557   0.00361   0.01558   0.02313
 Alpha virt. eigenvalues --    0.02853   0.03360   0.05014   0.05532   0.06423
 Alpha virt. eigenvalues --    0.06725   0.07311   0.07742   0.09250   0.10005

  Beta  occ. eigenvalues --  -19.70055 -19.64909 -19.62399 -10.72431 -10.62527
  Beta  occ. eigenvalues --  -10.58070 -10.57589 -10.56390  -1.27444  -1.18108
  Beta  occ. eigenvalues --   -1.06273  -0.91660  -0.87949  -0.78905  -0.71551
  Beta  occ. eigenvalues --   -0.66172  -0.62133  -0.60495  -0.58807  -0.54516
  Beta  occ. eigenvalues --   -0.52132  -0.49913  -0.48608  -0.46002  -0.43241
  Beta  occ. eigenvalues --   -0.41037  -0.39956  -0.38252  -0.37376  -0.36752
  Beta virt. eigenvalues --   -0.09862  -0.02921  -0.00487   0.00386   0.01692
  Beta virt. eigenvalues --    0.02490   0.02998   0.03371   0.05352   0.05628
  Beta virt. eigenvalues --    0.06505   0.07013   0.07433   0.07790   0.09462

 Mulliken charges and spin densities:
               1          2
     1  O   -0.367126   0.627696
     2  H    0.265842  -0.001799
     3  C   -0.635443  -0.001007
     4  H    0.182201  -0.000007
     5  C    1.218493   0.005554
     6  C   -0.657690   0.007975
     7  O   -0.271685  -0.004096
     8  O    0.027466   0.000182
     9  C   -0.423136  -0.038442
    10  C   -0.453180   0.454548
    11  H    0.201116   0.022243
    12  H    0.234835   0.007978
    13  H    0.186269  -0.014294
    14  H    0.204974  -0.006260
    15  H    0.287065  -0.060271
 Sum of Mulliken charges =  -0.00000   1.00000

 Dipole moment (field-independent basis, Debye):
    X=             -2.0132    Y=             -3.2931    Z=             -0.0361  Tot=              3.8599
 Quadrupole moment (field-independent basis, Debye-Ang):
   XX=            -40.4880   YY=            -51.2698   ZZ=            -47.8503
   XY=             -9.0178   XZ=              4.0871   YZ=             -0.6143

  Exact polarizability:  93.351  -0.393  78.897   7.651   2.478  52.188
 Approx polarizability: 100.274   1.524  89.709  12.285   6.186  63.232

 ******    1 imaginary frequencies (negative Signs) ******

                      1                      2                      3
                      A                      A                      A
 Frequencies --  -1545.0206                42.8379                94.4033
 Red. masses --      1.0938                 8.3227                 3.7626
 Frc consts  --      1.5383                 0.0090                 0.0198
 IR Inten    --   1042.1566                 2.1972                 3.3051

                      4                      5                      6
                      A                      A                      A
 Frequencies --    117.2638               174.5111               190.7958
 Red. masses --      4.8523                 3.9172                 5.7222
 Frc consts  --      0.0393                 0.0703                 0.1227
 IR Inten    --      3.4791                 0.2608                 7.5084

                      7                      8                      9
                      A                      A                      A
 Frequencies --    273.3952               333.6448               364.4417
 Red. masses --      4.3268                 2.8437                 1.1967
 Frc consts  --      0.1905                 0.1865                 0.0936
 IR Inten    --      2.3769                 9.5558                22.4041

                     10                     11                     12
                      A                      A                      A
 Frequencies --    413.6869               446.3438               569.4774
 Red. masses --      1.3256                 2.1474                 3.7586
 Frc consts  --      0.1337                 0.2521                 0.7182
 IR Inten    --     68.2969                12.1749                 1.1253

                     13                     14                     15
                      A                      A                      A
 Frequencies --    608.7124               628.8818               747.2329
 Red. masses --      5.7046                 3.2739                 1.3142
 Frc consts  --      1.2454                 0.7629                 0.4323
 IR Inten    --     13.5165                 4.5146                39.4799

                     16                     17                     18
                      A                      A                      A
 Frequencies --    779.8883               787.3675               796.1305
 Red. masses --      1.5196                 2.9589                 1.5401
 Frc consts  --      0.5446                 1.0808                 0.5751
 IR Inten    --     18.4759                56.5319               162.3783

                     19                     20                     21
                      A                      A                      A
 Frequencies --    877.5202               919.9504               962.0209
 Red. masses --      2.7761                 1.9540                 1.7890
 Frc consts  --      1.2595                 0.9743                 0.9755
 IR Inten    --      5.9176                20.0390                31.0852

                     22                     23                     24
                      A                      A                      A
 Frequencies --   1088.9869              1132.0276              1174.9591
 Red. masses --      3.7089                 2.1333                 1.5270
 Frc consts  --      2.5914                 1.6107                 1.2421
 IR Inten    --     31.7254                30.3442                15.0091

                     25                     26                     27
                      A                      A                      A
 Frequencies --   1260.8448              1288.7819              1346.5724
 Red. masses --      1.0729                 2.4764                 1.5121
 Frc consts  --      1.0049                 2.4234                 1.6154
 IR Inten    --     36.5655               411.0637               230.7128

                     28                     29                     30
                      A                      A                      A
 Frequencies --   1413.4471              1431.2532              1449.3029
 Red. masses --      1.2414                 1.1873                 1.1506
 Frc consts  --      1.4612                 1.4330                 1.4239
 IR Inten    --     54.4654                70.1374                 7.9109

                     31                     32                     33
                      A                      A                      A
 Frequencies --   1494.7634              1825.1839              2272.0271
 Red. masses --      1.1022                11.8558                 5.7384
 Frc consts  --      1.4510                23.2698                17.4528
 IR Inten    --     23.4550               320.6670                88.0657

                     34                     35                     36
                      A                      A                      A
 Frequencies --   3094.5730              3109.6781              3145.9154
 Red. masses --      1.0578                 1.0565                 1.1076
 Frc consts  --      5.9683                 6.0194                 6.4585
 IR Inten    --     12.7818                 3.6629                 2.2845

                     37                     38                     39
                      A                      A                      A
 Frequencies --   3188.1195              3490.1894              3767.1800
 Red. masses --      1.1087                 1.1716                 1.0663
 Frc consts  --      6.6393                 8.4084                 8.9156
 IR Inten    --      3.3888                63.3172               136.2102

 - Thermochemistry -
 -------------------
 Temperature   298.150 Kelvin.  Pressure   1.00000 Atm.
 Atom     1 has atomic number  8 and mass  15.99491

 Molecular mass:   115.03952 amu.
 Principal axes and moments of inertia in atomic units:
                           1         2         3
     Eigenvalues --   540.039191519.775741852.21519
           X            0.99969  -0.02473   0.00307
           Y            0.02475   0.99968  -0.00547
           Z           -0.00294   0.00554   0.99998
 This molecule is an asymmetric top.
 Rotational symmetry number  1.
 Warning -- assumption of classical behavior for rotation
           may cause significant error
 Rotational temperatures (Kelvin)      0.16038     0.05699     0.04676
 Rotational constants (GHZ):           3.34187     1.18750     0.97437
    1 imaginary frequencies ignored.
 Zero-point vibrational energy     281734.4 (Joules/Mol)
                                   67.33614 (Kcal/Mol)
 Warning -- explicit consideration of  12 degrees of freedom as
           vibrations may cause significant error
 Vibrational temperatures:     61.63   135.83   168.72   251.08   274.51
          (Kelvin)            393.35   480.04   524.35   595.20   642.19
                              819.35   875.80   904.82  1075.10  1122.09
                             1132.85  1145.45  1262.56  1323.60  1384.13
                             1566.81  1628.74  1690.50  1814.07  1854.27
                             1937.42  2033.64  2059.25  2085.22  2150.63
                             2626.03  3268.94  4452.40  4474.13  4526.27
                             4586.99  5021.60  5420.13

 Zero-point correction=                           0.107307 (Hartree/Particle)
 Thermal correction to Energy=                    0.116454
 Thermal correction to Enthalpy=                  0.117398
 Thermal correction to Gibbs Free Energy=         0.072091
 Sum of electronic and zero-point Energies=           -420.093774
 Sum of electronic and thermal Energies=              -420.084627
 Sum of electronic and thermal Enthalpies=            -420.083683
 Sum of electronic and thermal Free Energies=         -420.128990

                     E (Thermal)             CV                S
                      KCal/Mol        Cal/Mol-Kelvin    Cal/Mol-Kelvin
 Total                   73.076             32.108             95.357
 Electronic               0.000              0.000              1.377
 Translational            0.889              2.981             40.136
 Rotational               0.889              2.981             28.810
 Vibrational             71.298             26.146             25.035
 Vibration     1          0.595              1.980              5.123
 Vibration     2          0.603              1.953              3.567
 Vibration     3          0.608              1.935              3.145
 Vibration     4          0.627              1.874              2.386
 Vibration     5          0.634              1.853              2.220
 Vibration     6          0.676              1.722              1.575
 Vibration     7          0.715              1.608              1.242
 Vibration     8          0.738              1.545              1.103
 Vibration     9          0.777              1.441              0.914
 Vibration    10          0.806              1.369              0.807
 Vibration    11          0.926              1.097              0.505
 Vibration    12          0.968              1.013              0.435

 1\1\GINC-AJ\Freq\UM062X\6-311++G(d,p)\C5H7O3(2)\AAYUSH\16-Aug-2025\0\\
 # freq 6-311++g(d,p) m062x\\Title Card Required\\0,2\O,2.343092,1.6678
 94,-0.331592\H,1.53214,1.775613,0.195113\C,-3.31751,0.189243,-0.516258
 \H,-4.33348,0.261838,-0.827563\C,-2.17534,0.107194,-0.165267\C,-0.7909
 39,0.061203,0.273316\O,-0.229346,0.986337,0.798674\O,-0.244985,-1.1259
 9,0.0271\C,1.121845,-1.317992,0.442551\C,2.099322,-0.82258,-0.59159\H,
 1.206176,-2.398905,0.563993\H,1.274387,-0.836286,1.409803\H,3.112747,-
 1.164953,-0.383369\H,1.798058,-1.061389,-1.611209\H,2.217488,0.398864,

 Normal termination of Gaussian 16 at Sat Aug 16 15:48:56 2025.
