 Gaussian 16, Revision A.03,
 Gaussian 16:  ES64L-G16RevA.03 25-Dec-2016

 --------------------------
 # freq 6-311++g(d,p) m062x
 --------------------------

 -------------------
 Title Card Required
 -------------------
 Symbolic Z-matrix:
 Charge =  0 Multiplicity = 2

                         Standard orientation:
 ---------------------------------------------------------------------
 Center     Atomic      Atomic             Coordinates (Angstroms)
 Number     Number       Type             X           Y           Z
 ---------------------------------------------------------------------
      1          8           0        2.289611    1.738568   -0.321868
      2          1           0        1.467652    1.802624    0.201995
      3          6           0       -3.372417    0.210500   -0.507897
      4          1           0       -4.388335    0.279831   -0.820039
      5          6           0       -2.230248    0.131922   -0.155864
      6          6           0       -0.844880    0.087551    0.282283
      7          8           0       -0.283829    1.019054    0.801614
      8          8           0       -0.300725   -1.097745    0.044008
      9          6           0        1.067839   -1.294900    0.462916
     10          6           0        2.045479   -0.822843   -0.585169
     11          1           0        1.139136   -2.372705    0.601244
     12          1           0        1.219451   -0.797157    1.421691
     13          1           0        3.047376   -1.192505   -0.363557
     14          1           0        1.746407   -1.147606   -1.582627
     15          1           0        2.133213    0.275124   -0.626352
 ---------------------------------------------------------------------

 SCF Done:  E(UM062X) =  -420.203662717     A.U. after   20 cycles

 The electronic state is 2-A.
 Alpha  occ. eigenvalues --  -19.69760 -19.66150 -19.64771 -10.72312 -10.61711
 Alpha  occ. eigenvalues --  -10.57953 -10.57484 -10.54582  -1.27208  -1.17858
 Alpha  occ. eigenvalues --   -1.12499  -0.91566  -0.88006  -0.79374  -0.71791
 Alpha  occ. eigenvalues --   -0.65860  -0.62059  -0.60494  -0.58894  -0.56532
 Alpha  occ. eigenvalues --   -0.54003  -0.51646  -0.49078  -0.48128  -0.44913
 Alpha  occ. eigenvalues --   -0.41706  -0.40970  -0.40317  -0.38161  -0.38098
 Alpha  occ. eigenvalues --   -0.37313
 Alpha virt. eigenvalues --   -0.02828  -0.00361   0.00474   0.01762   0.02305
 Alpha virt. eigenvalues --    0.03031   0.03460   0.04921   0.05654   0.06397
 Alpha virt. eigenvalues --    0.06623   0.07374   0.07888   0.09342   0.10125

  Beta  occ. eigenvalues --  -19.69760 -19.64775 -19.64657 -10.72312 -10.61720
  Beta  occ. eigenvalues --  -10.57953 -10.57484 -10.54377  -1.27206  -1.17852
  Beta  occ. eigenvalues --   -1.05512  -0.91427  -0.87779  -0.78931  -0.71491
  Beta  occ. eigenvalues --   -0.65808  -0.62027  -0.60320  -0.58499  -0.54524
  Beta  occ. eigenvalues --   -0.51867  -0.49811  -0.47906  -0.46032  -0.42922
  Beta  occ. eigenvalues --   -0.40889  -0.39810  -0.38285  -0.38029  -0.37278
  Beta virt. eigenvalues --   -0.08960  -0.02806  -0.00320   0.00493   0.01830
  Beta virt. eigenvalues --    0.02544   0.03133   0.03473   0.05352   0.05725
  Beta virt. eigenvalues --    0.06515   0.06812   0.07511   0.07927   0.09549

 Mulliken charges and spin densities:
               1          2
     1  O   -0.276492   0.864659
     2  H    0.269751  -0.011461
     3  C   -0.638497  -0.001233
     4  H    0.181786  -0.000029
     5  C    1.219689   0.006720
     6  C   -0.661299   0.003731
     7  O   -0.277580  -0.001512
     8  O    0.027108  -0.000523
     9  C   -0.424089  -0.023208
    10  C   -0.432839   0.198167
    11  H    0.194785   0.007558
    12  H    0.226872   0.001911
    13  H    0.173663  -0.006393
    14  H    0.190203  -0.001118
    15  H    0.226941  -0.037269
 Sum of Mulliken charges =  -0.00000   1.00000

 Dipole moment (field-independent basis, Debye):
    X=             -1.8636    Y=             -2.5118    Z=              0.0036  Tot=              3.1277
 Quadrupole moment (field-independent basis, Debye-Ang):
   XX=            -40.3266   YY=            -50.1830   ZZ=            -48.0822
   XY=             -7.0410   XZ=              4.2389   YZ=             -0.8604

  Exact polarizability:  93.016  -2.402  70.918   7.712   2.299  52.090
 Approx polarizability:  99.948   0.005  79.653  12.262   5.648  62.777

 ******    3 imaginary frequencies (negative Signs) ******

                      1                      2                      3
                      A                      A                      A
 Frequencies --   -280.4866               -80.8707                -5.5750
 Red. masses --      1.2325                 4.7445                 3.2996
 Frc consts  --      0.0571                 0.0183                 0.0001
 IR Inten    --     15.7733                 4.1624                 1.4540

                      4                      5                      6
                      A                      A                      A
 Frequencies --     40.9140                85.2279               144.7545
 Red. masses --      3.8791                 3.4979                 5.1600
 Frc consts  --      0.0038                 0.0150                 0.0637
 IR Inten    --      3.8543                 2.7844                 0.8999

                      7                      8                      9
                      A                      A                      A
 Frequencies --    191.9797               273.0735               334.5834
 Red. masses --      4.5403                 4.2938                 3.5291
 Frc consts  --      0.0986                 0.1886                 0.2328
 IR Inten    --      9.2392                 2.2728                12.4729

                     10                     11                     12
                      A                      A                      A
 Frequencies --    414.0898               431.9844               562.3696
 Red. masses --      3.6174                 1.0556                 4.2548
 Frc consts  --      0.3655                 0.1161                 0.7928
 IR Inten    --      2.4171                95.2058                 1.6437

                     13                     14                     15
                      A                      A                      A
 Frequencies --    610.2645               672.7219               745.9359
 Red. masses --      7.1772                 1.1292                 1.3137
 Frc consts  --      1.5749                 0.3011                 0.4307
 IR Inten    --      9.7962               141.8097                38.8326

                     16                     17                     18
                      A                      A                      A
 Frequencies --    779.3481               789.5684               811.7657
 Red. masses --      1.4478                 5.2157                 1.1906
 Frc consts  --      0.5181                 1.9158                 0.4623
 IR Inten    --     17.7350                55.1909                57.2577

                     19                     20                     21
                      A                      A                      A
 Frequencies --    887.4868               935.3086              1081.2320
 Red. masses --      2.9405                 3.0966                 3.8774
 Frc consts  --      1.3646                 1.5960                 2.6707
 IR Inten    --     21.7426                10.9628                29.4190

                     22                     23                     24
                      A                      A                      A
 Frequencies --   1109.2277              1169.8017              1299.7000
 Red. masses --      2.1734                 1.8455                 2.7467
 Frc consts  --      1.5755                 1.4880                 2.7337
 IR Inten    --     18.1923                 5.4515               451.6338

                     25                     26                     27
                      A                      A                      A
 Frequencies --   1344.8313              1382.2873              1403.1329
 Red. masses --      1.3243                 1.0778                 1.3330
 Frc consts  --      1.4111                 1.2134                 1.5462
 IR Inten    --    161.6729                 6.4910                56.5357

                     28                     29                     30
                      A                      A                      A
 Frequencies --   1439.4466              1461.0933              1506.6432
 Red. masses --      1.3828                 1.0560                 1.1063
 Frc consts  --      1.6882                 1.3282                 1.4796
 IR Inten    --     26.3024                 2.4817                21.3430

                     31                     32                     33
                      A                      A                      A
 Frequencies --   1815.7842              2271.2031              2544.8332
 Red. masses --     11.6616                 5.7394                 1.0940
 Frc consts  --     22.6536                17.4433                 4.1743
 IR Inten    --    329.9093                86.3928               479.2376

                     34                     35                     36
                      A                      A                      A
 Frequencies --   3102.6189              3105.7114              3160.2403
 Red. masses --      1.0594                 1.0604                 1.1061
 Frc consts  --      6.0086                 6.0260                 6.5088
 IR Inten    --     10.0572                17.2952                 8.9449

                     37                     38                     39
                      A                      A                      A
 Frequencies --   3167.0742              3490.2397              3710.6460
 Red. masses --      1.1054                 1.1714                 1.0666
 Frc consts  --      6.5328                 8.4077                 8.6528
 IR Inten    --      7.6002                63.3203               153.3652

 - Thermochemistry -
 -------------------
 Temperature   298.150 Kelvin.  Pressure   1.00000 Atm.
 Atom     1 has atomic number  8 and mass  15.99491

 Molecular mass:   115.03952 amu.
 Principal axes and moments of inertia in atomic units:
                           1         2         3
     Eigenvalues --   552.359361519.911681864.09664
           X            0.99962  -0.02732   0.00287
           Y            0.02733   0.99962  -0.00346
           Z           -0.00278   0.00353   0.99999
 This molecule is an asymmetric top.
 Rotational symmetry number  1.
 Warning -- assumption of classical behavior for rotation
           may cause significant error
 Rotational temperatures (Kelvin)      0.15681     0.05699     0.04646
 Rotational constants (GHZ):           3.26733     1.18740     0.96816
    3 imaginary frequencies ignored.
 Zero-point vibrational energy     288761.3 (Joules/Mol)
                                   69.01561 (Kcal/Mol)
 Warning -- explicit consideration of  10 degrees of freedom as
           vibrations may cause significant error
 Vibrational temperatures:     58.87   122.62   208.27   276.22   392.89
          (Kelvin)            481.39   595.78   621.53   809.12   878.03
                              967.90  1073.24  1121.31  1136.01  1167.95
                             1276.90  1345.70  1555.65  1595.93  1683.08
                             1869.98  1934.91  1988.80  2018.80  2071.04
                             2102.19  2167.72  2612.51  3267.75  3661.45
                             4463.98  4468.43  4546.88  4556.71  5021.68
                             5338.79

 Zero-point correction=                           0.109983 (Hartree/Particle)
 Thermal correction to Energy=                    0.118093
 Thermal correction to Enthalpy=                  0.119037
 Thermal correction to Gibbs Free Energy=         0.075506
 Sum of electronic and zero-point Energies=           -420.093679
 Sum of electronic and thermal Energies=              -420.085570
 Sum of electronic and thermal Enthalpies=            -420.084625
 Sum of electronic and thermal Free Energies=         -420.128157

                     E (Thermal)             CV                S
                      KCal/Mol        Cal/Mol-Kelvin    Cal/Mol-Kelvin
 Total                   74.105             28.104             91.620
 Electronic               0.000              0.000              1.377
 Translational            0.889              2.981             40.136
 Rotational               0.889              2.981             28.839
 Vibrational             72.327             22.142             21.268
 Vibration     1          0.594              1.981              5.214
 Vibration     2          0.601              1.959              3.767
 Vibration     3          0.616              1.908              2.740
 Vibration     4          0.634              1.851              2.209
 Vibration     5          0.676              1.723              1.577
 Vibration     6          0.716              1.606              1.238
 Vibration     7          0.778              1.440              0.912
 Vibration     8          0.793              1.401              0.852
 Vibration     9          0.918              1.113              0.519
 Vibration    10          0.969              1.010              0.432

 1\1\GINC-AJ\Freq\UM062X\6-311++G(d,p)\C5H7O3(2)\AAYUSH\16-Aug-2025\0\\
 # freq 6-311++g(d,p) m062x\\Title Card Required\\0,2\O,2.346069,1.7111
 61,-0.322621\H,1.524278,1.772968,0.201776\C,-3.31739,0.189345,-0.51618
 1\H,-4.33331,0.261387,-0.827704\C,-2.17522,0.107712,-0.164847\C,-0.789
 802,0.059572,0.272743\O,-0.227793,0.987576,0.797275\O,-0.246779,-1.124
 837,0.027573\C,1.121692,-1.325633,0.445053\C,2.099544,-0.848478,-0.600
 523\H,1.192034,-2.404277,0.577196\H,1.273958,-0.833523,1.406628\H,3.10
 1149,-1.220315,-0.381244\H,1.799968,-1.167255,-1.599759\H,2.188271,0.2

 Normal termination of Gaussian 16 at Sat Aug 16 16:14:16 2025.
