 Gaussian 16, Revision A.03,
 Gaussian 16:  ES64L-G16RevA.03 25-Dec-2016

 --------------------------
 # freq 6-311++g(d,p) m062x
 --------------------------

 -------------------
 Title Card Required
 -------------------
 Symbolic Z-matrix:
 Charge =  0 Multiplicity = 2

                         Standard orientation:
 ---------------------------------------------------------------------
 Center     Atomic      Atomic             Coordinates (Angstroms)
 Number     Number       Type             X           Y           Z
 ---------------------------------------------------------------------
      1          8           0        2.288241    1.687034   -0.320814
      2          1           0        1.479613    1.800218    0.205909
      3          6           0       -3.372932    0.215955   -0.506095
      4          1           0       -4.388881    0.289598   -0.817250
      5          6           0       -2.230795    0.132761   -0.155276
      6          6           0       -0.846511    0.085720    0.283285
      7          8           0       -0.284270    1.009510    0.809542
      8          8           0       -0.301065   -1.102046    0.035674
      9          6           0        1.065340   -1.294496    0.450724
     10          6           0        2.042870   -0.800789   -0.582467
     11          1           0        1.150283   -2.376196    0.570749
     12          1           0        1.218775   -0.814657    1.418916
     13          1           0        3.058566   -1.135104   -0.374207
     14          1           0        1.741212   -1.028222   -1.604237
     15          1           0        2.169344    0.473481   -0.536117
 ---------------------------------------------------------------------

 SCF Done:  E(UM062X) =  -420.202093233     A.U. after   17 cycles

 The electronic state is 2-A.
 Alpha  occ. eigenvalues --  -19.70155 -19.64951 -19.62757 -10.72475 -10.62753
 Alpha  occ. eigenvalues --  -10.58106 -10.57623 -10.57385  -1.27531  -1.18190
 Alpha  occ. eigenvalues --   -1.10481  -0.92110  -0.88485  -0.79814  -0.72160
 Alpha  occ. eigenvalues --   -0.66447  -0.62214  -0.60787  -0.59480  -0.57030
 Alpha  occ. eigenvalues --   -0.53954  -0.51038  -0.49748  -0.48639  -0.45699
 Alpha  occ. eigenvalues --   -0.41242  -0.40746  -0.38877  -0.38262  -0.37449
 Alpha  occ. eigenvalues --   -0.33132
 Alpha virt. eigenvalues --   -0.02981  -0.00628   0.00329   0.01488   0.02292
 Alpha virt. eigenvalues --    0.02808   0.03328   0.05049   0.05496   0.06413
 Alpha virt. eigenvalues --    0.06765   0.07285   0.07695   0.09237   0.09967

  Beta  occ. eigenvalues --  -19.70154 -19.64954 -19.61707 -10.72475 -10.62777
  Beta  occ. eigenvalues --  -10.58106 -10.57623 -10.56885  -1.27525  -1.18182
  Beta  occ. eigenvalues --   -1.06501  -0.91736  -0.87999  -0.78870  -0.71549
  Beta  occ. eigenvalues --   -0.66286  -0.62166  -0.60558  -0.58893  -0.54523
  Beta  occ. eigenvalues --   -0.52321  -0.50035  -0.48800  -0.46020  -0.43402
  Beta  occ. eigenvalues --   -0.41107  -0.40043  -0.38282  -0.37403  -0.36518
  Beta virt. eigenvalues --   -0.09792  -0.02958  -0.00546   0.00356   0.01642
  Beta virt. eigenvalues --    0.02462   0.02963   0.03339   0.05352   0.05600
  Beta virt. eigenvalues --    0.06484   0.07055   0.07396   0.07739   0.09436

 Mulliken charges and spin densities:
               1          2
     1  O   -0.399744   0.534555
     2  H    0.266003   0.002074
     3  C   -0.634643  -0.000834
     4  H    0.182330   0.000005
     5  C    1.217972   0.004395
     6  C   -0.655978   0.008282
     7  O   -0.270489  -0.004245
     8  O    0.027917   0.000284
     9  C   -0.426253  -0.043411
    10  C   -0.450733   0.556054
    11  H    0.203352   0.028103
    12  H    0.237266   0.010139
    13  H    0.189527  -0.018119
    14  H    0.209351  -0.009141
    15  H    0.304120  -0.068140
 Sum of Mulliken charges =  -0.00000   1.00000

 Dipole moment (field-independent basis, Debye):
    X=             -2.0658    Y=             -3.5381    Z=             -0.0462  Tot=              4.0972
 Quadrupole moment (field-independent basis, Debye-Ang):
   XX=            -40.5883   YY=            -51.6363   ZZ=            -47.7806
   XY=             -9.6331   XZ=              4.0434   YZ=             -0.5486

  Exact polarizability:  93.393  -0.445  78.008   7.589   2.407  52.266
 Approx polarizability: 100.349   1.708  90.407  12.251   6.178  63.362

 ******    1 imaginary frequencies (negative Signs) ******

                      1                      2                      3
                      A                      A                      A
 Frequencies --  -1722.2319                48.2389                96.8142
 Red. masses --      1.0709                 8.0393                 3.8244
 Frc consts  --      1.8714                 0.0110                 0.0211
 IR Inten    --    694.2448                 2.3431                 3.1539

                      4                      5                      6
                      A                      A                      A
 Frequencies --    121.4140               184.7363               193.7818
 Red. masses --      4.7888                 3.5723                 6.7345
 Frc consts  --      0.0416                 0.0718                 0.1490
 IR Inten    --      3.7673                 1.2350                 5.8438

                      7                      8                      9
                      A                      A                      A
 Frequencies --    273.5970               336.6728               386.5285
 Red. masses --      4.3227                 3.1447                 1.1846
 Frc consts  --      0.1906                 0.2100                 0.1043
 IR Inten    --      2.2593                11.6531                37.0780

                     10                     11                     12
                      A                      A                      A
 Frequencies --    416.1794               471.9323               561.3433
 Red. masses --      1.5866                 1.7850                 3.7756
 Frc consts  --      0.1619                 0.2342                 0.7010
 IR Inten    --     50.1240                13.4501                 5.3936

                     13                     14                     15
                      A                      A                      A
 Frequencies --    574.6135               612.5431               747.5455
 Red. masses --      3.3223                 7.3887                 1.3141
 Frc consts  --      0.6463                 1.6334                 0.4327
 IR Inten    --      1.8156                 8.5778                39.8297

                     16                     17                     18
                      A                      A                      A
 Frequencies --    769.3241               780.3136               789.0340
 Red. masses --      1.1757                 1.4518                 5.0709
 Frc consts  --      0.4100                 0.5208                 1.8601
 IR Inten    --     92.4383                17.9097                51.9529

                     19                     20                     21
                      A                      A                      A
 Frequencies --    875.6067               916.8540               961.9168
 Red. masses --      2.7010                 1.9629                 1.8621
 Frc consts  --      1.2201                 0.9722                 1.0151
 IR Inten    --      5.8358                12.9250                24.4999

                     22                     23                     24
                      A                      A                      A
 Frequencies --   1088.2124              1124.3463              1168.5794
 Red. masses --      3.5135                 1.9606                 1.4780
 Frc consts  --      2.4514                 1.4603                 1.1891
 IR Inten    --     37.6714                23.4285                13.3937

                     25                     26                     27
                      A                      A                      A
 Frequencies --   1209.2227              1285.0478              1343.9617
 Red. masses --      1.1724                 2.4325                 1.5604
 Frc consts  --      1.0101                 2.3667                 1.6606
 IR Inten    --     21.6880               406.4477               240.9037

                     28                     29                     30
                      A                      A                      A
 Frequencies --   1415.3688              1446.7893              1457.5149
 Red. masses --      1.3415                 1.1433                 1.0958
 Frc consts  --      1.5833                 1.4101                 1.3715
 IR Inten    --     39.1650                 8.2156                99.8106

                     31                     32                     33
                      A                      A                      A
 Frequencies --   1490.4361              1826.7138              2272.0689
 Red. masses --      1.1019                11.8427                 5.7381
 Frc consts  --      1.4422                23.2831                17.4527
 IR Inten    --     25.3539               312.0656                88.4639

                     34                     35                     36
                      A                      A                      A
 Frequencies --   3089.7760              3113.0711              3141.3519
 Red. masses --      1.0579                 1.0563                 1.1065
 Frc consts  --      5.9503                 6.0316                 6.4335
 IR Inten    --     11.7466                 2.6635                 1.8535

                     37                     38                     39
                      A                      A                      A
 Frequencies --   3194.6886              3490.1413              3784.5148
 Red. masses --      1.1098                 1.1716                 1.0660
 Frc consts  --      6.6734                 8.4083                 8.9959
 IR Inten    --      2.5451                63.3561               135.1944

 - Thermochemistry -
 -------------------
 Temperature   298.150 Kelvin.  Pressure   1.00000 Atm.
 Atom     1 has atomic number  8 and mass  15.99491

 Molecular mass:   115.03952 amu.
 Principal axes and moments of inertia in atomic units:
                           1         2         3
     Eigenvalues --   539.418221519.767991851.60595
           X            0.99970  -0.02421   0.00310
           Y            0.02423   0.99969  -0.00586
           Z           -0.00296   0.00594   0.99998
 This molecule is an asymmetric top.
 Rotational symmetry number  1.
 Warning -- assumption of classical behavior for rotation
           may cause significant error
 Rotational temperatures (Kelvin)      0.16057     0.05699     0.04678
 Rotational constants (GHZ):           3.34572     1.18751     0.97469
    1 imaginary frequencies ignored.
 Zero-point vibrational energy     281486.1 (Joules/Mol)
                                   67.27678 (Kcal/Mol)
 Warning -- explicit consideration of  13 degrees of freedom as
           vibrations may cause significant error
 Vibrational temperatures:     69.41   139.29   174.69   265.79   278.81
          (Kelvin)            393.65   484.40   556.13   598.79   679.01
                              807.65   826.74   881.31  1075.55  1106.89
                             1122.70  1135.24  1259.80  1319.15  1383.98
                             1565.69  1617.68  1681.33  1739.80  1848.90
                             1933.66  2036.40  2081.61  2097.04  2144.41
                             2628.23  3269.00  4445.50  4479.01  4519.70
                             4596.44  5021.53  5445.07

 Zero-point correction=                           0.107212 (Hartree/Particle)
 Thermal correction to Energy=                    0.116309
 Thermal correction to Enthalpy=                  0.117253
 Thermal correction to Gibbs Free Energy=         0.072203
 Sum of electronic and zero-point Energies=           -420.094881
 Sum of electronic and thermal Energies=              -420.085784
 Sum of electronic and thermal Enthalpies=            -420.084840
 Sum of electronic and thermal Free Energies=         -420.129891

                     E (Thermal)             CV                S
                      KCal/Mol        Cal/Mol-Kelvin    Cal/Mol-Kelvin
 Total                   72.985             32.179             94.817
 Electronic               0.000              0.000              1.377
 Translational            0.889              2.981             40.136
 Rotational               0.889              2.981             28.808
 Vibrational             71.208             26.217             24.496
 Vibration     1          0.595              1.978              4.888
 Vibration     2          0.603              1.951              3.517
 Vibration     3          0.609              1.931              3.078
 Vibration     4          0.631              1.861              2.280
 Vibration     5          0.635              1.849              2.191
 Vibration     6          0.676              1.722              1.573
 Vibration     7          0.717              1.602              1.228
 Vibration     8          0.755              1.499              1.014
 Vibration     9          0.779              1.435              0.905
 Vibration    10          0.829              1.312              0.732
 Vibration    11          0.917              1.115              0.521
 Vibration    12          0.931              1.086              0.495
 Vibration    13          0.972              1.005              0.429

 1\1\GINC-AJ\Freq\UM062X\6-311++G(d,p)\C5H7O3(2)\AAYUSH\23-Jun-2025\0\\
 # freq 6-311++g(d,p) m062x\\Title Card Required\\0,2\O,2.288241,1.6870
 34,-0.320814\H,1.479613,1.800218,0.205909\C,-3.372932,0.215955,-0.5060
 95\H,-4.388881,0.289598,-0.81725\C,-2.230795,0.132761,-0.155276\C,-0.8
 46511,0.08572,0.283285\O,-0.28427,1.00951,0.809542\O,-0.301065,-1.1020
 46,0.035674\C,1.06534,-1.294496,0.450724\C,2.04287,-0.800789,-0.582467
 \H,1.150283,-2.376196,0.570749\H,1.218775,-0.814657,1.418916\H,3.05856
 6,-1.135104,-0.374207\H,1.741212,-1.028222,-1.604237\H,2.169344,0.4734

 Normal termination of Gaussian 16 at Mon Jun 23 02:11:28 2025.
