 Gaussian 16, Revision A.03,
 Gaussian 16:  ES64L-G16RevA.03 25-Dec-2016

 --------------------------
 # freq 6-311++g(d,p) m062x
 --------------------------

 -------------------
 Title Card Required
 -------------------
 Symbolic Z-matrix:
 Charge =  0 Multiplicity = 2

                         Standard orientation:
 ---------------------------------------------------------------------
 Center     Atomic      Atomic             Coordinates (Angstroms)
 Number     Number       Type             X           Y           Z
 ---------------------------------------------------------------------
      1          8           0        2.288679    1.680394   -0.320337
      2          1           0        1.483584    1.801894    0.206272
      3          6           0       -3.372945    0.217888   -0.505819
      4          1           0       -4.388871    0.292558   -0.816842
      5          6           0       -2.230848    0.133577   -0.155150
      6          6           0       -0.846712    0.085576    0.283419
      7          8           0       -0.283763    1.008052    0.810343
      8          8           0       -0.301779   -1.102925    0.034682
      9          6           0        1.064154   -1.295580    0.449328
     10          6           0        2.041534   -0.805937   -0.583014
     11          1           0        1.149825   -2.378263    0.568395
     12          1           0        1.218612   -0.817532    1.418523
     13          1           0        3.060523   -1.127843   -0.374160
     14          1           0        1.739406   -1.018151   -1.607399
     15          1           0        2.180730    0.550023   -0.524876
 ---------------------------------------------------------------------

 SCF Done:  E(UM062X) =  -420.205919103     A.U. after   18 cycles

 The electronic state is 2-A.
 Alpha  occ. eigenvalues --  -19.70272 -19.65012 -19.61565 -10.72531 -10.63030
 Alpha  occ. eigenvalues --  -10.58151 -10.57958 -10.57666  -1.27632  -1.18284
 Alpha  occ. eigenvalues --   -1.10190  -0.92278  -0.88606  -0.79895  -0.72238
 Alpha  occ. eigenvalues --   -0.66621  -0.62258  -0.60902  -0.59642  -0.57128
 Alpha  occ. eigenvalues --   -0.54196  -0.51326  -0.49939  -0.48064  -0.45904
 Alpha  occ. eigenvalues --   -0.41331  -0.40827  -0.38405  -0.38000  -0.37483
 Alpha  occ. eigenvalues --   -0.31997
 Alpha virt. eigenvalues --   -0.03028  -0.00712   0.00292   0.01405   0.02256
 Alpha virt. eigenvalues --    0.02758   0.03289   0.05090   0.05455   0.06406
 Alpha virt. eigenvalues --    0.06819   0.07264   0.07640   0.09227   0.09927

  Beta  occ. eigenvalues --  -19.70270 -19.65013 -19.60753 -10.72531 -10.63061
  Beta  occ. eigenvalues --  -10.58152 -10.57666 -10.57355  -1.27623  -1.18272
  Beta  occ. eigenvalues --   -1.07089  -0.91811  -0.88033  -0.78772  -0.71507
  Beta  occ. eigenvalues --   -0.66413  -0.62205  -0.60638  -0.59017  -0.54554
  Beta  occ. eigenvalues --   -0.52810  -0.50286  -0.49025  -0.46036  -0.43745
  Beta  occ. eigenvalues --   -0.41199  -0.40202  -0.38324  -0.37447  -0.36375
  Beta virt. eigenvalues --   -0.09336  -0.03004  -0.00615   0.00323   0.01584
  Beta virt. eigenvalues --    0.02421   0.02921   0.03299   0.05344   0.05567
  Beta virt. eigenvalues --    0.06458   0.07095   0.07358   0.07673   0.09400

 Mulliken charges and spin densities:
               1          2
     1  O   -0.442630   0.391979
     2  H    0.266237   0.006474
     3  C   -0.633462  -0.000517
     4  H    0.182496   0.000026
     5  C    1.216400   0.002067
     6  C   -0.653477   0.007537
     7  O   -0.269322  -0.003653
     8  O    0.028389   0.000224
     9  C   -0.429244  -0.048409
    10  C   -0.444592   0.699824
    11  H    0.206203   0.036561
    12  H    0.239994   0.013114
    13  H    0.193243  -0.023463
    14  H    0.214166  -0.013684
    15  H    0.325600  -0.068079
 Sum of Mulliken charges =  -0.00000   1.00000

 Dipole moment (field-independent basis, Debye):
    X=             -2.1304    Y=             -3.8205    Z=             -0.0599  Tot=              4.3747
 Quadrupole moment (field-independent basis, Debye-Ang):
   XX=            -40.7039   YY=            -52.1132   ZZ=            -47.6860
   XY=            -10.3577   XZ=              3.9880   YZ=             -0.4845

  Exact polarizability:  93.404  -0.791  75.886   7.492   2.308  52.379
 Approx polarizability: 100.351   1.517  88.194  12.181   5.966  63.478

 ******    1 imaginary frequencies (negative Signs) ******

                      1                      2                      3
                      A                      A                      A
 Frequencies --  -1542.4884                35.8805                92.1120
 Red. masses --      1.0872                 7.2664                 3.7347
 Frc consts  --      1.5241                 0.0055                 0.0187
 IR Inten    --    365.5432                 2.5514                 3.2468

                      4                      5                      6
                      A                      A                      A
 Frequencies --    119.2050               185.8324               195.0668
 Red. masses --      5.0093                 3.5954                 6.8613
 Frc consts  --      0.0419                 0.0732                 0.1538
 IR Inten    --      3.5017                 2.0459                 4.5041

                      7                      8                      9
                      A                      A                      A
 Frequencies --    273.3559               336.6810               394.4048
 Red. masses --      4.3537                 3.1515                 1.1975
 Frc consts  --      0.1917                 0.2105                 0.1097
 IR Inten    --      2.2404                12.1346                39.9705

                     10                     11                     12
                      A                      A                      A
 Frequencies --    418.4594               489.4925               555.2220
 Red. masses --      1.7100                 1.7751                 3.5544
 Frc consts  --      0.1764                 0.2506                 0.6456
 IR Inten    --     42.8897                12.1363                 1.7014

                     13                     14                     15
                      A                      A                      A
 Frequencies --    576.9958               612.3153               740.9980
 Red. masses --      2.9681                 7.1885                 1.1000
 Frc consts  --      0.5822                 1.5879                 0.3558
 IR Inten    --      1.3128                 9.3160                78.1290

                     16                     17                     18
                      A                      A                      A
 Frequencies --    747.9393               780.3648               788.2937
 Red. masses --      1.3140                 1.5141                 4.8376
 Frc consts  --      0.4331                 0.5433                 1.7712
 IR Inten    --     39.8702                15.2113                49.4593

                     19                     20                     21
                      A                      A                      A
 Frequencies --    862.8902               903.0177               950.9319
 Red. masses --      2.1772                 1.8884                 2.2672
 Frc consts  --      0.9551                 0.9073                 1.2079
 IR Inten    --      8.0213                 9.0817                10.8721

                     22                     23                     24
                      A                      A                      A
 Frequencies --   1048.4096              1093.2333              1142.0929
 Red. masses --      1.2315                 3.4735                 1.7648
 Frc consts  --      0.7976                 2.4459                 1.3563
 IR Inten    --     66.0028                12.7583                 2.9007

                     25                     26                     27
                      A                      A                      A
 Frequencies --   1182.4580              1281.3845              1340.9865
 Red. masses --      1.6325                 2.3121                 1.6338
 Frc consts  --      1.3448                 2.2368                 1.7311
 IR Inten    --      8.7962               392.0001               259.0937

                     28                     29                     30
                      A                      A                      A
 Frequencies --   1411.9924              1445.4386              1484.3420
 Red. masses --      1.3481                 1.1800                 1.1031
 Frc consts  --      1.5835                 1.4525                 1.4320
 IR Inten    --     36.6896                 5.6242                26.0938

                     31                     32                     33
                      A                      A                      A
 Frequencies --   1541.6951              1828.7127              2272.1242
 Red. masses --      1.0558                11.7275                 5.7377
 Frc consts  --      1.4785                23.1072                17.4524
 IR Inten    --    126.7113               308.3076                88.9273

                     34                     35                     36
                      A                      A                      A
 Frequencies --   3082.0069              3116.8916              3135.0817
 Red. masses --      1.0584                 1.0567                 1.1037
 Frc consts  --      5.9236                 6.0483                 6.3916
 IR Inten    --     10.8052                 2.0283                 1.8421

                     37                     38                     39
                      A                      A                      A
 Frequencies --   3203.1776              3490.0731              3810.0701
 Red. masses --      1.1110                 1.1716                 1.0655
 Frc consts  --      6.7164                 8.4082                 9.1132
 IR Inten    --      1.8390                63.4130               131.9237

 - Thermochemistry -
 -------------------
 Temperature   298.150 Kelvin.  Pressure   1.00000 Atm.
 Atom     1 has atomic number  8 and mass  15.99491

 Molecular mass:   115.03952 amu.
 Principal axes and moments of inertia in atomic units:
                           1         2         3
     Eigenvalues --   538.876661519.763011851.07616
           X            0.99972  -0.02344   0.00314
           Y            0.02346   0.99970  -0.00643
           Z           -0.00299   0.00650   0.99997
 This molecule is an asymmetric top.
 Rotational symmetry number  1.
 Warning -- assumption of classical behavior for rotation
           may cause significant error
 Rotational temperatures (Kelvin)      0.16073     0.05699     0.04679
 Rotational constants (GHZ):           3.34908     1.18751     0.97497
    1 imaginary frequencies ignored.
 Zero-point vibrational energy     280940.8 (Joules/Mol)
                                   67.14646 (Kcal/Mol)
 Warning -- explicit consideration of  13 degrees of freedom as
           vibrations may cause significant error
 Vibrational temperatures:     51.62   132.53   171.51   267.37   280.66
          (Kelvin)            393.30   484.41   567.46   602.07   704.27
                              798.84   830.17   880.99  1066.13  1076.12
                             1122.77  1134.18  1241.51  1299.24  1368.18
                             1508.43  1572.92  1643.22  1701.29  1843.63
                             1929.38  2031.54  2079.66  2135.64  2218.16
                             2631.11  3269.08  4434.32  4484.51  4510.68
                             4608.66  5021.44  5481.84

 Zero-point correction=                           0.107005 (Hartree/Particle)
 Thermal correction to Energy=                    0.116143
 Thermal correction to Enthalpy=                  0.117087
 Thermal correction to Gibbs Free Energy=         0.071708
 Sum of electronic and zero-point Energies=           -420.098914
 Sum of electronic and thermal Energies=              -420.089776
 Sum of electronic and thermal Enthalpies=            -420.088832
 Sum of electronic and thermal Free Energies=         -420.134212

                     E (Thermal)             CV                S
                      KCal/Mol        Cal/Mol-Kelvin    Cal/Mol-Kelvin
 Total                   72.881             32.318             95.510
 Electronic               0.000              0.000              1.377
 Translational            0.889              2.981             40.136
 Rotational               0.889              2.981             28.807
 Vibrational             71.104             26.357             25.190
 Vibration     1          0.594              1.982              5.474
 Vibration     2          0.602              1.955              3.615
 Vibration     3          0.609              1.933              3.113
 Vibration     4          0.632              1.859              2.269
 Vibration     5          0.636              1.847              2.179
 Vibration     6          0.676              1.722              1.575
 Vibration     7          0.717              1.602              1.228
 Vibration     8          0.761              1.482              0.983
 Vibration     9          0.781              1.430              0.897
 Vibration    10          0.845              1.273              0.685
 Vibration    11          0.911              1.128              0.533
 Vibration    12          0.933              1.081              0.491
 Vibration    13          0.972              1.006              0.429

 1\1\GINC-AJ\Freq\UM062X\6-311++G(d,p)\C5H7O3(2)\AAYUSH\23-Jun-2025\0\\
 # freq 6-311++g(d,p) m062x\\Title Card Required\\0,2\O,2.288679,1.6803
 94,-0.320337\H,1.483584,1.801894,0.206272\C,-3.372945,0.217888,-0.5058
 19\H,-4.388871,0.292558,-0.816842\C,-2.230848,0.133577,-0.15515\C,-0.8
 46712,0.085576,0.283419\O,-0.283763,1.008052,0.810343\O,-0.301779,-1.1
 02925,0.034682\C,1.064154,-1.29558,0.449328\C,2.041534,-0.805937,-0.58
 3014\H,1.149825,-2.378263,0.568395\H,1.218612,-0.817532,1.418523\H,3.0
 60523,-1.127843,-0.37416\H,1.739406,-1.018151,-1.607399\H,2.18073,0.55

 Normal termination of Gaussian 16 at Mon Jun 23 01:59:20 2025.
