 Gaussian 16, Revision A.03,
 Gaussian 16:  ES64L-G16RevA.03 25-Dec-2016

 --------------------------
 # freq 6-311++g(d,p) m062x
 --------------------------

 -------------------
 Title Card Required
 -------------------
 Symbolic Z-matrix:
 Charge =  0 Multiplicity = 2

                         Standard orientation:
 ---------------------------------------------------------------------
 Center     Atomic      Atomic             Coordinates (Angstroms)
 Number     Number       Type             X           Y           Z
 ---------------------------------------------------------------------
      1          8           0        2.288679    1.680394   -0.320337
      2          1           0        1.483584    1.801894    0.206272
      3          6           0       -3.372945    0.217888   -0.505819
      4          1           0       -4.388871    0.292558   -0.816842
      5          6           0       -2.230848    0.133577   -0.155150
      6          6           0       -0.846712    0.085576    0.283419
      7          8           0       -0.283763    1.008052    0.810343
      8          8           0       -0.301779   -1.102925    0.034682
      9          6           0        1.064154   -1.295580    0.449328
     10          6           0        2.041534   -0.805937   -0.583014
     11          1           0        1.149825   -2.378263    0.568395
     12          1           0        1.218612   -0.817532    1.418523
     13          1           0        3.060523   -1.127843   -0.374160
     14          1           0        1.739406   -1.018151   -1.607399
     15          1           0        2.180730    0.550023   -0.524876
 ---------------------------------------------------------------------

 SCF Done:  E(UM062X) =  -420.205919143     A.U. after   18 cycles

 The electronic state is 2-A.
 Alpha  occ. eigenvalues --  -19.70272 -19.65012 -19.61565 -10.72531 -10.63030
 Alpha  occ. eigenvalues --  -10.58151 -10.57958 -10.57666  -1.27632  -1.18284
 Alpha  occ. eigenvalues --   -1.10190  -0.92278  -0.88606  -0.79895  -0.72238
 Alpha  occ. eigenvalues --   -0.66621  -0.62258  -0.60902  -0.59642  -0.57128
 Alpha  occ. eigenvalues --   -0.54196  -0.51326  -0.49939  -0.48064  -0.45904
 Alpha  occ. eigenvalues --   -0.41331  -0.40827  -0.38405  -0.38000  -0.37483
 Alpha  occ. eigenvalues --   -0.31997
 Alpha virt. eigenvalues --   -0.03028  -0.00712   0.00292   0.01405   0.02256
 Alpha virt. eigenvalues --    0.02758   0.03289   0.05090   0.05455   0.06406
 Alpha virt. eigenvalues --    0.06819   0.07264   0.07640   0.09227   0.09927

  Beta  occ. eigenvalues --  -19.70270 -19.65013 -19.60753 -10.72531 -10.63061
  Beta  occ. eigenvalues --  -10.58152 -10.57666 -10.57355  -1.27623  -1.18272
  Beta  occ. eigenvalues --   -1.07089  -0.91811  -0.88033  -0.78772  -0.71507
  Beta  occ. eigenvalues --   -0.66413  -0.62205  -0.60638  -0.59017  -0.54554
  Beta  occ. eigenvalues --   -0.52810  -0.50286  -0.49025  -0.46036  -0.43745
  Beta  occ. eigenvalues --   -0.41199  -0.40202  -0.38324  -0.37447  -0.36375
  Beta virt. eigenvalues --   -0.09336  -0.03004  -0.00615   0.00323   0.01584
  Beta virt. eigenvalues --    0.02421   0.02921   0.03299   0.05344   0.05567
  Beta virt. eigenvalues --    0.06458   0.07095   0.07358   0.07673   0.09400

 Mulliken charges and spin densities:
               1          2
     1  O   -0.442631   0.391978
     2  H    0.266237   0.006474
     3  C   -0.633462  -0.000517
     4  H    0.182496   0.000026
     5  C    1.216402   0.002067
     6  C   -0.653479   0.007537
     7  O   -0.269323  -0.003653
     8  O    0.028389   0.000224
     9  C   -0.429244  -0.048409
    10  C   -0.444592   0.699825
    11  H    0.206203   0.036561
    12  H    0.239994   0.013114
    13  H    0.193243  -0.023463
    14  H    0.214166  -0.013684
    15  H    0.325600  -0.068080
 Sum of Mulliken charges =  -0.00000   1.00000

 Dipole moment (field-independent basis, Debye):
    X=             -2.1304    Y=             -3.8205    Z=             -0.0599  Tot=              4.3747
 Quadrupole moment (field-independent basis, Debye-Ang):
   XX=            -40.7039   YY=            -52.1132   ZZ=            -47.6860
   XY=            -10.3577   XZ=              3.9880   YZ=             -0.4845

  Exact polarizability:  93.404  -0.791  75.886   7.492   2.308  52.379
 Approx polarizability: 100.351   1.517  88.194  12.181   5.966  63.478

 ******    1 imaginary frequencies (negative Signs) ******

                      1                      2                      3
                      A                      A                      A
 Frequencies --  -1542.4865                35.8820                92.1117
 Red. masses --      1.0872                 7.2664                 3.7347
 Frc consts  --      1.5241                 0.0055                 0.0187
 IR Inten    --    365.5412                 2.5513                 3.2468

                      4                      5                      6
                      A                      A                      A
 Frequencies --    119.2044               185.8319               195.0667
 Red. masses --      5.0094                 3.5954                 6.8614
 Frc consts  --      0.0419                 0.0732                 0.1538
 IR Inten    --      3.5017                 2.0461                 4.5038

                      7                      8                      9
                      A                      A                      A
 Frequencies --    273.3551               336.6809               394.4108
 Red. masses --      4.3538                 3.1515                 1.1976
 Frc consts  --      0.1917                 0.2105                 0.1098
 IR Inten    --      2.2402                12.1347                39.9535

                     10                     11                     12
                      A                      A                      A
 Frequencies --    418.4632               489.4930               555.2221
 Red. masses --      1.7098                 1.7751                 3.5544
 Frc consts  --      0.1764                 0.2506                 0.6456
 IR Inten    --     42.9056                12.1370                 1.7014

                     13                     14                     15
                      A                      A                      A
 Frequencies --    576.9959               612.3152               740.9998
 Red. masses --      2.9681                 7.1885                 1.1000
 Frc consts  --      0.5822                 1.5880                 0.3559
 IR Inten    --      1.3128                 9.3159                78.1281

                     16                     17                     18
                      A                      A                      A
 Frequencies --    747.9420               780.3669               788.2943
 Red. masses --      1.3140                 1.5143                 4.8363
 Frc consts  --      0.4331                 0.5433                 1.7707
 IR Inten    --     39.8709                15.2055                49.4651

                     19                     20                     21
                      A                      A                      A
 Frequencies --    862.8904               903.0174               950.9318
 Red. masses --      2.1772                 1.8884                 2.2672
 Frc consts  --      0.9551                 0.9073                 1.2079
 IR Inten    --      8.0214                 9.0818                10.8722

                     22                     23                     24
                      A                      A                      A
 Frequencies --   1048.4092              1093.2325              1142.0922
 Red. masses --      1.2315                 3.4735                 1.7648
 Frc consts  --      0.7975                 2.4459                 1.3563
 IR Inten    --     66.0032                12.7586                 2.9007

                     25                     26                     27
                      A                      A                      A
 Frequencies --   1182.4576              1281.3847              1340.9860
 Red. masses --      1.6325                 2.3121                 1.6339
 Frc consts  --      1.3448                 2.2367                 1.7311
 IR Inten    --      8.7961               391.9940               259.0971

                     28                     29                     30
                      A                      A                      A
 Frequencies --   1411.9918              1445.4384              1484.3417
 Red. masses --      1.3481                 1.1800                 1.1031
 Frc consts  --      1.5835                 1.4525                 1.4320
 IR Inten    --     36.6914                 5.6242                26.0939

                     31                     32                     33
                      A                      A                      A
 Frequencies --   1541.6962              1828.7106              2272.1262
 Red. masses --      1.0558                11.7275                 5.7377
 Frc consts  --      1.4785                23.1071                17.4524
 IR Inten    --    126.7120               308.3073                88.9273

                     34                     35                     36
                      A                      A                      A
 Frequencies --   3082.0078              3116.8928              3135.0844
 Red. masses --      1.0584                 1.0567                 1.1037
 Frc consts  --      5.9236                 6.0483                 6.3916
 IR Inten    --     10.8051                 2.0284                 1.8421

                     37                     38                     39
                      A                      A                      A
 Frequencies --   3203.1788              3490.0696              3810.0623
 Red. masses --      1.1110                 1.1716                 1.0655
 Frc consts  --      6.7164                 8.4082                 9.1131
 IR Inten    --      1.8390                63.4128               131.9237

 - Thermochemistry -
 -------------------
 Temperature   298.150 Kelvin.  Pressure   1.00000 Atm.
 Atom     1 has atomic number  8 and mass  15.99491

 Molecular mass:   115.03952 amu.
 Principal axes and moments of inertia in atomic units:
                           1         2         3
     Eigenvalues --   538.876671519.763151851.07625
           X            0.99972  -0.02344   0.00314
           Y            0.02346   0.99970  -0.00643
           Z           -0.00299   0.00650   0.99997
 This molecule is an asymmetric top.
 Rotational symmetry number  1.
 Warning -- assumption of classical behavior for rotation
           may cause significant error
 Rotational temperatures (Kelvin)      0.16073     0.05699     0.04679
 Rotational constants (GHZ):           3.34908     1.18751     0.97497
    1 imaginary frequencies ignored.
 Zero-point vibrational energy     280940.8 (Joules/Mol)
                                   67.14647 (Kcal/Mol)
 Warning -- explicit consideration of  13 degrees of freedom as
           vibrations may cause significant error
 Vibrational temperatures:     51.63   132.53   171.51   267.37   280.66
          (Kelvin)            393.30   484.41   567.47   602.08   704.27
                              798.84   830.17   880.99  1066.13  1076.12
                             1122.77  1134.18  1241.51  1299.24  1368.18
                             1508.43  1572.92  1643.22  1701.29  1843.63
                             1929.38  2031.54  2079.66  2135.64  2218.16
                             2631.11  3269.08  4434.32  4484.51  4510.69
                             4608.66  5021.43  5481.83

 Zero-point correction=                           0.107005 (Hartree/Particle)
 Thermal correction to Energy=                    0.116143
 Thermal correction to Enthalpy=                  0.117087
 Thermal correction to Gibbs Free Energy=         0.071708
 Sum of electronic and zero-point Energies=           -420.098914
 Sum of electronic and thermal Energies=              -420.089776
 Sum of electronic and thermal Enthalpies=            -420.088832
 Sum of electronic and thermal Free Energies=         -420.134212

                     E (Thermal)             CV                S
                      KCal/Mol        Cal/Mol-Kelvin    Cal/Mol-Kelvin
 Total                   72.881             32.318             95.510
 Electronic               0.000              0.000              1.377
 Translational            0.889              2.981             40.136
 Rotational               0.889              2.981             28.807
 Vibrational             71.104             26.357             25.190
 Vibration     1          0.594              1.982              5.474
 Vibration     2          0.602              1.955              3.615
 Vibration     3          0.609              1.933              3.113
 Vibration     4          0.632              1.859              2.269
 Vibration     5          0.636              1.847              2.179
 Vibration     6          0.676              1.722              1.575
 Vibration     7          0.717              1.602              1.228
 Vibration     8          0.761              1.482              0.983
 Vibration     9          0.781              1.430              0.897
 Vibration    10          0.845              1.273              0.685
 Vibration    11          0.911              1.128              0.533
 Vibration    12          0.933              1.081              0.491
 Vibration    13          0.972              1.006              0.429

 1\1\GINC-AJ\Freq\UM062X\6-311++G(d,p)\C5H7O3(2)\AAYUSH\16-Aug-2025\0\\
 # freq 6-311++g(d,p) m062x\\Title Card Required\\0,2\O,2.342116,1.6597
 6,-0.332914\H,1.536799,1.781154,0.193381\C,-3.317499,0.189229,-0.51625
 8\H,-4.333492,0.261938,-0.827528\C,-2.175327,0.107125,-0.165311\C,-0.7
 91175,0.061823,0.273494\O,-0.229535,0.986047,0.79875\O,-0.244603,-1.12
 6401,0.027041\C,1.121545,-1.316426,0.442193\C,2.098372,-0.827392,-0.59
 0961\H,1.208672,-2.398767,0.563296\H,1.275249,-0.836355,1.410507\H,3.1
 17774,-1.147523,-0.381396\H,1.796644,-1.041933,-1.614979\H,2.235722,0.

 Normal termination of Gaussian 16 at Sat Aug 16 15:37:33 2025.
