 Gaussian 16, Revision A.03,
 Gaussian 16:  ES64L-G16RevA.03 25-Dec-2016

 -------------------
 # freq 6-31+g m062x
 -------------------

 -------------------
 Title Card Required
 -------------------
 Symbolic Z-matrix:
 Charge =  0 Multiplicity = 2

                         Standard orientation:
 ---------------------------------------------------------------------
 Center     Atomic      Atomic             Coordinates (Angstroms)
 Number     Number       Type             X           Y           Z
 ---------------------------------------------------------------------
      1          8           0        2.289450    1.672894   -0.319671
      2          1           0        1.489583    1.806934    0.206764
      3          6           0       -3.372951    0.220662   -0.505497
      4          1           0       -4.388835    0.296729   -0.816364
      5          6           0       -2.230923    0.134824   -0.155003
      6          6           0       -0.846989    0.085437    0.283574
      7          8           0       -0.282978    1.006298    0.811204
      8          8           0       -0.302892   -1.104065    0.033613
      9          6           0        1.062472   -1.297138    0.447749
     10          6           0        2.039400   -0.815660   -0.583802
     11          1           0        1.148505   -2.380930    0.566382
     12          1           0        1.218343   -0.821006    1.418088
     13          1           0        3.063185   -1.117341   -0.373540
     14          1           0        1.736695   -1.005204   -1.611343
     15          1           0        2.197833    0.651051   -0.513280
 ---------------------------------------------------------------------

 SCF Done:  E(UM062X) =  -419.957351386     A.U. after   19 cycles

 The electronic state is 2-A.
 Alpha  occ. eigenvalues --  -19.72953 -19.68514 -19.62676 -10.75153 -10.64400
 Alpha  occ. eigenvalues --  -10.59893 -10.59529 -10.59314  -1.30281  -1.20853
 Alpha  occ. eigenvalues --   -1.12341  -0.93295  -0.89602  -0.80669  -0.73033
 Alpha  occ. eigenvalues --   -0.67242  -0.62678  -0.61304  -0.60669  -0.57986
 Alpha  occ. eigenvalues --   -0.55137  -0.52260  -0.50721  -0.46684  -0.45870
 Alpha  occ. eigenvalues --   -0.41559  -0.40910  -0.38792  -0.38029  -0.37354
 Alpha  occ. eigenvalues --   -0.31379
 Alpha virt. eigenvalues --   -0.03457   0.01195   0.01873   0.03054   0.03310
 Alpha virt. eigenvalues --    0.03921   0.04558   0.05954   0.07116   0.07431
 Alpha virt. eigenvalues --    0.08024   0.08754   0.09446   0.10987   0.11859

  Beta  occ. eigenvalues --  -19.72950 -19.68512 -19.62086 -10.75154 -10.64444
  Beta  occ. eigenvalues --  -10.59893 -10.59529 -10.58609  -1.30272  -1.20837
  Beta  occ. eigenvalues --   -1.10316  -0.92753  -0.88970  -0.79295  -0.72180
  Beta  occ. eigenvalues --   -0.66962  -0.62633  -0.60845  -0.60034  -0.55751
  Beta  occ. eigenvalues --   -0.54297  -0.51173  -0.49689  -0.45814  -0.43701
  Beta  occ. eigenvalues --   -0.41404  -0.40289  -0.38752  -0.37966  -0.36307
  Beta virt. eigenvalues --   -0.08440  -0.03430   0.01037   0.01865   0.02945
  Beta virt. eigenvalues --    0.03260   0.03947   0.04523   0.05958   0.06966
  Beta virt. eigenvalues --    0.07485   0.08116   0.08854   0.09527   0.11043

 Mulliken charges and spin densities:
               1          2
     1  O   -0.727107   0.252373
     2  H    0.476111  -0.001919
     3  C    0.312161   0.005167
     4  H    0.351289   0.000028
     5  C    0.492956   0.019804
     6  C   -0.811393  -0.010797
     7  O   -0.444819  -0.004658
     8  O   -0.217651  -0.000446
     9  C   -0.307332  -0.080670
    10  C   -0.464587   0.887672
    11  H    0.244944   0.042017
    12  H    0.254852   0.016768
    13  H    0.237576  -0.036579
    14  H    0.242991  -0.031470
    15  H    0.360009  -0.057288
 Sum of Mulliken charges =  -0.00000   1.00000

 Dipole moment (field-independent basis, Debye):
    X=             -2.4852    Y=             -4.2103    Z=              0.0835  Tot=              4.8898
 Quadrupole moment (field-independent basis, Debye-Ang):
   XX=            -42.0022   YY=            -54.0074   ZZ=            -48.0595
   XY=            -12.2982   XZ=              4.2262   YZ=             -0.5168

  Exact polarizability:  88.802  -1.545  68.236   7.797   2.667  48.775
 Approx polarizability:  94.204   1.357  75.976  13.197   6.948  54.777

 ******    3 imaginary frequencies (negative Signs) ******

                      1                      2                      3
                      A                      A                      A
 Frequencies --   -394.7051              -212.2064              -109.7015
 Red. masses --      1.0382                 3.3584                 6.0272
 Frc consts  --      0.0953                 0.0891                 0.0427
 IR Inten    --     51.9800                40.8372                 1.0564

                      4                      5                      6
                      A                      A                      A
 Frequencies --     29.3904                59.6231               101.9026
 Red. masses --      4.7695                 3.5905                 3.2449
 Frc consts  --      0.0024                 0.0075                 0.0199
 IR Inten    --      4.7991                12.2481                 1.7938

                      7                      8                      9
                      A                      A                      A
 Frequencies --    166.0000               252.8871               307.1334
 Red. masses --      5.8100                 3.6208                 2.9594
 Frc consts  --      0.0943                 0.1364                 0.1645
 IR Inten    --     12.9780                 4.0538                10.1361

                     10                     11                     12
                      A                      A                      A
 Frequencies --    334.0195               389.1405               493.7671
 Red. masses --      1.2108                 2.0020                 1.8330
 Frc consts  --      0.0796                 0.1786                 0.2633
 IR Inten    --     75.1692                32.6599                37.1050

                     13                     14                     15
                      A                      A                      A
 Frequencies --    578.9905               628.0947               777.1690
 Red. masses --      3.0364                 5.5452                 2.4810
 Frc consts  --      0.5997                 1.2889                 0.8829
 IR Inten    --     14.4825                16.4786                35.9157

                     16                     17                     18
                      A                      A                      A
 Frequencies --    803.1584               818.5430               834.6383
 Red. masses --      1.2996                 1.4174                 1.4215
 Frc consts  --      0.4939                 0.5596                 0.5834
 IR Inten    --    174.0573                64.3283                 9.5857

                     19                     20                     21
                      A                      A                      A
 Frequencies --    875.5004               893.8649               942.8671
 Red. masses --      1.8628                 2.5731                 1.9153
 Frc consts  --      0.8413                 1.2113                 1.0032
 IR Inten    --     14.9307                23.7523                 0.8825

                     22                     23                     24
                      A                      A                      A
 Frequencies --   1030.3725              1133.2358              1151.2784
 Red. masses --      2.1127                 3.7836                 1.9168
 Frc consts  --      1.3215                 2.8628                 1.4969
 IR Inten    --      3.2160                 5.2018                 4.9375

                     25                     26                     27
                      A                      A                      A
 Frequencies --   1298.2702              1370.8486              1432.1140
 Red. masses --      1.4146                 2.7518                 1.3114
 Frc consts  --      1.4048                 3.0468                 1.5847
 IR Inten    --    130.3302               458.7792                59.8147

                     28                     29                     30
                      A                      A                      A
 Frequencies --   1438.0035              1473.0026              1513.4077
 Red. masses --      1.3514                 1.1335                 1.0968
 Frc consts  --      1.6465                 1.4490                 1.4801
 IR Inten    --     49.9327                17.5888                31.4619

                     31                     32                     33
                      A                      A                      A
 Frequencies --   1899.2243              2126.2589              2335.6254
 Red. masses --     12.1655                 1.0865                 5.5388
 Frc consts  --     25.8544                 2.8941                17.8022
 IR Inten    --    314.6521               207.2743                91.7810

                     34                     35                     36
                      A                      A                      A
 Frequencies --   3100.5147              3156.4651              3164.8301
 Red. masses --      1.0592                 1.0913                 1.0633
 Frc consts  --      5.9992                 6.4059                 6.2750
 IR Inten    --     11.4577                 1.0585                 4.1940

                     37                     38                     39
                      A                      A                      A
 Frequencies --   3259.7033              3532.5443              3868.6764
 Red. masses --      1.1107                 1.1799                 1.0631
 Frc consts  --      6.9536                 8.6752                 9.3741
 IR Inten    --      2.4601                55.3667                71.6083

 - Thermochemistry -
 -------------------
 Temperature   298.150 Kelvin.  Pressure   1.00000 Atm.
 Atom     1 has atomic number  8 and mass  15.99491

 Molecular mass:   115.03952 amu.
 Principal axes and moments of inertia in atomic units:
                           1         2         3
     Eigenvalues --   538.765931519.776681850.97791
           X            0.99974  -0.02239   0.00317
           Y            0.02241   0.99972  -0.00718
           Z           -0.00301   0.00725   0.99997
 This molecule is an asymmetric top.
 Rotational symmetry number  1.
 Warning -- assumption of classical behavior for rotation
           may cause significant error
 Rotational temperatures (Kelvin)      0.16076     0.05699     0.04679
 Rotational constants (GHZ):           3.34977     1.18750     0.97502
    3 imaginary frequencies ignored.
 Zero-point vibrational energy     284538.2 (Joules/Mol)
                                   68.00625 (Kcal/Mol)
 Warning -- explicit consideration of  10 degrees of freedom as
           vibrations may cause significant error
 Vibrational temperatures:     42.29    85.78   146.62   238.84   363.85
          (Kelvin)            441.90   480.58   559.89   710.42   833.04
                              903.69  1118.17  1155.57  1177.70  1200.86
                             1259.65  1286.07  1356.58  1482.48  1630.47
                             1656.43  1867.92  1972.35  2060.49  2068.97
                             2119.32  2177.46  2732.56  3059.21  3360.44
                             4460.95  4541.45  4553.48  4689.99  5082.54
                             5566.16

 Zero-point correction=                           0.108375 (Hartree/Particle)
 Thermal correction to Energy=                    0.116971
 Thermal correction to Enthalpy=                  0.117915
 Thermal correction to Gibbs Free Energy=         0.072793
 Sum of electronic and zero-point Energies=           -419.848977
 Sum of electronic and thermal Energies=              -419.840380
 Sum of electronic and thermal Enthalpies=            -419.839436
 Sum of electronic and thermal Free Energies=         -419.884558

                     E (Thermal)             CV                S
                      KCal/Mol        Cal/Mol-Kelvin    Cal/Mol-Kelvin
 Total                   73.401             29.093             94.968
 Electronic               0.000              0.000              1.377
 Translational            0.889              2.981             40.136
 Rotational               0.889              2.981             28.807
 Vibrational             71.623             23.132             24.648
 Vibration     1          0.593              1.984              5.870
 Vibration     2          0.597              1.974              4.470
 Vibration     3          0.604              1.948              3.418
 Vibration     4          0.624              1.884              2.480
 Vibration     5          0.664              1.758              1.710
 Vibration     6          0.697              1.660              1.378
 Vibration     7          0.716              1.608              1.241
 Vibration     8          0.757              1.493              1.003
 Vibration     9          0.849              1.264              0.674
 Vibration    10          0.936              1.077              0.487

 Normal termination of Gaussian 16 at Fri Jun 20 12:58:45 2025.
