 Gaussian 16, Revision A.03,
 Gaussian 16:  ES64L-G16RevA.03 25-Dec-2016

 --------------------------
 # ccsd(t)/6-311++g(d,p) sp
 --------------------------

 -------------------
 Title Card Required
 -------------------
 Symbolic Z-matrix:
 Charge =  0 Multiplicity = 2

                         Standard orientation:
 ---------------------------------------------------------------------
 Center     Atomic      Atomic             Coordinates (Angstroms)
 Number     Number       Type             X           Y           Z
 ---------------------------------------------------------------------
      1          8           0        2.288379    1.684732   -0.320651
      2          1           0        1.480902    1.800631    0.206038
      3          6           0       -3.372937    0.216592   -0.506000
      4          1           0       -4.388880    0.290578   -0.817110
      5          6           0       -2.230813    0.133025   -0.155233
      6          6           0       -0.846580    0.085671    0.283332
      7          8           0       -0.284108    1.009006    0.809826
      8          8           0       -0.301292   -1.102345    0.035323
      9          6           0        1.064948   -1.294848    0.450236
     10          6           0        2.042438   -0.802353   -0.582643
     11          1           0        1.150177   -2.376884    0.569888
     12          1           0        1.218729   -0.815643    1.418775
     13          1           0        3.059235   -1.132613   -0.374222
     14          1           0        1.740625   -1.024695   -1.605323
     15          1           0        2.173055    0.498953   -0.532190
 ---------------------------------------------------------------------

 SCF Done:  E(UHF) =  -417.960391082     A.U. after   29 cycles
 E2 =    -0.1290025317D+01 EUMP2 =    -0.41925041639885D+03
 CCSD(T)= -0.41935074789D+03

 The electronic state is 2-A.
 Alpha  occ. eigenvalues --  -20.63284 -20.57970 -20.57949 -11.43622 -11.31623
 Alpha  occ. eigenvalues --  -11.27828 -11.26984 -11.26321  -1.50216  -1.40087
 Alpha  occ. eigenvalues --   -1.34982  -1.09480  -1.06056  -0.94636  -0.85682
 Alpha  occ. eigenvalues --   -0.78399  -0.74117  -0.72417  -0.70616  -0.68306
 Alpha  occ. eigenvalues --   -0.64053  -0.61574  -0.59691  -0.57639  -0.54907
 Alpha  occ. eigenvalues --   -0.51168  -0.50400  -0.49184  -0.43811  -0.43661
 Alpha  occ. eigenvalues --   -0.42515
 Alpha virt. eigenvalues --    0.03450   0.04177   0.05822   0.06718   0.07294
 Alpha virt. eigenvalues --    0.07478   0.09617   0.10305   0.10990   0.11645
 Alpha virt. eigenvalues --    0.12185   0.13624   0.14068   0.15003   0.16110

  Beta  occ. eigenvalues --  -20.63282 -20.57955 -20.55038 -11.43627 -11.31762
  Beta  occ. eigenvalues --  -11.27834 -11.26978 -11.24559  -1.50214  -1.40077
  Beta  occ. eigenvalues --   -1.25044  -1.09012  -1.04438  -0.92537  -0.84162
  Beta  occ. eigenvalues --   -0.78245  -0.74062  -0.72014  -0.68889  -0.63716
  Beta  occ. eigenvalues --   -0.62179  -0.59081  -0.57146  -0.54710  -0.51095
  Beta  occ. eigenvalues --   -0.49539  -0.47568  -0.47305  -0.43769  -0.43644
  Beta virt. eigenvalues --    0.03459   0.04156   0.05312   0.06121   0.06790
  Beta virt. eigenvalues --    0.07307   0.07644   0.09937   0.10651   0.10994
  Beta virt. eigenvalues --    0.12196   0.12398   0.13655   0.14076   0.15177

 Mulliken charges and spin densities:
               1          2
     1  O   -0.408195   0.631797
     2  H    0.287243  -0.008772
     3  C   -0.697732  -0.003797
     4  H    0.205951   0.000222
     5  C    1.376895   0.005906
     6  C   -0.684427   0.011414
     7  O   -0.342693  -0.004656
     8  O   -0.053684  -0.000549
     9  C   -0.301202  -0.103739
    10  C   -0.406564   0.730548
    11  H    0.171273   0.030630
    12  H    0.217538   0.015618
    13  H    0.156995  -0.040357
    14  H    0.188640  -0.031051
    15  H    0.289960  -0.233216
 Sum of Mulliken charges =  -0.00000   1.00000

 Dipole moment (field-independent basis, Debye):
    X=             -2.2309    Y=             -3.3503    Z=             -0.0837  Tot=              4.0259
 Quadrupole moment (field-independent basis, Debye-Ang):
   XX=            -39.9815   YY=            -51.8246   ZZ=            -47.9319
   XY=             -9.2020   XZ=              4.4539   YZ=             -0.7764

 -0=-419.2741639\MP4SDQ=-419.2966829\CCSD=-419.2955681\CCSD(T)=-419.350
 Normal termination of Gaussian 16 at Tue Jul  8 14:42:05 2025.
