 Gaussian 16, Revision A.03,
 Gaussian 16:  ES64L-G16RevA.03 25-Dec-2016

 -------------------
 # freq 6-31+g m062x
 -------------------

 -------------------
 Title Card Required
 -------------------
 Symbolic Z-matrix:
 Charge =  0 Multiplicity = 2

                         Standard orientation:
 ---------------------------------------------------------------------
 Center     Atomic      Atomic             Coordinates (Angstroms)
 Number     Number       Type             X           Y           Z
 ---------------------------------------------------------------------
      1          8           0        2.288524    1.682517   -0.320492
      2          1           0        1.482226    1.801190    0.206159
      3          6           0       -3.372942    0.217236   -0.505908
      4          1           0       -4.388876    0.291565   -0.816973
      5          6           0       -2.230831    0.133297   -0.155191
      6          6           0       -0.846647    0.085622    0.283377
      7          8           0       -0.283940    1.008521    0.810094
      8          8           0       -0.301531   -1.102637    0.034993
      9          6           0        1.064551   -1.295209    0.449771
     10          6           0        2.041994   -0.804066   -0.582826
     11          1           0        1.150025   -2.377575    0.569104
     12          1           0        1.218674   -0.816600    1.418645
     13          1           0        3.059889   -1.130198   -0.374205
     14          1           0        1.740022   -1.021343   -1.606380
     15          1           0        2.176852    0.524471   -0.528438
 ---------------------------------------------------------------------

 SCF Done:  E(UM062X) =  -419.953174097     A.U. after   22 cycles

 The electronic state is 2-A.
 Alpha  occ. eigenvalues --  -19.72779 -19.68390 -19.64676 -10.75047 -10.64049
 Alpha  occ. eigenvalues --  -10.59814 -10.59453 -10.58657  -1.30122  -1.20684
 Alpha  occ. eigenvalues --   -1.11839  -0.93038  -0.89417  -0.80542  -0.72926
 Alpha  occ. eigenvalues --   -0.66972  -0.62606  -0.60983  -0.60321  -0.57684
 Alpha  occ. eigenvalues --   -0.54594  -0.51602  -0.50259  -0.47924  -0.45750
 Alpha  occ. eigenvalues --   -0.41421  -0.40804  -0.38760  -0.38319  -0.37948
 Alpha  occ. eigenvalues --   -0.32406
 Alpha virt. eigenvalues --   -0.03369   0.01302   0.01916   0.03179   0.03397
 Alpha virt. eigenvalues --    0.04001   0.04582   0.06026   0.07156   0.07542
 Alpha virt. eigenvalues --    0.08138   0.08727   0.09393   0.11014   0.11914

  Beta  occ. eigenvalues --  -19.72778 -19.68391 -19.63705 -10.75048 -10.64080
  Beta  occ. eigenvalues --  -10.59814 -10.59453 -10.58083  -1.30117  -1.20675
  Beta  occ. eigenvalues --   -1.08500  -0.92641  -0.88922  -0.79496  -0.72292
  Beta  occ. eigenvalues --   -0.66765  -0.62565  -0.60679  -0.59724  -0.55252
  Beta  occ. eigenvalues --   -0.53150  -0.50579  -0.49319  -0.45725  -0.43478
  Beta  occ. eigenvalues --   -0.41245  -0.40024  -0.38674  -0.37874  -0.36351
  Beta virt. eigenvalues --   -0.09803  -0.03343   0.01212   0.01906   0.03125
  Beta virt. eigenvalues --    0.03355   0.04052   0.04614   0.06059   0.07061
  Beta virt. eigenvalues --    0.07607   0.08245   0.08880   0.09498   0.11139

 Mulliken charges and spin densities:
               1          2
     1  O   -0.622925   0.483162
     2  H    0.471082  -0.009372
     3  C    0.299221   0.008395
     4  H    0.350921   0.000021
     5  C    0.472024   0.022602
     6  C   -0.782167  -0.015303
     7  O   -0.444439  -0.006565
     8  O   -0.215203  -0.000113
     9  C   -0.292619  -0.058685
    10  C   -0.502543   0.671701
    11  H    0.240650   0.031164
    12  H    0.251389   0.012074
    13  H    0.239059  -0.025254
    14  H    0.244659  -0.019653
    15  H    0.290890  -0.094176
 Sum of Mulliken charges =  -0.00000   1.00000

 Dipole moment (field-independent basis, Debye):
    X=             -2.3779    Y=             -3.7971    Z=              0.1112  Tot=              4.4816
 Quadrupole moment (field-independent basis, Debye-Ang):
   XX=            -41.8145   YY=            -53.1379   ZZ=            -48.2258
   XY=            -11.1715   XZ=              4.3201   YZ=             -0.6075

  Exact polarizability:  88.986  -0.370  74.314   7.934   2.829  48.643
 Approx polarizability:  94.382   2.335  83.616  13.303   7.463  54.724

 ******    3 imaginary frequencies (negative Signs) ******

                      1                      2                      3
                      A                      A                      A
 Frequencies --  -1430.7354              -323.9454               -83.3895
 Red. masses --      1.0918                 1.0897                 5.6258
 Frc consts  --      1.3168                 0.0674                 0.0230
 IR Inten    --    606.0967               108.4333                 0.1308

                      4                      5                      6
                      A                      A                      A
 Frequencies --     41.5140                86.9660               132.8328
 Red. masses --      4.5911                 4.2444                 3.4003
 Frc consts  --      0.0047                 0.0189                 0.0353
 IR Inten    --      7.1265                 8.3353                 1.2375

                      7                      8                      9
                      A                      A                      A
 Frequencies --    176.6617               255.3786               314.4662
 Red. masses --      5.9661                 3.6413                 3.1805
 Frc consts  --      0.1097                 0.1399                 0.1853
 IR Inten    --     11.3219                 2.2252                16.6595

                     10                     11                     12
                      A                      A                      A
 Frequencies --    397.3867               443.6346               550.3088
 Red. masses --      1.7058                 1.8005                 4.0093
 Frc consts  --      0.1587                 0.2088                 0.7154
 IR Inten    --     14.8568                26.5517                 2.7381

                     13                     14                     15
                      A                      A                      A
 Frequencies --    576.2794               627.9447               695.4407
 Red. masses --      3.5950                 5.4795                 1.1611
 Frc consts  --      0.7034                 1.2730                 0.3309
 IR Inten    --      0.8610                13.7030               129.2146

                     16                     17                     18
                      A                      A                      A
 Frequencies --    782.1727               818.4481               870.3789
 Red. masses --      3.2994                 1.4250                 2.8735
 Frc consts  --      1.1893                 0.5624                 1.2826
 IR Inten    --     70.8770                56.8155                12.4653

                     19                     20                     21
                      A                      A                      A
 Frequencies --    875.2000               923.9734               968.7137
 Red. masses --      1.8811                 1.8722                 1.9795
 Frc consts  --      0.8489                 0.9417                 1.0944
 IR Inten    --     18.4505                11.4469                10.8258

                     22                     23                     24
                      A                      A                      A
 Frequencies --   1116.0660              1135.9187              1170.8157
 Red. masses --      1.5912                 3.3083                 1.4989
 Frc consts  --      1.1678                 2.5151                 1.2106
 IR Inten    --     71.9804                 4.9947                 4.8109

                     25                     26                     27
                      A                      A                      A
 Frequencies --   1206.2438              1309.0356              1374.9549
 Red. masses --      1.4195                 1.4939                 2.4084
 Frc consts  --      1.2169                 1.5082                 2.6826
 IR Inten    --     17.9184               191.5981               390.3089

                     28                     29                     30
                      A                      A                      A
 Frequencies --   1439.7529              1473.0490              1519.9155
 Red. masses --      1.4607                 1.1271                 1.0975
 Frc consts  --      1.7840                 1.4409                 1.4938
 IR Inten    --     73.2874                10.7844                29.8042

                     31                     32                     33
                      A                      A                      A
 Frequencies --   1581.7331              1896.5311              2335.5110
 Red. masses --      1.0565                12.1178                 5.5409
 Frc consts  --      1.5573                25.6799                17.8072
 IR Inten    --    227.2246               281.1759                91.4612

                     34                     35                     36
                      A                      A                      A
 Frequencies --   3113.7557              3153.6337              3169.6649
 Red. masses --      1.0579                 1.0578                 1.1012
 Frc consts  --      6.0433                 6.1981                 6.5184
 IR Inten    --     11.8577                 2.8398                 2.8418

                     37                     38                     39
                      A                      A                      A
 Frequencies --   3243.3328              3532.6678              3823.0578
 Red. masses --      1.1089                 1.1799                 1.0645
 Frc consts  --      6.8726                 8.6755                 9.1667
 IR Inten    --      3.2441                55.2504                76.5271

 - Thermochemistry -
 -------------------
 Temperature   298.150 Kelvin.  Pressure   1.00000 Atm.
 Atom     1 has atomic number  8 and mass  15.99491

 Molecular mass:   115.03952 amu.
 Principal axes and moments of inertia in atomic units:
                           1         2         3
     Eigenvalues --   539.016691519.764131851.21288
           X            0.99971  -0.02370   0.00313
           Y            0.02372   0.99970  -0.00624
           Z           -0.00298   0.00631   0.99998
 This molecule is an asymmetric top.
 Rotational symmetry number  1.
 Warning -- assumption of classical behavior for rotation
           may cause significant error
 Rotational temperatures (Kelvin)      0.16069     0.05699     0.04679
 Rotational constants (GHZ):           3.34821     1.18751     0.97490
    3 imaginary frequencies ignored.
 Zero-point vibrational energy     281920.0 (Joules/Mol)
                                   67.38049 (Kcal/Mol)
 Warning -- explicit consideration of  10 degrees of freedom as
           vibrations may cause significant error
 Vibrational temperatures:     59.73   125.12   191.12   254.18   367.43
          (Kelvin)            452.45   571.75   638.29   791.77   829.14
                              903.47  1000.58  1125.37  1177.56  1252.28
                             1259.22  1329.39  1393.76  1605.77  1634.33
                             1684.54  1735.52  1883.41  1978.25  2071.48
                             2119.39  2186.82  2275.76  2728.69  3360.28
                             4480.00  4537.38  4560.44  4666.43  5082.72
                             5500.53

 Zero-point correction=                           0.107378 (Hartree/Particle)
 Thermal correction to Energy=                    0.115668
 Thermal correction to Enthalpy=                  0.116612
 Thermal correction to Gibbs Free Energy=         0.072744
 Sum of electronic and zero-point Energies=           -419.845796
 Sum of electronic and thermal Energies=              -419.837507
 Sum of electronic and thermal Enthalpies=            -419.836562
 Sum of electronic and thermal Free Energies=         -419.880430

                     E (Thermal)             CV                S
                      KCal/Mol        Cal/Mol-Kelvin    Cal/Mol-Kelvin
 Total                   72.582             28.758             92.327
 Electronic               0.000              0.000              1.377
 Translational            0.889              2.981             40.136
 Rotational               0.889              2.981             28.807
 Vibrational             70.805             22.796             22.006
 Vibration     1          0.594              1.981              5.185
 Vibration     2          0.601              1.958              3.727
 Vibration     3          0.613              1.921              2.905
 Vibration     4          0.628              1.871              2.363
 Vibration     5          0.666              1.754              1.693
 Vibration     6          0.702              1.646              1.339
 Vibration     7          0.764              1.476              0.972
 Vibration     8          0.803              1.375              0.815
 Vibration     9          0.906              1.139              0.544
 Vibration    10          0.933              1.083              0.492

 Normal termination of Gaussian 16 at Fri Jun 20 12:49:01 2025.
