 Gaussian 16, Revision A.03,
 Gaussian 16:  ES64L-G16RevA.03 25-Dec-2016

 --------------------------
 # freq 6-311++g(d,p) m062x
 --------------------------

 -------------------
 Title Card Required
 -------------------
 Symbolic Z-matrix:
 Charge =  0 Multiplicity = 2

                         Standard orientation:
 ---------------------------------------------------------------------
 Center     Atomic      Atomic             Coordinates (Angstroms)
 Number     Number       Type             X           Y           Z
 ---------------------------------------------------------------------
      1          8           0        2.287968    1.706290   -0.321781
      2          1           0        1.472232    1.800116    0.204481
      3          6           0       -3.372818    0.212384   -0.506843
      4          1           0       -4.388782    0.283798   -0.818380
      5          6           0       -2.230625    0.131570   -0.155569
      6          6           0       -0.845864    0.086004    0.282835
      7          8           0       -0.284798    1.013501    0.806876
      8          8           0       -0.300221   -1.099835    0.038762
      9          6           0        1.067656   -1.293285    0.455020
     10          6           0        2.045067   -0.799115   -0.582056
     11          1           0        1.148069   -2.372817    0.579969
     12          1           0        1.218537   -0.807597    1.420315
     13          1           0        3.052759   -1.159448   -0.372780
     14          1           0        1.744326   -1.066376   -1.595412
     15          1           0        2.148768    0.337330   -0.569378
 ---------------------------------------------------------------------

 SCF Done:  E(UM062X) =  -420.201478333     A.U. after   20 cycles

 The electronic state is 2-A.
 Alpha  occ. eigenvalues --  -19.69860 -19.65165 -19.64821 -10.72348 -10.61999
 Alpha  occ. eigenvalues --  -10.57997 -10.57522 -10.55434  -1.27288  -1.17957
 Alpha  occ. eigenvalues --   -1.11921  -0.91712  -0.88158  -0.79568  -0.71940
 Alpha  occ. eigenvalues --   -0.66014  -0.62105  -0.60583  -0.59171  -0.56860
 Alpha  occ. eigenvalues --   -0.53810  -0.51410  -0.49361  -0.48457  -0.45139
 Alpha  occ. eigenvalues --   -0.41197  -0.40758  -0.40340  -0.38189  -0.37359
 Alpha  occ. eigenvalues --   -0.36353
 Alpha virt. eigenvalues --   -0.02872  -0.00425   0.00431   0.01696   0.02321
 Alpha virt. eigenvalues --    0.02956   0.03423   0.04946   0.05609   0.06440
 Alpha virt. eigenvalues --    0.06652   0.07369   0.07839   0.09292   0.10086

  Beta  occ. eigenvalues --  -19.69860 -19.64824 -19.63766 -10.72348 -10.62011
  Beta  occ. eigenvalues --  -10.57997 -10.57523 -10.55138  -1.27286  -1.17952
  Beta  occ. eigenvalues --   -1.05964  -0.91502  -0.87832  -0.78936  -0.71525
  Beta  occ. eigenvalues --   -0.65931  -0.62066  -0.60379  -0.58642  -0.54523
  Beta  occ. eigenvalues --   -0.52002  -0.49794  -0.48184  -0.45989  -0.43055
  Beta  occ. eigenvalues --   -0.40921  -0.39843  -0.38205  -0.37558  -0.37290
  Beta virt. eigenvalues --   -0.09513  -0.02849  -0.00374   0.00453   0.01790
  Beta virt. eigenvalues --    0.02532   0.03076   0.03434   0.05344   0.05686
  Beta virt. eigenvalues --    0.06538   0.06908   0.07500   0.07884   0.09511

 Mulliken charges and spin densities:
               1          2
     1  O   -0.308624   0.775443
     2  H    0.267189  -0.008384
     3  C   -0.637032  -0.001166
     4  H    0.181940  -0.000023
     5  C    1.219049   0.006417
     6  C   -0.660647   0.005777
     7  O   -0.275065  -0.002770
     8  O    0.026772  -0.000185
     9  C   -0.419513  -0.027930
    10  C   -0.450254   0.291672
    11  H    0.197070   0.012888
    12  H    0.229721   0.004285
    13  H    0.179002  -0.008710
    14  H    0.195582  -0.002795
    15  H    0.254809  -0.044517
 Sum of Mulliken charges =  -0.00000   1.00000

 Dipole moment (field-independent basis, Debye):
    X=             -1.9121    Y=             -2.7859    Z=             -0.0154  Tot=              3.3790
 Quadrupole moment (field-independent basis, Debye-Ang):
   XX=            -40.3219   YY=            -50.5719   ZZ=            -47.9920
   XY=             -7.7512   XZ=              4.1762   YZ=             -0.7719

  Exact polarizability:  93.166  -1.179  76.455   7.717   2.483  52.090
 Approx polarizability: 100.068   0.689  84.653  12.290   5.958  62.958

 ******    2 imaginary frequencies (negative Signs) ******

                      1                      2                      3
                      A                      A                      A
 Frequencies --   -561.2005               -66.1000                69.8798
 Red. masses --      2.0573                 5.1829                 3.8182
 Frc consts  --      0.3818                 0.0133                 0.0110
 IR Inten    --    254.9648                 1.5450                 2.7606

                      4                      5                      6
                      A                      A                      A
 Frequencies --     87.0412               145.6092               165.6939
 Red. masses --      4.1299                 4.4386                 1.9277
 Frc consts  --      0.0184                 0.0554                 0.0312
 IR Inten    --      2.3087                 0.6318                10.1599

                      7                      8                      9
                      A                      A                      A
 Frequencies --    202.5940               273.2013               336.6007
 Red. masses --      2.0960                 4.1925                 3.2222
 Frc consts  --      0.0507                 0.1844                 0.2151
 IR Inten    --      2.9135                 2.0993                13.3997

                     10                     11                     12
                      A                      A                      A
 Frequencies --    419.0339               423.4771               564.8447
 Red. masses --      2.3713                 1.2617                 4.1497
 Frc consts  --      0.2453                 0.1333                 0.7801
 IR Inten    --     30.2170                64.3677                 1.3265

                     13                     14                     15
                      A                      A                      A
 Frequencies --    610.6513               703.4584               746.5457
 Red. masses --      7.2162                 1.1738                 1.3141
 Frc consts  --      1.5854                 0.3422                 0.4315
 IR Inten    --     10.0560                59.2047                38.8080

                     16                     17                     18
                      A                      A                      A
 Frequencies --    779.7203               789.6381               864.4907
 Red. masses --      1.4485                 5.7653                 1.7242
 Frc consts  --      0.5188                 2.1180                 0.7592
 IR Inten    --     18.4630                47.4689                43.0374

                     19                     20                     21
                      A                      A                      A
 Frequencies --    899.5552               938.9185              1084.5362
 Red. masses --      1.8760                 2.7746                 3.9165
 Frc consts  --      0.8944                 1.4412                 2.7142
 IR Inten    --     68.8249                33.2612                27.7211

                     22                     23                     24
                      A                      A                      A
 Frequencies --   1114.5028              1162.0128              1289.1651
 Red. masses --      2.0774                 1.8890                 2.7966
 Frc consts  --      1.5203                 1.5028                 2.7384
 IR Inten    --     23.0735                35.2794               387.2327

                     25                     26                     27
                      A                      A                      A
 Frequencies --   1322.4416              1341.4924              1391.7641
 Red. masses --      1.1050                 1.2004                 1.4090
 Frc consts  --      1.1386                 1.2728                 1.6080
 IR Inten    --    110.7431                61.9549               114.9137

                     28                     29                     30
                      A                      A                      A
 Frequencies --   1433.1312              1440.9712              1502.1704
 Red. masses --      1.3339                 1.1491                 1.1046
 Frc consts  --      1.6142                 1.4058                 1.4685
 IR Inten    --     20.1072                33.4683                23.1410

                     31                     32                     33
                      A                      A                      A
 Frequencies --   1700.6424              1824.5254              2271.7828
 Red. masses --      1.1660                 9.3508                 5.7390
 Frc consts  --      1.9869                18.3400                17.4509
 IR Inten    --    803.8451               527.4576                87.1618

                     34                     35                     36
                      A                      A                      A
 Frequencies --   3101.5642              3103.7041              3154.7868
 Red. masses --      1.0576                 1.0584                 1.1080
 Frc consts  --      5.9944                 6.0072                 6.4972
 IR Inten    --     13.3444                 8.9022                 4.9365

                     37                     38                     39
                      A                      A                      A
 Frequencies --   3174.8416              3490.2883              3734.0894
 Red. masses --      1.1060                 1.1715                 1.0665
 Frc consts  --      6.5683                 8.4085                 8.7615
 IR Inten    --      5.9302                63.2784               140.9154

 - Thermochemistry -
 -------------------
 Temperature   298.150 Kelvin.  Pressure   1.00000 Atm.
 Atom     1 has atomic number  8 and mass  15.99491

 Molecular mass:   115.03952 amu.
 Principal axes and moments of inertia in atomic units:
                           1         2         3
     Eigenvalues --   542.933461519.809621855.03886
           X            0.99966  -0.02582   0.00300
           Y            0.02584   0.99966  -0.00461
           Z           -0.00288   0.00468   0.99998
 This molecule is an asymmetric top.
 Rotational symmetry number  1.
 Warning -- assumption of classical behavior for rotation
           may cause significant error
 Rotational temperatures (Kelvin)      0.15953     0.05699     0.04669
 Rotational constants (GHZ):           3.32406     1.18748     0.97289
    2 imaginary frequencies ignored.
 Zero-point vibrational energy     285066.3 (Joules/Mol)
                                   68.13249 (Kcal/Mol)
 Warning -- explicit consideration of  11 degrees of freedom as
           vibrations may cause significant error
 Vibrational temperatures:    100.54   125.23   209.50   238.40   291.49
          (Kelvin)            393.08   484.29   602.90   609.29   812.69
                              878.59  1012.12  1074.11  1121.84  1136.11
                             1243.81  1294.26  1350.89  1560.41  1603.52
                             1671.88  1854.82  1902.70  1930.11  2002.44
                             2061.96  2073.24  2161.29  2446.85  2625.09
                             3268.59  4462.46  4465.54  4539.03  4567.89
                             5021.75  5372.52

 Zero-point correction=                           0.108576 (Hartree/Particle)
 Thermal correction to Energy=                    0.117195
 Thermal correction to Enthalpy=                  0.118139
 Thermal correction to Gibbs Free Energy=         0.074049
 Sum of electronic and zero-point Energies=           -420.092902
 Sum of electronic and thermal Energies=              -420.084283
 Sum of electronic and thermal Enthalpies=            -420.083339
 Sum of electronic and thermal Free Energies=         -420.127430

                     E (Thermal)             CV                S
                      KCal/Mol        Cal/Mol-Kelvin    Cal/Mol-Kelvin
 Total                   73.541             29.871             92.797
 Electronic               0.000              0.000              1.377
 Translational            0.889              2.981             40.136
 Rotational               0.889              2.981             28.817
 Vibrational             71.764             23.909             22.467
 Vibration     1          0.598              1.968              4.157
 Vibration     2          0.601              1.958              3.725
 Vibration     3          0.617              1.907              2.729
 Vibration     4          0.624              1.885              2.484
 Vibration     5          0.639              1.836              2.109
 Vibration     6          0.676              1.723              1.576
 Vibration     7          0.717              1.602              1.228
 Vibration     8          0.782              1.429              0.895
 Vibration     9          0.786              1.419              0.880
 Vibration    10          0.921              1.107              0.514
 Vibration    11          0.970              1.009              0.432

 1\1\GINC-AJ\Freq\UM062X\6-311++G(d,p)\C5H7O3(2)\AAYUSH\23-Jun-2025\0\\
 # freq 6-311++g(d,p) m062x\\Title Card Required\\0,2\O,2.287968,1.7062
 9,-0.321781\H,1.472232,1.800116,0.204481\C,-3.372818,0.212384,-0.50684
 3\H,-4.388782,0.283798,-0.81838\C,-2.230625,0.13157,-0.155569\C,-0.845
 864,0.086004,0.282835\O,-0.284798,1.013501,0.806876\O,-0.300221,-1.099
 835,0.038762\C,1.067656,-1.293285,0.45502\C,2.045067,-0.799115,-0.5820
 56\H,1.148069,-2.372817,0.579969\H,1.218537,-0.807597,1.420315\H,3.052
 759,-1.159448,-0.37278\H,1.744326,-1.066376,-1.595412\H,2.148768,0.337

 Normal termination of Gaussian 16 at Mon Jun 23 02:18:52 2025.
