 Gaussian 16, Revision A.03,
 Gaussian 16:  ES64L-G16RevA.03 25-Dec-2016

 --------------------------
 # freq 6-311++g(d,p) m062x
 --------------------------

 -------------------
 Title Card Required
 -------------------
 Symbolic Z-matrix:
 Charge =  0 Multiplicity = 2

                         Standard orientation:
 ---------------------------------------------------------------------
 Center     Atomic      Atomic             Coordinates (Angstroms)
 Number     Number       Type             X           Y           Z
 ---------------------------------------------------------------------
      1          8           0        2.288846    1.678361   -0.320183
      2          1           0        1.484980    1.802760    0.206383
      3          6           0       -3.372947    0.218550   -0.505733
      4          1           0       -4.388865    0.293561   -0.816715
      5          6           0       -2.230866    0.133867   -0.155111
      6          6           0       -0.846777    0.085532    0.283458
      7          8           0       -0.283580    1.007598    0.810578
      8          8           0       -0.302037   -1.103208    0.034388
      9          6           0        1.063752   -1.295959    0.448908
     10          6           0        2.041055   -0.807982   -0.583208
     11          1           0        1.149580   -2.378947    0.567759
     12          1           0        1.218542   -0.818438    1.418409
     13          1           0        3.061146   -1.125496   -0.374082
     14          1           0        1.738775   -1.015057   -1.608388
     15          1           0        2.184710    0.575562   -0.521514
 ---------------------------------------------------------------------

 SCF Done:  E(UM062X) =  -420.207740135     A.U. after   18 cycles

 The electronic state is 2-A.
 Alpha  occ. eigenvalues --  -19.70302 -19.65030 -19.61176 -10.72546 -10.63099
 Alpha  occ. eigenvalues --  -10.58164 -10.58083 -10.57678  -1.27658  -1.18310
 Alpha  occ. eigenvalues --   -1.10189  -0.92324  -0.88638  -0.79914  -0.72256
 Alpha  occ. eigenvalues --   -0.66667  -0.62270  -0.60939  -0.59698  -0.57167
 Alpha  occ. eigenvalues --   -0.54282  -0.51435  -0.50006  -0.47848  -0.45952
 Alpha  occ. eigenvalues --   -0.41358  -0.40844  -0.38393  -0.37813  -0.37488
 Alpha  occ. eigenvalues --   -0.31745
 Alpha virt. eigenvalues --   -0.03041  -0.00733   0.00283   0.01383   0.02245
 Alpha virt. eigenvalues --    0.02745   0.03278   0.05100   0.05446   0.06406
 Alpha virt. eigenvalues --    0.06834   0.07262   0.07626   0.09227   0.09917

  Beta  occ. eigenvalues --  -19.70300 -19.65030 -19.60442 -10.72547 -10.63133
  Beta  occ. eigenvalues --  -10.58164 -10.57678 -10.57450  -1.27649  -1.18297
  Beta  occ. eigenvalues --   -1.07371  -0.91827  -0.88034  -0.78724  -0.71480
  Beta  occ. eigenvalues --   -0.66444  -0.62215  -0.60662  -0.59060  -0.54580
  Beta  occ. eigenvalues --   -0.53032  -0.50380  -0.49089  -0.46037  -0.43882
  Beta  occ. eigenvalues --   -0.41225  -0.40259  -0.38336  -0.37460  -0.36361
  Beta virt. eigenvalues --   -0.09075  -0.03017  -0.00633   0.00314   0.01568
  Beta virt. eigenvalues --    0.02409   0.02910   0.03288   0.05340   0.05558
  Beta virt. eigenvalues --    0.06452   0.07102   0.07353   0.07654   0.09389

 Mulliken charges and spin densities:
               1          2
     1  O   -0.454965   0.345892
     2  H    0.266312   0.007399
     3  C   -0.633072  -0.000409
     4  H    0.182543   0.000032
     5  C    1.215710   0.001221
     6  C   -0.652628   0.007020
     7  O   -0.269080  -0.003288
     8  O    0.028477   0.000146
     9  C   -0.430224  -0.049578
    10  C   -0.440972   0.743882
    11  H    0.206972   0.039090
    12  H    0.240635   0.014003
    13  H    0.194176  -0.025095
    14  H    0.215304  -0.015220
    15  H    0.330813  -0.065095
 Sum of Mulliken charges =  -0.00000   1.00000

 Dipole moment (field-independent basis, Debye):
    X=             -2.1478    Y=             -3.8934    Z=             -0.0645  Tot=              4.4470
 Quadrupole moment (field-independent basis, Debye-Ang):
   XX=            -40.7304   YY=            -52.2521   ZZ=            -47.6559
   XY=            -10.5506   XZ=              3.9715   YZ=             -0.4701

  Exact polarizability:  93.375  -1.017  74.722   7.462   2.269  52.410
 Approx polarizability: 100.318   1.341  86.722  12.157   5.852  63.492

 ******    1 imaginary frequencies (negative Signs) ******

                      1                      2                      3
                      A                      A                      A
 Frequencies --  -1285.5453                17.8463                89.3586
 Red. masses --      1.1326                 6.7499                 3.7501
 Frc consts  --      1.1028                 0.0013                 0.0176
 IR Inten    --    252.5127                 2.6579                 3.3107

                      4                      5                      6
                      A                      A                      A
 Frequencies --    117.3915               183.5099               193.7866
 Red. masses --      5.1568                 3.6852                 6.5974
 Frc consts  --      0.0419                 0.0731                 0.1460
 IR Inten    --      3.3043                 1.3723                 5.0344

                      7                      8                      9
                      A                      A                      A
 Frequencies --    273.1507               336.2579               393.0230
 Red. masses --      4.3647                 3.1650                 1.2046
 Frc consts  --      0.1919                 0.2109                 0.1096
 IR Inten    --      2.2551                12.1224                36.4602

                     10                     11                     12
                      A                      A                      A
 Frequencies --    417.8939               486.9622               571.2660
 Red. masses --      1.6586                 1.7724                 3.1945
 Frc consts  --      0.1707                 0.2476                 0.6142
 IR Inten    --     43.9649                11.1992                 0.8770

                     13                     14                     15
                      A                      A                      A
 Frequencies --    594.1038               612.7826               723.6788
 Red. masses --      3.0308                 6.5913                 1.0826
 Frc consts  --      0.6303                 1.4583                 0.3340
 IR Inten    --      2.9505                 8.4657                79.4690

                     16                     17                     18
                      A                      A                      A
 Frequencies --    748.0578               780.4012               788.0837
 Red. masses --      1.3139                 1.5301                 4.6956
 Frc consts  --      0.4332                 0.5490                 1.7182
 IR Inten    --     39.9518                14.6394                49.1805

                     19                     20                     21
                      A                      A                      A
 Frequencies --    854.7695               896.8176               948.2526
 Red. masses --      1.9892                 1.9029                 2.4770
 Frc consts  --      0.8563                 0.9017                 1.3122
 IR Inten    --      9.1093                 9.1908                 7.2147

                     22                     23                     24
                      A                      A                      A
 Frequencies --   1006.6427              1091.7203              1137.4914
 Red. masses --      1.1566                 3.8023                 1.8612
 Frc consts  --      0.6905                 2.6701                 1.4188
 IR Inten    --     64.7226                17.4227                 4.0004

                     25                     26                     27
                      A                      A                      A
 Frequencies --   1193.2601              1280.9273              1340.5786
 Red. masses --      1.7044                 2.3073                 1.6463
 Frc consts  --      1.4298                 2.2305                 1.7432
 IR Inten    --      4.8087               395.2550               258.6361

                     28                     29                     30
                      A                      A                      A
 Frequencies --   1410.9644              1445.2158              1482.8021
 Red. masses --      1.3474                 1.1830                 1.1033
 Frc consts  --      1.5805                 1.4559                 1.4293
 IR Inten    --     35.9548                 5.5506                26.5716

                     31                     32                     33
                      A                      A                      A
 Frequencies --   1577.1986              1829.3945              2272.1517
 Red. masses --      1.0553                11.6407                 5.7376
 Frc consts  --      1.5466                22.9533                17.4523
 IR Inten    --    134.4689               307.8115                89.0479

                     34                     35                     36
                      A                      A                      A
 Frequencies --   3079.3766              3117.9560              3133.1874
 Red. masses --      1.0587                 1.0572                 1.1023
 Frc consts  --      5.9150                 6.0555                 6.3754
 IR Inten    --     10.7013                 1.8727                 1.9251

                     37                     38                     39
                      A                      A                      A
 Frequencies --   3205.8469              3490.0431              3818.7039
 Red. masses --      1.1114                 1.1716                 1.0653
 Frc consts  --      6.7296                 8.4081                 9.1525
 IR Inten    --      1.6787                63.4266               130.3086

 - Thermochemistry -
 -------------------
 Temperature   298.150 Kelvin.  Pressure   1.00000 Atm.
 Atom     1 has atomic number  8 and mass  15.99491

 Molecular mass:   115.03952 amu.
 Principal axes and moments of inertia in atomic units:
                           1         2         3
     Eigenvalues --   538.777381519.763441850.97994
           X            0.99973  -0.02318   0.00315
           Y            0.02320   0.99971  -0.00661
           Z           -0.00299   0.00668   0.99997
 This molecule is an asymmetric top.
 Rotational symmetry number  1.
 Warning -- assumption of classical behavior for rotation
           may cause significant error
 Rotational temperatures (Kelvin)      0.16076     0.05699     0.04679
 Rotational constants (GHZ):           3.34970     1.18751     0.97502
    1 imaginary frequencies ignored.
 Zero-point vibrational energy     280768.7 (Joules/Mol)
                                   67.10532 (Kcal/Mol)
 Warning -- explicit consideration of  13 degrees of freedom as
           vibrations may cause significant error
 Vibrational temperatures:     25.68   128.57   168.90   264.03   278.82
          (Kelvin)            393.00   483.80   565.47   601.26   700.63
                              821.92   854.78   881.66  1041.21  1076.29
                             1122.82  1133.88  1229.82  1290.32  1364.32
                             1448.33  1570.74  1636.60  1716.84  1842.97
                             1928.79  2030.06  2079.34  2133.42  2269.24
                             2632.09  3269.12  4430.54  4486.04  4507.96
                             4612.50  5021.39  5494.26

 Zero-point correction=                           0.106939 (Hartree/Particle)
 Thermal correction to Energy=                    0.116131
 Thermal correction to Enthalpy=                  0.117075
 Thermal correction to Gibbs Free Energy=         0.070980
 Sum of electronic and zero-point Energies=           -420.100801
 Sum of electronic and thermal Energies=              -420.091609
 Sum of electronic and thermal Enthalpies=            -420.090665
 Sum of electronic and thermal Free Energies=         -420.136760

                     E (Thermal)             CV                S
                      KCal/Mol        Cal/Mol-Kelvin    Cal/Mol-Kelvin
 Total                   72.873             32.359             97.015
 Electronic               0.000              0.000              1.377
 Translational            0.889              2.981             40.136
 Rotational               0.889              2.981             28.807
 Vibrational             71.096             26.397             26.695
 Vibration     1          0.593              1.986              6.860
 Vibration     2          0.602              1.957              3.674
 Vibration     3          0.608              1.935              3.143
 Vibration     4          0.631              1.862              2.292
 Vibration     5          0.635              1.849              2.191
 Vibration     6          0.676              1.723              1.576
 Vibration     7          0.717              1.603              1.230
 Vibration     8          0.760              1.485              0.989
 Vibration     9          0.781              1.431              0.899
 Vibration    10          0.843              1.279              0.692
 Vibration    11          0.927              1.093              0.502
 Vibration    12          0.952              1.044              0.460
 Vibration    13          0.972              1.005              0.428

 1\1\GINC-AJ\Freq\UM062X\6-311++G(d,p)\C5H7O3(2)\AAYUSH\23-Jun-2025\0\\
 # freq 6-311++g(d,p) m062x\\Title Card Required\\0,2\O,2.288846,1.6783
 61,-0.320183\H,1.48498,1.80276,0.206383\C,-3.372947,0.21855,-0.505733\
 H,-4.388865,0.293561,-0.816715\C,-2.230866,0.133867,-0.155111\C,-0.846
 777,0.085532,0.283458\O,-0.28358,1.007598,0.810578\O,-0.302037,-1.1032
 08,0.034388\C,1.063752,-1.295959,0.448908\C,2.041055,-0.807982,-0.5832
 08\H,1.14958,-2.378947,0.567759\H,1.218542,-0.818438,1.418409\H,3.0611
 46,-1.125496,-0.374082\H,1.738775,-1.015057,-1.608388\H,2.18471,0.5755

 Normal termination of Gaussian 16 at Mon Jun 23 02:21:17 2025.
