 Gaussian 16, Revision A.03,
 Gaussian 16:  ES64L-G16RevA.03 25-Dec-2016

 -------------------
 # freq 6-31+g m062x
 -------------------

 -------------------
 Title Card Required
 -------------------
 Symbolic Z-matrix:
 Charge =  0 Multiplicity = 2

                         Standard orientation:
 ---------------------------------------------------------------------
 Center     Atomic      Atomic             Coordinates (Angstroms)
 Number     Number       Type             X           Y           Z
 ---------------------------------------------------------------------
      1          8           0        2.288834    1.724831   -0.321912
      2          1           0        1.469169    1.801450    0.202965
      3          6           0       -3.372605    0.211130   -0.507466
      4          1           0       -4.388545    0.281277   -0.819355
      5          6           0       -2.230419    0.131658   -0.155753
      6          6           0       -0.845271    0.086742    0.282509
      7          8           0       -0.284355    1.016734    0.803965
      8          8           0       -0.300453   -1.098478    0.041730
      9          6           0        1.068039   -1.294108    0.459459
     10          6           0        2.045489   -0.811494   -0.583506
     11          1           0        1.143093   -2.372648    0.591412
     12          1           0        1.218751   -0.801962    1.421353
     13          1           0        3.048903   -1.180622   -0.368305
     14          1           0        1.745267   -1.112215   -1.587945
     15          1           0        2.139743    0.296452   -0.601851
 ---------------------------------------------------------------------

 SCF Done:  E(UM062X) =  -419.957249875     A.U. after   21 cycles

 The electronic state is 2-A.
 Alpha  occ. eigenvalues --  -19.72311 -19.68407 -19.68119 -10.74808 -10.62888
 Alpha  occ. eigenvalues --  -10.59625 -10.59274 -10.55632  -1.29721  -1.20240
 Alpha  occ. eigenvalues --   -1.13462  -0.92400  -0.88864  -0.80060  -0.72540
 Alpha  occ. eigenvalues --   -0.66222  -0.62420  -0.60537  -0.59628  -0.57073
 Alpha  occ. eigenvalues --   -0.53952  -0.51521  -0.49484  -0.48479  -0.44893
 Alpha  occ. eigenvalues --   -0.41420  -0.41046  -0.40263  -0.38519  -0.37808
 Alpha  occ. eigenvalues --   -0.37536
 Alpha virt. eigenvalues --   -0.03166   0.01626   0.02032   0.03487   0.03695
 Alpha virt. eigenvalues --    0.04148   0.04707   0.06208   0.07332   0.07796
 Alpha virt. eigenvalues --    0.08495   0.08642   0.09466   0.11096   0.12112

  Beta  occ. eigenvalues --  -19.72311 -19.68123 -19.66875 -10.74808 -10.62899
  Beta  occ. eigenvalues --  -10.59625 -10.59274 -10.55382  -1.29720  -1.20237
  Beta  occ. eigenvalues --   -1.07013  -0.92256  -0.88626  -0.79560  -0.72231
  Beta  occ. eigenvalues --   -0.66154  -0.62394  -0.60356  -0.59263  -0.55137
  Beta  occ. eigenvalues --   -0.51916  -0.49915  -0.48206  -0.45907  -0.43166
  Beta  occ. eigenvalues --   -0.40972  -0.39743  -0.38526  -0.37802  -0.37664
  Beta virt. eigenvalues --   -0.09183  -0.03141   0.01641   0.02031   0.03503
  Beta virt. eigenvalues --    0.03699   0.04267   0.04796   0.06259   0.07347
  Beta virt. eigenvalues --    0.07875   0.08578   0.08821   0.09682   0.11288

 Mulliken charges and spin densities:
               1          2
     1  O   -0.459483   0.866618
     2  H    0.465346  -0.027627
     3  C    0.286151   0.009173
     4  H    0.349979   0.000006
     5  C    0.453135   0.016684
     6  C   -0.758198  -0.019667
     7  O   -0.445349  -0.001225
     8  O   -0.214919  -0.000509
     9  C   -0.282972  -0.021909
    10  C   -0.535471   0.243397
    11  H    0.228887   0.008423
    12  H    0.240177   0.003305
    13  H    0.226617  -0.007549
    14  H    0.232540  -0.003327
    15  H    0.213559  -0.065793
 Sum of Mulliken charges =  -0.00000   1.00000

 Dipole moment (field-independent basis, Debye):
    X=             -2.1231    Y=             -2.5858    Z=              0.1624  Tot=              3.3497
 Quadrupole moment (field-independent basis, Debye-Ang):
   XX=            -41.3707   YY=            -51.2236   ZZ=            -48.5386
   XY=             -8.0794   XZ=              4.5459   YZ=             -0.9632

  Exact polarizability:  88.531  -1.986  69.570   8.146   2.856  48.397
 Approx polarizability:  93.908   0.614  74.883  13.363   7.079  54.175

 ******    5 imaginary frequencies (negative Signs) ******

                      1                      2                      3
                      A                      A                      A
 Frequencies --   -329.1447              -235.9873              -151.6885
 Red. masses --      1.0637                 1.8934                 2.2028
 Frc consts  --      0.0679                 0.0621                 0.0299
 IR Inten    --     52.3389                69.7986                 6.6757

                      4                      5                      6
                      A                      A                      A
 Frequencies --    -70.5006               -56.5896                70.6599
 Red. masses --      5.9238                 2.3537                 3.1938
 Frc consts  --      0.0173                 0.0044                 0.0094
 IR Inten    --      5.8132                 7.2533                24.1600

                      7                      8                      9
                      A                      A                      A
 Frequencies --    104.2861               177.5207               255.8584
 Red. masses --      4.1972                 4.1091                 3.7329
 Frc consts  --      0.0269                 0.0763                 0.1440
 IR Inten    --      5.7223                10.4347                 2.5566

                     10                     11                     12
                      A                      A                      A
 Frequencies --    310.3107               405.8366               565.1006
 Red. masses --      3.7617                 3.3135                 2.7110
 Frc consts  --      0.2134                 0.3215                 0.5101
 IR Inten    --     14.8964                11.7584                46.3450

                     13                     14                     15
                      A                      A                      A
 Frequencies --    591.0307               626.6118               782.5757
 Red. masses --      1.4958                 5.4133                 3.1994
 Frc consts  --      0.3079                 1.2523                 1.1545
 IR Inten    --    148.2962                27.6016                77.2373

                     16                     17                     18
                      A                      A                      A
 Frequencies --    814.4074               824.0555               874.6321
 Red. masses --      1.3543                 1.2781                 1.8832
 Frc consts  --      0.5292                 0.5114                 0.8488
 IR Inten    --     18.3349                71.1936                18.6242

                     19                     20                     21
                      A                      A                      A
 Frequencies --    894.3137               950.9065              1120.6429
 Red. masses --      3.2795                 2.7113                 3.7181
 Frc consts  --      1.5454                 1.4445                 2.7511
 IR Inten    --     25.1377                11.2248                 3.3500

                     22                     23                     24
                      A                      A                      A
 Frequencies --   1138.2317              1190.9115              1327.2521
 Red. masses --      2.2176                 1.8488                 1.5222
 Frc consts  --      1.6928                 1.5449                 1.5799
 IR Inten    --     26.7609                 9.1096               186.8451

                     25                     26                     27
                      A                      A                      A
 Frequencies --   1375.5046              1407.5869              1448.0141
 Red. masses --      1.9799                 1.1030                 1.4075
 Frc consts  --      2.2071                 1.2876                 1.7388
 IR Inten    --    361.8817                10.4304                89.2541

                     28                     29                     30
                      A                      A                      A
 Frequencies --   1460.9137              1490.5124              1537.2458
 Red. masses --      1.3176                 1.0660                 1.1006
 Frc consts  --      1.6569                 1.3953                 1.5324
 IR Inten    --     28.3905                 3.1110                24.8537

                     31                     32                     33
                      A                      A                      A
 Frequencies --   1885.5166              2334.8553              2437.3388
 Red. masses --     11.9576                 5.5426                 1.0878
 Frc consts  --     25.0469                17.8025                 3.8073
 IR Inten    --    285.2727                89.1785               756.2134

                     34                     35                     36
                      A                      A                      A
 Frequencies --   3134.0573              3138.0150              3192.3331
 Red. masses --      1.0582                 1.0593                 1.1057
 Frc consts  --      6.1241                 6.1460                 6.6388
 IR Inten    --     16.4602                13.5820                 8.1648

                     37                     38                     39
                      A                      A                      A
 Frequencies --   3208.4165              3532.9375              3735.6548
 Red. masses --      1.1027                 1.1797                 1.0661
 Frc consts  --      6.6881                 8.6755                 8.7654
 IR Inten    --      9.5829                55.0408                84.4985

 - Thermochemistry -
 -------------------
 Temperature   298.150 Kelvin.  Pressure   1.00000 Atm.
 Atom     1 has atomic number  8 and mass  15.99491

 Molecular mass:   115.03952 amu.
 Principal axes and moments of inertia in atomic units:
                           1         2         3
     Eigenvalues --   548.180541519.875771860.10773
           X            0.99964  -0.02673   0.00292
           Y            0.02674   0.99963  -0.00390
           Z           -0.00281   0.00397   0.99999
 This molecule is an asymmetric top.
 Rotational symmetry number  1.
 Warning -- assumption of classical behavior for rotation
           may cause significant error
 Rotational temperatures (Kelvin)      0.15800     0.05699     0.04656
 Rotational constants (GHZ):           3.29224     1.18743     0.97023
    5 imaginary frequencies ignored.
 Zero-point vibrational energy     289161.6 (Joules/Mol)
                                   69.11128 (Kcal/Mol)
 Warning -- explicit consideration of   8 degrees of freedom as
           vibrations may cause significant error
 Vibrational temperatures:    101.66   150.04   255.41   368.12   446.47
          (Kelvin)            583.91   813.05   850.36   901.55  1125.95
                             1171.75  1185.63  1258.40  1286.72  1368.14
                             1612.36  1637.66  1713.46  1909.62  1979.04
                             2025.20  2083.37  2101.93  2144.51  2211.75
                             2712.84  3359.34  3506.79  4509.21  4514.90
                             4593.06  4616.20  5083.11  5374.77

 Zero-point correction=                           0.110136 (Hartree/Particle)
 Thermal correction to Energy=                    0.117263
 Thermal correction to Enthalpy=                  0.118207
 Thermal correction to Gibbs Free Energy=         0.076934
 Sum of electronic and zero-point Energies=           -419.847114
 Sum of electronic and thermal Energies=              -419.839987
 Sum of electronic and thermal Enthalpies=            -419.839043
 Sum of electronic and thermal Free Energies=         -419.880316

                     E (Thermal)             CV                S
                      KCal/Mol        Cal/Mol-Kelvin    Cal/Mol-Kelvin
 Total                   73.584             24.559             86.867
 Electronic               0.000              0.000              1.377
 Translational            0.889              2.981             40.136
 Rotational               0.889              2.981             28.829
 Vibrational             71.806             18.597             16.525
 Vibration     1          0.598              1.968              4.135
 Vibration     2          0.605              1.946              3.373
 Vibration     3          0.628              1.870              2.354
 Vibration     4          0.666              1.753              1.690
 Vibration     5          0.699              1.654              1.361
 Vibration     6          0.771              1.458              0.941
 Vibration     7          0.921              1.107              0.514
 Vibration     8          0.948              1.051              0.465

 Normal termination of Gaussian 16 at Fri Jun 20 13:03:38 2025.
