 Gaussian 16, Revision A.03,
 Gaussian 16:  ES64L-G16RevA.03 25-Dec-2016

 -------------------
 # freq 6-31+g m062x
 -------------------

 -------------------
 Title Card Required
 -------------------
 Symbolic Z-matrix:
 Charge =  0 Multiplicity = 2

                         Standard orientation:
 ---------------------------------------------------------------------
 Center     Atomic      Atomic             Coordinates (Angstroms)
 Number     Number       Type             X           Y           Z
 ---------------------------------------------------------------------
      1          8           0        2.289611    1.738568   -0.321868
      2          1           0        1.467652    1.802624    0.201995
      3          6           0       -3.372417    0.210500   -0.507897
      4          1           0       -4.388335    0.279831   -0.820039
      5          6           0       -2.230248    0.131922   -0.155864
      6          6           0       -0.844880    0.087551    0.282283
      7          8           0       -0.283829    1.019054    0.801614
      8          8           0       -0.300725   -1.097745    0.044008
      9          6           0        1.067839   -1.294900    0.462916
     10          6           0        2.045479   -0.822843   -0.585169
     11          1           0        1.139136   -2.372705    0.601244
     12          1           0        1.219451   -0.797157    1.421691
     13          1           0        3.047376   -1.192505   -0.363557
     14          1           0        1.746407   -1.147606   -1.582627
     15          1           0        2.133213    0.275124   -0.626352
 ---------------------------------------------------------------------

 SCF Done:  E(UM062X) =  -419.958628045     A.U. after   22 cycles

 The electronic state is 2-A.
 Alpha  occ. eigenvalues --  -19.72287 -19.68671 -19.68104 -10.74800 -10.62816
 Alpha  occ. eigenvalues --  -10.59614 -10.59264 -10.55417  -1.29699  -1.20211
 Alpha  occ. eigenvalues --   -1.13576  -0.92362  -0.88820  -0.79991  -0.72492
 Alpha  occ. eigenvalues --   -0.66180  -0.62409  -0.60505  -0.59537  -0.56916
 Alpha  occ. eigenvalues --   -0.53944  -0.51591  -0.49408  -0.48373  -0.44837
 Alpha  occ. eigenvalues --   -0.41571  -0.41099  -0.40267  -0.38510  -0.38159
 Alpha  occ. eigenvalues --   -0.37743
 Alpha virt. eigenvalues --   -0.03154   0.01643   0.02040   0.03501   0.03710
 Alpha virt. eigenvalues --    0.04153   0.04716   0.06217   0.07341   0.07809
 Alpha virt. eigenvalues --    0.08521   0.08644   0.09478   0.11091   0.12127

  Beta  occ. eigenvalues --  -19.72287 -19.68108 -19.67112 -10.74800 -10.62825
  Beta  occ. eigenvalues --  -10.59614 -10.59264 -10.55198  -1.29698  -1.20208
  Beta  occ. eigenvalues --   -1.06838  -0.92237  -0.88612  -0.79554  -0.72220
  Beta  occ. eigenvalues --   -0.66121  -0.62384  -0.60341  -0.59216  -0.55132
  Beta  occ. eigenvalues --   -0.51777  -0.49929  -0.48117  -0.45969  -0.43122
  Beta  occ. eigenvalues --   -0.40972  -0.39738  -0.38521  -0.37909  -0.37693
  Beta virt. eigenvalues --   -0.09029  -0.03130   0.01662   0.02041   0.03518
  Beta virt. eigenvalues --    0.03723   0.04274   0.04806   0.06268   0.07362
  Beta virt. eigenvalues --    0.07889   0.08602   0.08817   0.09695   0.11283

 Mulliken charges and spin densities:
               1          2
     1  O   -0.451113   0.891195
     2  H    0.465504  -0.028663
     3  C    0.288907   0.009020
     4  H    0.349905   0.000005
     5  C    0.455218   0.016292
     6  C   -0.762947  -0.020296
     7  O   -0.445373  -0.000489
     8  O   -0.214530  -0.000489
     9  C   -0.282724  -0.019712
    10  C   -0.540391   0.212923
    11  H    0.228198   0.006945
    12  H    0.239369   0.002693
    13  H    0.225361  -0.006631
    14  H    0.230967  -0.002309
    15  H    0.213651  -0.060482
 Sum of Mulliken charges =  -0.00000   1.00000

 Dipole moment (field-independent basis, Debye):
    X=             -2.1138    Y=             -2.5174    Z=              0.1697  Tot=              3.2915
 Quadrupole moment (field-independent basis, Debye-Ang):
   XX=            -41.3875   YY=            -51.1193   ZZ=            -48.5555
   XY=             -7.8975   XZ=              4.5678   YZ=             -0.9811

  Exact polarizability:  88.492  -2.350  67.779   8.144   2.773  48.396
 Approx polarizability:  93.874   0.414  73.379  13.357   6.959  54.124

 ******    4 imaginary frequencies (negative Signs) ******

                      1                      2                      3
                      A                      A                      A
 Frequencies --   -324.4015              -235.8479              -124.7106
 Red. masses --      1.0410                 1.7254                 2.1988
 Frc consts  --      0.0645                 0.0565                 0.0201
 IR Inten    --     47.9026                71.0940                14.9728

                      4                      5                      6
                      A                      A                      A
 Frequencies --    -70.5078                27.3976                69.4282
 Red. masses --      3.1370                 4.7112                 3.3478
 Frc consts  --      0.0092                 0.0021                 0.0095
 IR Inten    --      4.7140                 5.5060                17.8207

                      7                      8                      9
                      A                      A                      A
 Frequencies --    140.6605               205.3178               256.1337
 Red. masses --      3.5110                 5.1959                 3.7354
 Frc consts  --      0.0409                 0.1291                 0.1444
 IR Inten    --     15.5063                 0.4952                 2.7602

                     10                     11                     12
                      A                      A                      A
 Frequencies --    311.0392               404.5830               548.4841
 Red. masses --      3.8974                 3.2421                 1.4856
 Frc consts  --      0.2222                 0.3127                 0.2633
 IR Inten    --     14.3576                14.1441               166.5733

                     13                     14                     15
                      A                      A                      A
 Frequencies --    577.7544               626.0173               782.4568
 Red. masses --      2.7221                 5.5489                 3.1252
 Frc consts  --      0.5354                 1.2812                 1.1273
 IR Inten    --     55.2792                21.8368                78.2010

                     16                     17                     18
                      A                      A                      A
 Frequencies --    807.8088               818.5690               874.6012
 Red. masses --      1.2223                 1.3855                 1.8856
 Frc consts  --      0.4700                 0.5470                 0.8498
 IR Inten    --      1.5606                77.5488                18.3465

                     19                     20                     21
                      A                      A                      A
 Frequencies --    892.9537               950.5272              1119.7725
 Red. masses --      3.4916                 2.7460                 3.7816
 Frc consts  --      1.6404                 1.4618                 2.7938
 IR Inten    --     21.3359                10.2015                 4.3214

                     22                     23                     24
                      A                      A                      A
 Frequencies --   1138.0490              1193.4297              1328.8253
 Red. masses --      2.2131                 1.8487                 1.5035
 Frc consts  --      1.6888                 1.5513                 1.5642
 IR Inten    --     25.3096                 6.4954               183.5186

                     25                     26                     27
                      A                      A                      A
 Frequencies --   1377.2799              1422.4089              1450.1367
 Red. masses --      2.0480                 1.1238                 1.3894
 Frc consts  --      2.2888                 1.3396                 1.7215
 IR Inten    --    373.2621                12.9989                85.4962

                     28                     29                     30
                      A                      A                      A
 Frequencies --   1463.7604              1499.1685              1538.2877
 Red. masses --      1.2791                 1.0636                 1.1013
 Frc consts  --      1.6147                 1.4084                 1.5354
 IR Inten    --     26.8262                 5.6227                24.7417

                     31                     32                     33
                      A                      A                      A
 Frequencies --   1884.4622              2334.6485              2676.8146
 Red. masses --     12.0437                 5.5427                 1.0789
 Frc consts  --     25.1992                17.7999                 4.5549
 IR Inten    --    305.4524                88.9840               496.9745

                     34                     35                     36
                      A                      A                      A
 Frequencies --   3135.2265              3138.0634              3194.0751
 Red. masses --      1.0581                 1.0613                 1.1052
 Frc consts  --      6.1279                 6.1577                 6.6435
 IR Inten    --     15.9914                16.7920                 9.7743

                     37                     38                     39
                      A                      A                      A
 Frequencies --   3205.6532              3532.9221              3727.2960
 Red. masses --      1.1025                 1.1797                 1.0662
 Frc consts  --      6.6752                 8.6753                 8.7273
 IR Inten    --     10.2194                55.0496                87.8629

 - Thermochemistry -
 -------------------
 Temperature   298.150 Kelvin.  Pressure   1.00000 Atm.
 Atom     1 has atomic number  8 and mass  15.99491

 Molecular mass:   115.03952 amu.
 Principal axes and moments of inertia in atomic units:
                           1         2         3
     Eigenvalues --   552.359361519.911681864.09664
           X            0.99962  -0.02732   0.00287
           Y            0.02733   0.99962  -0.00346
           Z           -0.00278   0.00353   0.99999
 This molecule is an asymmetric top.
 Rotational symmetry number  1.
 Warning -- assumption of classical behavior for rotation
           may cause significant error
 Rotational temperatures (Kelvin)      0.15681     0.05699     0.04646
 Rotational constants (GHZ):           3.26733     1.18740     0.96816
    4 imaginary frequencies ignored.
 Zero-point vibrational energy     291015.6 (Joules/Mol)
                                   69.55440 (Kcal/Mol)
 Warning -- explicit consideration of   9 degrees of freedom as
           vibrations may cause significant error
 Vibrational temperatures:     39.42    99.89   202.38   295.41   368.52
          (Kelvin)            447.52   582.10   789.15   831.26   900.70
                             1125.78  1162.26  1177.74  1258.36  1284.76
                             1367.60  1611.10  1637.40  1717.08  1911.88
                             1981.60  2046.53  2086.42  2106.02  2156.97
                             2213.25  2711.32  3359.04  3851.34  4510.89
                             4514.97  4595.56  4612.22  5083.09  5362.75

 Zero-point correction=                           0.110842 (Hartree/Particle)
 Thermal correction to Energy=                    0.118765
 Thermal correction to Enthalpy=                  0.119709
 Thermal correction to Gibbs Free Energy=         0.075930
 Sum of electronic and zero-point Energies=           -419.847786
 Sum of electronic and thermal Energies=              -419.839863
 Sum of electronic and thermal Enthalpies=            -419.838919
 Sum of electronic and thermal Free Energies=         -419.882698

                     E (Thermal)             CV                S
                      KCal/Mol        Cal/Mol-Kelvin    Cal/Mol-Kelvin
 Total                   74.526             26.549             92.139
 Electronic               0.000              0.000              1.377
 Translational            0.889              2.981             40.136
 Rotational               0.889              2.981             28.839
 Vibrational             72.748             20.588             21.788
 Vibration     1          0.593              1.984              6.009
 Vibration     2          0.598              1.969              4.170
 Vibration     3          0.615              1.913              2.795
 Vibration     4          0.640              1.832              2.085
 Vibration     5          0.666              1.752              1.688
 Vibration     6          0.700              1.653              1.357
 Vibration     7          0.770              1.460              0.946
 Vibration     8          0.904              1.143              0.547
 Vibration     9          0.934              1.079              0.490

 Normal termination of Gaussian 16 at Fri Jun 20 13:00:24 2025.
