 Gaussian 16, Revision A.03,
 Gaussian 16:  ES64L-G16RevA.03 25-Dec-2016

 -------------------
 # freq 6-31+g m062x
 -------------------

 -------------------
 Title Card Required
 -------------------
 Symbolic Z-matrix:
 Charge =  0 Multiplicity = 2

                         Standard orientation:
 ---------------------------------------------------------------------
 Center     Atomic      Atomic             Coordinates (Angstroms)
 Number     Number       Type             X           Y           Z
 ---------------------------------------------------------------------
      1          8           0        2.289225    1.674581   -0.319860
      2          1           0        1.487948    1.805173    0.206618
      3          6           0       -3.372950    0.219928   -0.505571
      4          1           0       -4.388848    0.295632   -0.816474
      5          6           0       -2.230902    0.134485   -0.155037
      6          6           0       -0.846912    0.085459    0.283536
      7          8           0       -0.283189    1.006724    0.811007
      8          8           0       -0.302590   -1.103775    0.033853
      9          6           0        1.062918   -1.296739    0.448118
     10          6           0        2.040006   -0.812745   -0.583604
     11          1           0        1.148934   -2.380286    0.566728
     12          1           0        1.218402   -0.820181    1.418195
     13          1           0        3.062440   -1.120409   -0.373795
     14          1           0        1.737436   -1.008738   -1.610335
     15          1           0        2.193167    0.626253   -0.515579
 ---------------------------------------------------------------------

 SCF Done:  E(UM062X) =  -419.956447462     A.U. after   19 cycles

 The electronic state is 2-A.
 Alpha  occ. eigenvalues --  -19.72929 -19.68494 -19.63054 -10.75138 -10.64357
 Alpha  occ. eigenvalues --  -10.59881 -10.59518 -10.59246  -1.30258  -1.20827
 Alpha  occ. eigenvalues --   -1.12124  -0.93258  -0.89576  -0.80658  -0.73023
 Alpha  occ. eigenvalues --   -0.67204  -0.62668  -0.61229  -0.60601  -0.57913
 Alpha  occ. eigenvalues --   -0.55036  -0.52139  -0.50645  -0.46865  -0.45909
 Alpha  occ. eigenvalues --   -0.41536  -0.40901  -0.38783  -0.38020  -0.37493
 Alpha  occ. eigenvalues --   -0.31489
 Alpha virt. eigenvalues --   -0.03444   0.01207   0.01879   0.03071   0.03322
 Alpha virt. eigenvalues --    0.03934   0.04561   0.05966   0.07120   0.07450
 Alpha virt. eigenvalues --    0.08042   0.08751   0.09432   0.10990   0.11865

  Beta  occ. eigenvalues --  -19.72927 -19.68493 -19.62393 -10.75138 -10.64398
  Beta  occ. eigenvalues --  -10.59881 -10.59517 -10.58563  -1.30250  -1.20812
  Beta  occ. eigenvalues --   -1.09857  -0.92742  -0.88972  -0.79353  -0.72219
  Beta  occ. eigenvalues --   -0.66936  -0.62623  -0.60814  -0.59962  -0.55555
  Beta  occ. eigenvalues --   -0.54098  -0.51062  -0.49624  -0.45798  -0.43660
  Beta  occ. eigenvalues --   -0.41377  -0.40235  -0.38739  -0.37950  -0.36288
  Beta virt. eigenvalues --   -0.08855  -0.03417   0.01061   0.01871   0.02971
  Beta virt. eigenvalues --    0.03274   0.03963   0.04538   0.05976   0.06978
  Beta virt. eigenvalues --    0.07506   0.08138   0.08861   0.09505   0.11059

 Mulliken charges and spin densities:
               1          2
     1  O   -0.706827   0.294988
     2  H    0.475057  -0.002969
     3  C    0.309438   0.005745
     4  H    0.351230   0.000027
     5  C    0.488449   0.020528
     6  C   -0.805003  -0.011437
     7  O   -0.444823  -0.005313
     8  O   -0.216816  -0.000199
     9  C   -0.303373  -0.075791
    10  C   -0.474090   0.848861
    11  H    0.244373   0.040327
    12  H    0.254377   0.015910
    13  H    0.238233  -0.034327
    14  H    0.243649  -0.029009
    15  H    0.346127  -0.067342
 Sum of Mulliken charges =  -0.00000   1.00000

 Dipole moment (field-independent basis, Debye):
    X=             -2.4696    Y=             -4.1542    Z=              0.0899  Tot=              4.8336
 Quadrupole moment (field-independent basis, Debye-Ang):
   XX=            -41.9824   YY=            -53.8572   ZZ=            -48.0926
   XY=            -12.1326   XZ=              4.2439   YZ=             -0.5268

  Exact polarizability:  88.882  -1.224  69.798   7.814   2.709  48.763
 Approx polarizability:  94.277   1.630  77.896  13.209   7.070  54.792

 ******    3 imaginary frequencies (negative Signs) ******

                      1                      2                      3
                      A                      A                      A
 Frequencies --   -508.6875              -359.0804              -101.6499
 Red. masses --      2.1460                 1.0639                 5.7257
 Frc consts  --      0.3272                 0.0808                 0.0349
 IR Inten    --     97.5597                76.5383                 0.3581

                      4                      5                      6
                      A                      A                      A
 Frequencies --     35.8161                71.7418               118.4412
 Red. masses --      4.7263                 4.1426                 3.2702
 Frc consts  --      0.0036                 0.0126                 0.0270
 IR Inten    --      5.2145                 8.2434                 1.3156

                      7                      8                      9
                      A                      A                      A
 Frequencies --    172.1337               253.5228               311.7873
 Red. masses --      6.1078                 3.6444                 3.2288
 Frc consts  --      0.1066                 0.1380                 0.1849
 IR Inten    --     11.1154                 2.8290                15.7815

                     10                     11                     12
                      A                      A                      A
 Frequencies --    377.1493               410.7495               535.8824
 Red. masses --      1.2434                 2.2395                 1.7936
 Frc consts  --      0.1042                 0.2226                 0.3035
 IR Inten    --     40.6281                33.3403                38.5040

                     13                     14                     15
                      A                      A                      A
 Frequencies --    588.9938               628.0506               781.0544
 Red. masses --      2.1903                 5.5818                 3.2470
 Frc consts  --      0.4477                 1.2972                 1.1671
 IR Inten    --     31.5159                17.1972                58.5504

                     16                     17                     18
                      A                      A                      A
 Frequencies --    816.9071               820.4042               860.5797
 Red. masses --      1.2991                 1.3401                 1.9702
 Frc consts  --      0.5108                 0.5314                 0.8597
 IR Inten    --     15.6964                68.4958                82.4870

                     19                     20                     21
                      A                      A                      A
 Frequencies --    872.8291               878.2335               948.6401
 Red. masses --      1.8253                 1.8531                 1.5601
 Frc consts  --      0.8193                 0.8421                 0.8272
 IR Inten    --     50.1772                12.1252                22.2828

                     22                     23                     24
                      A                      A                      A
 Frequencies --    979.9946              1132.9048              1152.8409
 Red. masses --      2.3267                 3.8791                 1.9056
 Frc consts  --      1.3165                 2.9334                 1.4922
 IR Inten    --     14.1833                 5.0233                 4.4812

                     25                     26                     27
                      A                      A                      A
 Frequencies --   1286.9313              1330.1704              1374.7943
 Red. masses --      1.4153                 1.6290                 2.3098
 Frc consts  --      1.3811                 1.6982                 2.5721
 IR Inten    --     41.6586               216.3092               346.0805

                     28                     29                     30
                      A                      A                      A
 Frequencies --   1436.4238              1470.8546              1514.0989
 Red. masses --      1.4547                 1.1347                 1.0972
 Frc consts  --      1.7685                 1.4464                 1.4820
 IR Inten    --     69.4218                10.9259                31.2671

                     31                     32                     33
                      A                      A                      A
 Frequencies --   1856.4955              1900.6664              2335.5877
 Red. masses --      1.1252                 8.1410                 5.5400
 Frc consts  --      2.2849                17.3276                17.8055
 IR Inten    --    371.3081               196.5272                91.9895

                     34                     35                     36
                      A                      A                      A
 Frequencies --   3103.0036              3156.9512              3164.1578
 Red. masses --      1.0589                 1.0800                 1.0749
 Frc consts  --      6.0073                 6.3418                 6.3408
 IR Inten    --     11.2869                 1.0768                 4.1810

                     37                     38                     39
                      A                      A                      A
 Frequencies --   3256.0152              3532.5608              3858.9711
 Red. masses --      1.1103                 1.1799                 1.0633
 Frc consts  --      6.9355                 8.6752                 9.3293
 IR Inten    --      2.5921                55.3531                72.5920

 - Thermochemistry -
 -------------------
 Temperature   298.150 Kelvin.  Pressure   1.00000 Atm.
 Atom     1 has atomic number  8 and mass  15.99491

 Molecular mass:   115.03952 amu.
 Principal axes and moments of inertia in atomic units:
                           1         2         3
     Eigenvalues --   538.710401519.769061850.91903
           X            0.99974  -0.02266   0.00317
           Y            0.02268   0.99972  -0.00698
           Z           -0.00301   0.00705   0.99997
 This molecule is an asymmetric top.
 Rotational symmetry number  1.
 Warning -- assumption of classical behavior for rotation
           may cause significant error
 Rotational temperatures (Kelvin)      0.16078     0.05699     0.04680
 Rotational constants (GHZ):           3.35011     1.18751     0.97505
    3 imaginary frequencies ignored.
 Zero-point vibrational energy     283074.4 (Joules/Mol)
                                   67.65640 (Kcal/Mol)
 Warning -- explicit consideration of  10 degrees of freedom as
           vibrations may cause significant error
 Vibrational temperatures:     51.53   103.22   170.41   247.66   364.76
          (Kelvin)            448.59   542.63   590.98   771.02   847.43
                              903.62  1123.76  1175.35  1180.38  1238.18
                             1255.81  1263.58  1364.88  1409.99  1630.00
                             1658.68  1851.61  1913.82  1978.02  2066.69
                             2116.23  2178.45  2671.08  2734.63  3360.39
                             4464.53  4542.15  4552.52  4684.68  5082.57
                             5552.20

 Zero-point correction=                           0.107817 (Hartree/Particle)
 Thermal correction to Energy=                    0.116226
 Thermal correction to Enthalpy=                  0.117170
 Thermal correction to Gibbs Free Energy=         0.072774
 Sum of electronic and zero-point Energies=           -419.848630
 Sum of electronic and thermal Energies=              -419.840221
 Sum of electronic and thermal Enthalpies=            -419.839277
 Sum of electronic and thermal Free Energies=         -419.883673

                     E (Thermal)             CV                S
                      KCal/Mol        Cal/Mol-Kelvin    Cal/Mol-Kelvin
 Total                   72.933             28.863             93.439
 Electronic               0.000              0.000              1.377
 Translational            0.889              2.981             40.136
 Rotational               0.889              2.981             28.807
 Vibrational             71.156             22.902             23.120
 Vibration     1          0.594              1.982              5.478
 Vibration     2          0.598              1.967              4.105
 Vibration     3          0.609              1.934              3.126
 Vibration     4          0.626              1.877              2.412
 Vibration     5          0.665              1.757              1.706
 Vibration     6          0.700              1.651              1.353
 Vibration     7          0.748              1.519              1.051
 Vibration     8          0.775              1.447              0.924
 Vibration     9          0.891              1.171              0.574
 Vibration    10          0.946              1.055              0.469

 Normal termination of Gaussian 16 at Fri Jun 20 13:01:11 2025.
