 Gaussian 16, Revision A.03,
 Gaussian 16:  ES64L-G16RevA.03 25-Dec-2016

 -------------------
 # freq 6-31+g m062x
 -------------------

 -------------------
 Title Card Required
 -------------------
 Symbolic Z-matrix:
 Charge =  0 Multiplicity = 2

                         Standard orientation:
 ---------------------------------------------------------------------
 Center     Atomic      Atomic             Coordinates (Angstroms)
 Number     Number       Type             X           Y           Z
 ---------------------------------------------------------------------
      1          8           0        2.287968    1.706290   -0.321781
      2          1           0        1.472232    1.800116    0.204481
      3          6           0       -3.372818    0.212384   -0.506843
      4          1           0       -4.388782    0.283798   -0.818380
      5          6           0       -2.230625    0.131570   -0.155569
      6          6           0       -0.845864    0.086004    0.282835
      7          8           0       -0.284798    1.013501    0.806876
      8          8           0       -0.300221   -1.099835    0.038762
      9          6           0        1.067656   -1.293285    0.455020
     10          6           0        2.045067   -0.799115   -0.582056
     11          1           0        1.148069   -2.372817    0.579969
     12          1           0        1.218537   -0.807597    1.420315
     13          1           0        3.052759   -1.159448   -0.372780
     14          1           0        1.744326   -1.066376   -1.595412
     15          1           0        2.148768    0.337330   -0.569378
 ---------------------------------------------------------------------

 SCF Done:  E(UM062X) =  -419.955235118     A.U. after   22 cycles

 The electronic state is 2-A.
 Alpha  occ. eigenvalues --  -19.72381 -19.68165 -19.67787 -10.74841 -10.63084
 Alpha  occ. eigenvalues --  -10.59657 -10.59303 -10.56209  -1.29782  -1.20321
 Alpha  occ. eigenvalues --   -1.13131  -0.92497  -0.88964  -0.80182  -0.72632
 Alpha  occ. eigenvalues --   -0.66343  -0.62453  -0.60614  -0.59797  -0.57290
 Alpha  occ. eigenvalues --   -0.53982  -0.51307  -0.49655  -0.48714  -0.45044
 Alpha  occ. eigenvalues --   -0.41269  -0.40758  -0.40277  -0.38549  -0.37812
 Alpha  occ. eigenvalues --   -0.36392
 Alpha virt. eigenvalues --   -0.03199   0.01579   0.02011   0.03446   0.03644
 Alpha virt. eigenvalues --    0.04133   0.04681   0.06180   0.07303   0.07759
 Alpha virt. eigenvalues --    0.08427   0.08647   0.09442   0.11095   0.12074

  Beta  occ. eigenvalues --  -19.72380 -19.68169 -19.66323 -10.74841 -10.63098
  Beta  occ. eigenvalues --  -10.59657 -10.59303 -10.55897  -1.29781  -1.20317
  Beta  occ. eigenvalues --   -1.07315  -0.92310  -0.88667  -0.79562  -0.72254
  Beta  occ. eigenvalues --   -0.66252  -0.62423  -0.60401  -0.59357  -0.55144
  Beta  occ. eigenvalues --   -0.52140  -0.49940  -0.48424  -0.45795  -0.43243
  Beta  occ. eigenvalues --   -0.40993  -0.39766  -0.38548  -0.37758  -0.37375
  Beta virt. eigenvalues --   -0.09514  -0.03175   0.01582   0.02007   0.03460
  Beta virt. eigenvalues --    0.03630   0.04243   0.04768   0.06230   0.07301
  Beta virt. eigenvalues --    0.07836   0.08518   0.08832   0.09647   0.11284

 Mulliken charges and spin densities:
               1          2
     1  O   -0.481585   0.810060
     2  H    0.465318  -0.025074
     3  C    0.284149   0.009547
     4  H    0.350170   0.000008
     5  C    0.451337   0.017987
     6  C   -0.754052  -0.018993
     7  O   -0.444767  -0.002724
     8  O   -0.215385  -0.000531
     9  C   -0.283391  -0.027132
    10  C   -0.528278   0.311381
    11  H    0.230747   0.011875
    12  H    0.242141   0.004674
    13  H    0.229783  -0.009776
    14  H    0.235869  -0.005565
    15  H    0.217944  -0.075737
 Sum of Mulliken charges =  -0.00000   1.00000

 Dipole moment (field-independent basis, Debye):
    X=             -2.1585    Y=             -2.7782    Z=              0.1519  Tot=              3.5214
 Quadrupole moment (field-independent basis, Debye-Ang):
   XX=            -41.3828   YY=            -51.5241   ZZ=            -48.4875
   XY=             -8.5786   XZ=              4.5047   YZ=             -0.9024

  Exact polarizability:  88.650  -1.223  72.968   8.142   2.971  48.413
 Approx polarizability:  94.011   1.113  78.068  13.381   7.277  54.282

 ******    4 imaginary frequencies (negative Signs) ******

                      1                      2                      3
                      A                      A                      A
 Frequencies --   -471.7663              -304.7904              -143.6358
 Red. masses --      2.0295                 1.1558                 4.0347
 Frc consts  --      0.2661                 0.0633                 0.0490
 IR Inten    --    106.4192               106.7526                 4.2120

                      4                      5                      6
                      A                      A                      A
 Frequencies --    -59.6769                44.4135                80.1082
 Red. masses --      3.6436                 3.4775                 4.8365
 Frc consts  --      0.0076                 0.0040                 0.0183
 IR Inten    --      8.6971                 5.5382                13.8353

                      7                      8                      9
                      A                      A                      A
 Frequencies --    114.0707               191.4512               255.9148
 Red. masses --      2.2072                 1.8169                 3.6917
 Frc consts  --      0.0169                 0.0392                 0.1425
 IR Inten    --     22.4247                16.7497                 2.0850

                     10                     11                     12
                      A                      A                      A
 Frequencies --    311.5396               408.5568               571.2372
 Red. masses --      3.5025                 3.3964                 4.0399
 Frc consts  --      0.2003                 0.3340                 0.7767
 IR Inten    --     14.5033                 9.7494                 3.9523

                     13                     14                     15
                      A                      A                      A
 Frequencies --    621.5492               634.4896               782.5514
 Red. masses --      2.3554                 1.8636                 3.2523
 Frc consts  --      0.5361                 0.4420                 1.1734
 IR Inten    --     41.6570               115.6956                74.7943

                     16                     17                     18
                      A                      A                      A
 Frequencies --    816.7435               851.7505               874.7551
 Red. masses --      1.4188                 1.4971                 1.8808
 Frc consts  --      0.5576                 0.6399                 0.8479
 IR Inten    --     47.7725                45.9893                19.3973

                     19                     20                     21
                      A                      A                      A
 Frequencies --    901.7072               952.7301              1120.9751
 Red. masses --      2.3683                 2.6108                 3.5397
 Frc consts  --      1.1345                 1.3962                 2.6206
 IR Inten    --     43.3238                16.9996                 4.0288

                     22                     23                     24
                      A                      A                      A
 Frequencies --   1139.9122              1186.7580              1322.5993
 Red. masses --      2.1993                 1.8543                 1.6171
 Frc consts  --      1.6838                 1.5387                 1.6666
 IR Inten    --     29.1363                24.6917               194.8990

                     25                     26                     27
                      A                      A                      A
 Frequencies --   1362.7680              1369.3069              1430.5631
 Red. masses --      1.0756                 1.7712                 1.4561
 Frc consts  --      1.1769                 1.9567                 1.7557
 IR Inten    --     27.0725               300.3336               128.8134

                     28                     29                     30
                      A                      A                      A
 Frequencies --   1453.7860              1475.9414              1534.6314
 Red. masses --      1.3803                 1.1195                 1.0994
 Frc consts  --      1.7187                 1.4369                 1.5254
 IR Inten    --     40.1064                19.4277                25.8887

                     31                     32                     33
                      A                      A                      A
 Frequencies --   1842.0137              1896.0076              2335.2204
 Red. masses --      1.2285                 5.5078                 5.5422
 Frc consts  --      2.4559                11.6656                17.8069
 IR Inten    --    674.6780               759.3792                89.6591

                     34                     35                     36
                      A                      A                      A
 Frequencies --   3131.1479              3139.0075              3187.7554
 Red. masses --      1.0581                 1.0573                 1.1060
 Frc consts  --      6.1120                 6.1382                 6.6220
 IR Inten    --     16.3135                 9.5731                 5.6717

                     37                     38                     39
                      A                      A                      A
 Frequencies --   3214.6130              3532.9274              3752.5591
 Red. masses --      1.1040                 1.1798                 1.0658
 Frc consts  --      6.7216                 8.6759                 8.8429
 IR Inten    --      7.8720                55.0466                79.6628

 - Thermochemistry -
 -------------------
 Temperature   298.150 Kelvin.  Pressure   1.00000 Atm.
 Atom     1 has atomic number  8 and mass  15.99491

 Molecular mass:   115.03952 amu.
 Principal axes and moments of inertia in atomic units:
                           1         2         3
     Eigenvalues --   542.933391519.809751855.03899
           X            0.99966  -0.02582   0.00300
           Y            0.02584   0.99966  -0.00461
           Z           -0.00288   0.00468   0.99998
 This molecule is an asymmetric top.
 Rotational symmetry number  1.
 Warning -- assumption of classical behavior for rotation
           may cause significant error
 Rotational temperatures (Kelvin)      0.15953     0.05699     0.04669
 Rotational constants (GHZ):           3.32406     1.18748     0.97289
    4 imaginary frequencies ignored.
 Zero-point vibrational energy     286159.1 (Joules/Mol)
                                   68.39366 (Kcal/Mol)
 Warning -- explicit consideration of   8 degrees of freedom as
           vibrations may cause significant error
 Vibrational temperatures:     63.90   115.26   164.12   275.46   368.20
          (Kelvin)            448.24   587.82   821.88   894.27   912.89
                             1125.92  1175.11  1225.48  1258.58  1297.36
                             1370.77  1612.83  1640.08  1707.48  1902.93
                             1960.72  1970.13  2058.26  2091.67  2123.55
                             2207.99  2650.25  2727.93  3359.86  4505.02
                             4516.33  4586.47  4625.11  5083.09  5399.10

 Zero-point correction=                           0.108992 (Hartree/Particle)
 Thermal correction to Energy=                    0.116872
 Thermal correction to Enthalpy=                  0.117816
 Thermal correction to Gibbs Free Energy=         0.074467
 Sum of electronic and zero-point Energies=           -419.846243
 Sum of electronic and thermal Energies=              -419.838363
 Sum of electronic and thermal Enthalpies=            -419.837419
 Sum of electronic and thermal Free Energies=         -419.880768

                     E (Thermal)             CV                S
                      KCal/Mol        Cal/Mol-Kelvin    Cal/Mol-Kelvin
 Total                   73.338             26.399             91.237
 Electronic               0.000              0.000              1.377
 Translational            0.889              2.981             40.136
 Rotational               0.889              2.981             28.817
 Vibrational             71.561             20.438             20.907
 Vibration     1          0.595              1.980              5.052
 Vibration     2          0.600              1.963              3.888
 Vibration     3          0.607              1.938              3.198
 Vibration     4          0.634              1.852              2.214
 Vibration     5          0.666              1.753              1.689
 Vibration     6          0.700              1.652              1.354
 Vibration     7          0.773              1.452              0.932
 Vibration     8          0.927              1.093              0.502

 Normal termination of Gaussian 16 at Fri Jun 20 12:57:09 2025.
