 Gaussian 16, Revision A.03,
 Gaussian 16:  ES64L-G16RevA.03 25-Dec-2016

 --------------------------
 # freq 6-311++g(d,p) m062x
 --------------------------

 -------------------
 Title Card Required
 -------------------
 Symbolic Z-matrix:
 Charge =  0 Multiplicity = 2

                         Standard orientation:
 ---------------------------------------------------------------------
 Center     Atomic      Atomic             Coordinates (Angstroms)
 Number     Number       Type             X           Y           Z
 ---------------------------------------------------------------------
      1          8           0        2.288347    1.715545   -0.321897
      2          1           0        1.470477    1.800714    0.203688
      3          6           0       -3.372718    0.211649   -0.507161
      4          1           0       -4.388671    0.282382   -0.818877
      5          6           0       -2.230525    0.131549   -0.155667
      6          6           0       -0.845553    0.086304    0.282662
      7          8           0       -0.284629    1.015153    0.805460
      8          8           0       -0.300297   -1.099083    0.040239
      9          6           0        1.067994   -1.293612    0.457201
     10          6           0        2.045370   -0.804618   -0.582625
     11          1           0        1.145680   -2.372619    0.585421
     12          1           0        1.218518   -0.804833    1.420909
     13          1           0        3.050505   -1.170886   -0.370884
     14          1           0        1.744816   -1.088980   -1.591578
     15          1           0        2.143907    0.313670   -0.585556
 ---------------------------------------------------------------------

 SCF Done:  E(UM062X) =  -420.202035875     A.U. after   20 cycles

 The electronic state is 2-A.
 Alpha  occ. eigenvalues --  -19.69814 -19.65583 -19.64796 -10.72329 -10.61870
 Alpha  occ. eigenvalues --  -10.57977 -10.57504 -10.55054  -1.27251  -1.17912
 Alpha  occ. eigenvalues --   -1.12185  -0.91649  -0.88096  -0.79500  -0.71885
 Alpha  occ. eigenvalues --   -0.65943  -0.62084  -0.60547  -0.59077  -0.56772
 Alpha  occ. eigenvalues --   -0.53870  -0.51539  -0.49238  -0.48322  -0.45038
 Alpha  occ. eigenvalues --   -0.41342  -0.40898  -0.40333  -0.38170  -0.37347
 Alpha  occ. eigenvalues --   -0.37025
 Alpha virt. eigenvalues --   -0.02852  -0.00396   0.00450   0.01727   0.02316
 Alpha virt. eigenvalues --    0.02987   0.03440   0.04933   0.05629   0.06434
 Alpha virt. eigenvalues --    0.06635   0.07378   0.07862   0.09309   0.10105

  Beta  occ. eigenvalues --  -19.69814 -19.64800 -19.64141 -10.72329 -10.61881
  Beta  occ. eigenvalues --  -10.57977 -10.57504 -10.54793  -1.27249  -1.17906
  Beta  occ. eigenvalues --   -1.05818  -0.91467  -0.87807  -0.78938  -0.71512
  Beta  occ. eigenvalues --   -0.65872  -0.62048  -0.60352  -0.58589  -0.54527
  Beta  occ. eigenvalues --   -0.51968  -0.49786  -0.48065  -0.46000  -0.43005
  Beta  occ. eigenvalues --   -0.40900  -0.39824  -0.38204  -0.37785  -0.37287
  Beta virt. eigenvalues --   -0.09313  -0.02829  -0.00349   0.00470   0.01811
  Beta virt. eigenvalues --    0.02539   0.03100   0.03452   0.05345   0.05703
  Beta virt. eigenvalues --    0.06538   0.06870   0.07511   0.07906   0.09525

 Mulliken charges and spin densities:
               1          2
     1  O   -0.294485   0.812367
     2  H    0.268087  -0.009768
     3  C   -0.637561  -0.001193
     4  H    0.181868  -0.000026
     5  C    1.219236   0.006544
     6  C   -0.661230   0.004975
     7  O   -0.276194  -0.002275
     8  O    0.026796  -0.000323
     9  C   -0.420277  -0.025671
    10  C   -0.445292   0.252726
    11  H    0.196076   0.010632
    12  H    0.228457   0.003311
    13  H    0.176687  -0.007624
    14  H    0.193174  -0.002104
    15  H    0.244659  -0.041573
 Sum of Mulliken charges =  -0.00000   1.00000

 Dipole moment (field-independent basis, Debye):
    X=             -1.8878    Y=             -2.6612    Z=             -0.0094  Tot=              3.2628
 Quadrupole moment (field-independent basis, Debye-Ang):
   XX=            -40.3072   YY=            -50.3934   ZZ=            -48.0313
   XY=             -7.4320   XZ=              4.1996   YZ=             -0.8136

  Exact polarizability:  93.095  -1.640  74.495   7.720   2.428  52.082
 Approx polarizability: 100.010   0.404  82.718  12.280   5.851  62.883

 ******    2 imaginary frequencies (negative Signs) ******

                      1                      2                      3
                      A                      A                      A
 Frequencies --   -409.4767              -121.0678                32.2177
 Red. masses --      2.1511                 2.2055                 4.1194
 Frc consts  --      0.2125                 0.0190                 0.0025
 IR Inten    --    103.8469                 0.7145                 1.6523

                      4                      5                      6
                      A                      A                      A
 Frequencies --     80.3000               105.4694               142.3972
 Red. masses --      4.2585                 1.9222                 5.6141
 Frc consts  --      0.0162                 0.0126                 0.0671
 IR Inten    --      3.0347                 5.3379                 1.0201

                      7                      8                      9
                      A                      A                      A
 Frequencies --    192.2755               273.0762               335.3496
 Red. masses --      4.1246                 4.2567                 3.3759
 Frc consts  --      0.0898                 0.1870                 0.2237
 IR Inten    --      7.5021                 2.2108                12.8989

                     10                     11                     12
                      A                      A                      A
 Frequencies --    417.0911               426.9371               563.6625
 Red. masses --      3.6307                 1.0600                 4.2058
 Frc consts  --      0.3721                 0.1138                 0.7873
 IR Inten    --      4.3422                91.6022                 1.4171

                     13                     14                     15
                      A                      A                      A
 Frequencies --    610.4970               694.6710               746.3077
 Red. masses --      7.2065                 1.1524                 1.3140
 Frc consts  --      1.5825                 0.3276                 0.4312
 IR Inten    --      9.9407                86.1840                38.8082

                     16                     17                     18
                      A                      A                      A
 Frequencies --    779.5937               789.8069               847.3966
 Red. masses --      1.4430                 5.8233                 1.3383
 Frc consts  --      0.5167                 2.1402                 0.5662
 IR Inten    --     18.6033                48.7195                70.5334

                     19                     20                     21
                      A                      A                      A
 Frequencies --    892.0643               936.5292              1083.5226
 Red. masses --      2.4126                 2.9657                 3.8940
 Frc consts  --      1.1312                 1.5326                 2.6935
 IR Inten    --     42.5581                18.6803                28.3169

                     22                     23                     24
                      A                      A                      A
 Frequencies --   1111.5638              1165.4451              1295.1657
 Red. masses --      2.1306                 1.8469                 2.8473
 Frc consts  --      1.5510                 1.4780                 2.8141
 IR Inten    --     20.8184                14.0415               439.4993

                     25                     26                     27
                      A                      A                      A
 Frequencies --   1339.0173              1353.4201              1398.1762
 Red. masses --      1.2217                 1.1114                 1.3456
 Frc consts  --      1.2906                 1.1995                 1.5499
 IR Inten    --    130.2449                22.6011                68.4865

                     28                     29                     30
                      A                      A                      A
 Frequencies --   1435.7005              1449.9555              1504.1474
 Red. masses --      1.3988                 1.0770                 1.1051
 Frc consts  --      1.6988                 1.3341                 1.4731
 IR Inten    --     30.0946                 3.6457                21.8144

                     31                     32                     33
                      A                      A                      A
 Frequencies --   1816.8458              2059.5534              2271.5919
 Red. masses --     10.8474                 1.1333                 5.7391
 Frc consts  --     21.0965                 2.8323                17.4484
 IR Inten    --    252.8189               979.9082                86.8669

                     34                     35                     36
                      A                      A                      A
 Frequencies --   3102.6113              3103.6958              3157.4016
 Red. masses --      1.0563                 1.0609                 1.1077
 Frc consts  --      5.9911                 6.0210                 6.5062
 IR Inten    --      7.4631                16.6425                 6.2711

                     37                     38                     39
                      A                      A                      A
 Frequencies --   3171.3521              3490.2934              3724.4288
 Red. masses --      1.1053                 1.1715                 1.0665
 Frc consts  --      6.5497                 8.4083                 8.7167
 IR Inten    --      6.7649                63.2850               144.8150

 - Thermochemistry -
 -------------------
 Temperature   298.150 Kelvin.  Pressure   1.00000 Atm.
 Atom     1 has atomic number  8 and mass  15.99491

 Molecular mass:   115.03952 amu.
 Principal axes and moments of inertia in atomic units:
                           1         2         3
     Eigenvalues --   545.464581519.840621857.49090
           X            0.99965  -0.02631   0.00295
           Y            0.02632   0.99964  -0.00422
           Z           -0.00284   0.00430   0.99999
 This molecule is an asymmetric top.
 Rotational symmetry number  1.
 Warning -- assumption of classical behavior for rotation
           may cause significant error
 Rotational temperatures (Kelvin)      0.15879     0.05699     0.04663
 Rotational constants (GHZ):           3.30863     1.18745     0.97160
    2 imaginary frequencies ignored.
 Zero-point vibrational energy     286502.8 (Joules/Mol)
                                   68.47582 (Kcal/Mol)
 Warning -- explicit consideration of  11 degrees of freedom as
           vibrations may cause significant error
 Vibrational temperatures:     46.35   115.53   151.75   204.88   276.64
          (Kelvin)            392.90   482.49   600.10   614.27   810.98
                              878.37   999.48  1073.77  1121.66  1136.36
                             1219.21  1283.48  1347.46  1558.95  1599.29
                             1676.82  1863.45  1926.55  1947.27  2011.66
                             2065.65  2086.16  2164.13  2614.04  2963.24
                             3268.31  4463.97  4465.53  4542.80  4562.87
                             5021.75  5358.62

 Zero-point correction=                           0.109123 (Hartree/Particle)
 Thermal correction to Energy=                    0.117971
 Thermal correction to Enthalpy=                  0.118915
 Thermal correction to Gibbs Free Energy=         0.073530
 Sum of electronic and zero-point Energies=           -420.092913
 Sum of electronic and thermal Energies=              -420.084065
 Sum of electronic and thermal Enthalpies=            -420.083120
 Sum of electronic and thermal Free Energies=         -420.128506

                     E (Thermal)             CV                S
                      KCal/Mol        Cal/Mol-Kelvin    Cal/Mol-Kelvin
 Total                   74.028             29.978             95.521
 Electronic               0.000              0.000              1.377
 Translational            0.889              2.981             40.136
 Rotational               0.889              2.981             28.823
 Vibrational             72.251             24.017             25.186
 Vibration     1          0.594              1.983              5.688
 Vibration     2          0.600              1.963              3.884
 Vibration     3          0.605              1.945              3.351
 Vibration     4          0.616              1.911              2.771
 Vibration     5          0.634              1.851              2.206
 Vibration     6          0.676              1.723              1.577
 Vibration     7          0.716              1.605              1.234
 Vibration     8          0.780              1.433              0.902
 Vibration     9          0.789              1.412              0.869
 Vibration    10          0.919              1.110              0.517
 Vibration    11          0.970              1.010              0.432

 1\1\GINC-AJ\Freq\UM062X\6-311++G(d,p)\C5H7O3(2)\AAYUSH\16-Aug-2025\0\\
 # freq 6-311++g(d,p) m062x\\Title Card Required\\0,2\O,2.344686,1.6885
 46,-0.327596\H,1.526937,1.772905,0.198308\C,-3.317497,0.189287,-0.5162
 41\H,-4.333433,0.261597,-0.82765\C,-2.175324,0.107412,-0.165093\C,-0.7
 90336,0.059981,0.272956\O,-0.228675,0.987017,0.798175\O,-0.245974,-1.1
 2515,0.027297\C,1.122222,-1.321794,0.443581\C,2.099838,-0.830732,-0.59
 5044\H,1.199134,-2.401197,0.568902\H,1.273211,-0.835708,1.408577\H,3.1
 04729,-1.1983,-0.384399\H,1.798963,-1.112171,-1.60472\H,2.199192,0.287

 Normal termination of Gaussian 16 at Sat Aug 16 16:02:45 2025.
