 Gaussian 16, Revision A.03,
 Gaussian 16:  ES64L-G16RevA.03 25-Dec-2016

 -------------------
 # freq 6-31+g m062x
 -------------------

 -------------------
 Title Card Required
 -------------------
 Symbolic Z-matrix:
 Charge =  0 Multiplicity = 2

                         Standard orientation:
 ---------------------------------------------------------------------
 Center     Atomic      Atomic             Coordinates (Angstroms)
 Number     Number       Type             X           Y           Z
 ---------------------------------------------------------------------
      1          8           0        2.289090    1.729440   -0.321903
      2          1           0        1.468613    1.801842    0.202631
      3          6           0       -3.372544    0.210907   -0.507613
      4          1           0       -4.388477    0.280775   -0.819588
      5          6           0       -2.230364    0.131736   -0.155791
      6          6           0       -0.845137    0.086996    0.282434
      7          8           0       -0.284192    1.017512    0.803195
      8          8           0       -0.300541   -1.098214    0.042483
      9          6           0        1.067999   -1.294372    0.460605
     10          6           0        2.045509   -0.815175   -0.584024
     11          1           0        1.141777   -2.372676    0.594583
     12          1           0        1.218945   -0.800433    1.421510
     13          1           0        3.048294   -1.184914   -0.366826
     14          1           0        1.745571   -1.123936   -1.586169
     15          1           0        2.137650    0.288885   -0.610000
 ---------------------------------------------------------------------

 SCF Done:  E(UM062X) =  -419.957717646     A.U. after   22 cycles

 The electronic state is 2-A.
 Alpha  occ. eigenvalues --  -19.72302 -19.68506 -19.68113 -10.74804 -10.62860
 Alpha  occ. eigenvalues --  -10.59620 -10.59270 -10.55548  -1.29713  -1.20229
 Alpha  occ. eigenvalues --   -1.13507  -0.92386  -0.88848  -0.80035  -0.72522
 Alpha  occ. eigenvalues --   -0.66206  -0.62416  -0.60525  -0.59595  -0.57020
 Alpha  occ. eigenvalues --   -0.53949  -0.51551  -0.49455  -0.48439  -0.44871
 Alpha  occ. eigenvalues --   -0.41473  -0.41069  -0.40262  -0.38515  -0.37864
 Alpha  occ. eigenvalues --   -0.37684
 Alpha virt. eigenvalues --   -0.03161   0.01633   0.02035   0.03493   0.03701
 Alpha virt. eigenvalues --    0.04150   0.04711   0.06212   0.07336   0.07801
 Alpha virt. eigenvalues --    0.08505   0.08642   0.09471   0.11095   0.12118

  Beta  occ. eigenvalues --  -19.72302 -19.68117 -19.66964 -10.74805 -10.62871
  Beta  occ. eigenvalues --  -10.59620 -10.59270 -10.55309  -1.29712  -1.20225
  Beta  occ. eigenvalues --   -1.06952  -0.92248  -0.88621  -0.79558  -0.72227
  Beta  occ. eigenvalues --   -0.66141  -0.62390  -0.60350  -0.59246  -0.55135
  Beta  occ. eigenvalues --   -0.51868  -0.49918  -0.48172  -0.45929  -0.43150
  Beta  occ. eigenvalues --   -0.40971  -0.39741  -0.38524  -0.37837  -0.37681
  Beta virt. eigenvalues --   -0.09125  -0.03137   0.01649   0.02035   0.03509
  Beta virt. eigenvalues --    0.03709   0.04270   0.04800   0.06263   0.07353
  Beta virt. eigenvalues --    0.07881   0.08587   0.08819   0.09687   0.11287

 Mulliken charges and spin densities:
               1          2
     1  O   -0.456261   0.875763
     2  H    0.465399  -0.028016
     3  C    0.287015   0.009114
     4  H    0.349950   0.000005
     5  C    0.453796   0.016523
     6  C   -0.759698  -0.019868
     7  O   -0.445387  -0.000958
     8  O   -0.214791  -0.000502
     9  C   -0.282889  -0.021094
    10  C   -0.537161   0.232153
    11  H    0.228619   0.007870
    12  H    0.239871   0.003078
    13  H    0.226131  -0.007204
    14  H    0.231961  -0.002954
    15  H    0.213445  -0.063910
 Sum of Mulliken charges =  -0.00000   1.00000

 Dipole moment (field-independent basis, Debye):
    X=             -2.1190    Y=             -2.5588    Z=              0.1648  Tot=              3.3264
 Quadrupole moment (field-independent basis, Debye-Ang):
   XX=            -41.3751   YY=            -51.1819   ZZ=            -48.5455
   XY=             -8.0080   XZ=              4.5536   YZ=             -0.9708

  Exact polarizability:  88.514  -2.121  68.919   8.146   2.828  48.396
 Approx polarizability:  93.894   0.537  74.329  13.360   7.037  54.157

 ******    5 imaginary frequencies (negative Signs) ******

                      1                      2                      3
                      A                      A                      A
 Frequencies --   -327.0819              -233.3990              -137.1571
 Red. masses --      1.0493                 1.8213                 2.1129
 Frc consts  --      0.0661                 0.0585                 0.0234
 IR Inten    --     51.1913                69.2929                10.7408

                      4                      5                      6
                      A                      A                      A
 Frequencies --    -66.1906               -45.7780                69.9402
 Red. masses --      3.6619                 3.5587                 3.2518
 Frc consts  --      0.0095                 0.0044                 0.0094
 IR Inten    --      3.8433                 5.9137                21.4677

                      7                      8                      9
                      A                      A                      A
 Frequencies --    118.5209               183.0711               255.9050
 Red. masses --      3.9163                 4.6739                 3.7342
 Frc consts  --      0.0324                 0.0923                 0.1441
 IR Inten    --      9.2726                 6.9231                 2.6486

                     10                     11                     12
                      A                      A                      A
 Frequencies --    310.4357               405.3962               561.2893
 Red. masses --      3.8066                 3.2921                 2.1113
 Frc consts  --      0.2161                 0.3188                 0.3919
 IR Inten    --     14.7952                12.4395                85.1625

                     13                     14                     15
                      A                      A                      A
 Frequencies --    584.7118               626.3488               782.5454
 Red. masses --      1.7641                 5.4986                 3.1787
 Frc consts  --      0.3554                 1.2710                 1.1469
 IR Inten    --    120.9762                24.7991                77.6620

                     16                     17                     18
                      A                      A                      A
 Frequencies --    812.6578               820.9904               874.6189
 Red. masses --      1.2958                 1.3175                 1.8840
 Frc consts  --      0.5042                 0.5232                 0.8491
 IR Inten    --      6.3648                79.5324                18.5200

                     19                     20                     21
                      A                      A                      A
 Frequencies --    893.7095               950.7337              1120.3610
 Red. masses --      3.3737                 2.7245                 3.7410
 Frc consts  --      1.5876                 1.4510                 2.7667
 IR Inten    --     23.5201                10.7942                 3.6769

                     22                     23                     24
                      A                      A                      A
 Frequencies --   1138.0933              1191.7553              1327.8581
 Red. masses --      2.2170                 1.8493                 1.5146
 Frc consts  --      1.6919                 1.5475                 1.5735
 IR Inten    --     26.2517                 8.0053               185.5028

                     25                     26                     27
                      A                      A                      A
 Frequencies --   1376.2126              1413.2051              1448.9127
 Red. masses --      2.0090                 1.1073                 1.4023
 Frc consts  --      2.2418                 1.3029                 1.7345
 IR Inten    --    366.6382                10.9952                87.9173

                     28                     29                     30
                      A                      A                      A
 Frequencies --   1461.9076              1493.6048              1537.6404
 Red. masses --      1.3053                 1.0645                 1.1009
 Frc consts  --      1.6437                 1.3991                 1.5336
 IR Inten    --     28.0159                 3.7639                24.7927

                     31                     32                     33
                      A                      A                      A
 Frequencies --   1885.1350              2334.7843              2529.7464
 Red. masses --     12.0019                 5.5426                 1.0842
 Frc consts  --     25.1295                17.8015                 4.0880
 IR Inten    --    293.7164                89.0943               657.5595

                     34                     35                     36
                      A                      A                      A
 Frequencies --   3134.5053              3138.0115              3193.0150
 Red. masses --      1.0582                 1.0599                 1.1055
 Frc consts  --      6.1257                 6.1495                 6.6409
 IR Inten    --     16.3417                14.6074                 8.7051

                     37                     38                     39
                      A                      A                      A
 Frequencies --   3207.4239              3532.9315              3732.6487
 Red. masses --      1.1026                 1.1797                 1.0661
 Frc consts  --      6.6832                 8.6754                 8.7517
 IR Inten    --      9.8414                55.0428                85.6435

 - Thermochemistry -
 -------------------
 Temperature   298.150 Kelvin.  Pressure   1.00000 Atm.
 Atom     1 has atomic number  8 and mass  15.99491

 Molecular mass:   115.03952 amu.
 Principal axes and moments of inertia in atomic units:
                           1         2         3
     Eigenvalues --   549.564781519.890881861.43409
           X            0.99963  -0.02693   0.00290
           Y            0.02694   0.99963  -0.00374
           Z           -0.00280   0.00382   0.99999
 This molecule is an asymmetric top.
 Rotational symmetry number  1.
 Warning -- assumption of classical behavior for rotation
           may cause significant error
 Rotational temperatures (Kelvin)      0.15760     0.05699     0.04653
 Rotational constants (GHZ):           3.28395     1.18741     0.96954
    5 imaginary frequencies ignored.
 Zero-point vibrational energy     289787.1 (Joules/Mol)
                                   69.26079 (Kcal/Mol)
 Warning -- explicit consideration of   8 degrees of freedom as
           vibrations may cause significant error
 Vibrational temperatures:    100.63   170.53   263.40   368.19   446.65
          (Kelvin)            583.27   807.57   841.27   901.18  1125.91
                             1169.23  1181.22  1258.38  1285.85  1367.89
                             1611.95  1637.46  1714.67  1910.49  1980.06
                             2033.29  2084.66  2103.36  2148.96  2212.32
                             2712.29  3359.23  3639.74  4509.85  4514.90
                             4594.04  4614.77  5083.10  5370.45

 Zero-point correction=                           0.110374 (Hartree/Particle)
 Thermal correction to Energy=                    0.117474
 Thermal correction to Enthalpy=                  0.118418
 Thermal correction to Gibbs Free Energy=         0.077268
 Sum of electronic and zero-point Energies=           -419.847344
 Sum of electronic and thermal Energies=              -419.840243
 Sum of electronic and thermal Enthalpies=            -419.839299
 Sum of electronic and thermal Free Energies=         -419.880450

                     E (Thermal)             CV                S
                      KCal/Mol        Cal/Mol-Kelvin    Cal/Mol-Kelvin
 Total                   73.716             24.567             86.608
 Electronic               0.000              0.000              1.377
 Translational            0.889              2.981             40.136
 Rotational               0.889              2.981             28.832
 Vibrational             71.939             18.606             16.263
 Vibration     1          0.598              1.968              4.155
 Vibration     2          0.609              1.934              3.124
 Vibration     3          0.631              1.863              2.297
 Vibration     4          0.666              1.753              1.690
 Vibration     5          0.699              1.654              1.360
 Vibration     6          0.770              1.458              0.943
 Vibration     7          0.917              1.115              0.521
 Vibration     8          0.942              1.064              0.477

 Normal termination of Gaussian 16 at Fri Jun 20 13:02:00 2025.
