 Gaussian 16, Revision A.03,
 Gaussian 16:  ES64L-G16RevA.03 25-Dec-2016

 --------------------------
 # freq 6-311++g(d,p) m062x
 --------------------------

 -------------------
 Title Card Required
 -------------------
 Symbolic Z-matrix:
 Charge =  0 Multiplicity = 2

                         Standard orientation:
 ---------------------------------------------------------------------
 Center     Atomic      Atomic             Coordinates (Angstroms)
 Number     Number       Type             X           Y           Z
 ---------------------------------------------------------------------
      1          8           0        2.288109    1.689442   -0.320982
      2          1           0        1.478341    1.799936    0.205771
      3          6           0       -3.372925    0.215318   -0.506195
      4          1           0       -4.388882    0.288612   -0.817397
      5          6           0       -2.230777    0.132504   -0.155320
      6          6           0       -0.846439    0.085768    0.283233
      7          8           0       -0.284424    1.010036    0.809235
      8          8           0       -0.300848   -1.101737    0.036049
      9          6           0        1.065737   -1.294158    0.451241
     10          6           0        2.043293   -0.799370   -0.582298
     11          1           0        1.150331   -2.375507    0.571703
     12          1           0        1.218809   -0.813639    1.419072
     13          1           0        3.057869   -1.137767   -0.374161
     14          1           0        1.741788   -1.032039   -1.603107
     15          1           0        2.165717    0.448105   -0.540259
 ---------------------------------------------------------------------

 SCF Done:  E(UM062X) =  -420.201437504     A.U. after   20 cycles

 The electronic state is 2-A.
 Alpha  occ. eigenvalues --  -19.70107 -19.64929 -19.63169 -10.72453 -10.62637
 Alpha  occ. eigenvalues --  -10.58088 -10.57607 -10.57121  -1.27491  -1.18154
 Alpha  occ. eigenvalues --   -1.10669  -0.92045  -0.88435  -0.79781  -0.72129
 Alpha  occ. eigenvalues --   -0.66377  -0.62197  -0.60749  -0.59432  -0.57010
 Alpha  occ. eigenvalues --   -0.53886  -0.50986  -0.49704  -0.48747  -0.45612
 Alpha  occ. eigenvalues --   -0.41213  -0.40708  -0.39163  -0.38259  -0.37435
 Alpha  occ. eigenvalues --   -0.33631
 Alpha virt. eigenvalues --   -0.02963  -0.00594   0.00344   0.01522   0.02303
 Alpha virt. eigenvalues --    0.02829   0.03344   0.05032   0.05513   0.06418
 Alpha virt. eigenvalues --    0.06745   0.07297   0.07717   0.09243   0.09985

  Beta  occ. eigenvalues --  -19.70106 -19.64932 -19.62044 -10.72454 -10.62658
  Beta  occ. eigenvalues --  -10.58088 -10.57607 -10.56660  -1.27486  -1.18147
  Beta  occ. eigenvalues --   -1.06373  -0.91701  -0.87977  -0.78890  -0.71553
  Beta  occ. eigenvalues --   -0.66232  -0.62150  -0.60527  -0.58850  -0.54519
  Beta  occ. eigenvalues --   -0.52214  -0.49969  -0.48709  -0.46011  -0.43314
  Beta  occ. eigenvalues --   -0.41073  -0.39997  -0.38267  -0.37389  -0.36615
  Beta virt. eigenvalues --   -0.09849  -0.02940  -0.00518   0.00370   0.01666
  Beta virt. eigenvalues --    0.02476   0.02979   0.03354   0.05352   0.05613
  Beta virt. eigenvalues --    0.06494   0.07035   0.07414   0.07764   0.09449

 Mulliken charges and spin densities:
               1          2
     1  O   -0.383726   0.581713
     2  H    0.265892   0.000191
     3  C   -0.635039  -0.000927
     4  H    0.182268  -0.000001
     5  C    1.218289   0.005033
     6  C   -0.656830   0.008218
     7  O   -0.271025  -0.004232
     8  O    0.027695   0.000246
     9  C   -0.424797  -0.041095
    10  C   -0.452043   0.505205
    11  H    0.202261   0.025157
    12  H    0.236109   0.009064
    13  H    0.187984  -0.016195
    14  H    0.207275  -0.007652
    15  H    0.295687  -0.064725
 Sum of Mulliken charges =  -0.00000   1.00000

 Dipole moment (field-independent basis, Debye):
    X=             -2.0404    Y=             -3.4216    Z=             -0.0413  Tot=              3.9840
 Quadrupole moment (field-independent basis, Debye-Ang):
   XX=            -40.5396   YY=            -51.4577   ZZ=            -47.8143
   XY=             -9.3398   XZ=              4.0645   YZ=             -0.5787

  Exact polarizability:  93.374  -0.397  78.526   7.621   2.443  52.226
 Approx polarizability: 100.317   1.647  90.282  12.270   6.195  63.301

 ******    1 imaginary frequencies (negative Signs) ******

                      1                      2                      3
                      A                      A                      A
 Frequencies --  -1679.5771                46.9612                96.2249
 Red. masses --      1.0767                 8.2066                 3.8095
 Frc consts  --      1.7896                 0.0107                 0.0208
 IR Inten    --    863.8603                 2.2762                 3.2058

                      4                      5                      6
                      A                      A                      A
 Frequencies --    119.9699               180.8124               192.1075
 Red. masses --      4.8129                 3.7140                 6.2254
 Frc consts  --      0.0408                 0.0715                 0.1354
 IR Inten    --      3.6844                 0.5241                 6.8292

                      7                      8                      9
                      A                      A                      A
 Frequencies --    273.5269               335.8769               378.4596
 Red. masses --      4.3206                 3.1104                 1.1814
 Frc consts  --      0.1905                 0.2067                 0.0997
 IR Inten    --      2.2989                11.0647                30.0130

                     10                     11                     12
                      A                      A                      A
 Frequencies --    414.7654               459.1714               570.3550
 Red. masses --      1.4539                 1.8968                 3.6167
 Frc consts  --      0.1474                 0.2356                 0.6932
 IR Inten    --     58.4124                13.1608                 1.4193

                     13                     14                     15
                      A                      A                      A
 Frequencies --    588.0487               613.4269               747.4023
 Red. masses --      3.5255                 7.2233                 1.3141
 Frc consts  --      0.7183                 1.6014                 0.4325
 IR Inten    --      9.5968                 6.9851                39.6954

                     16                     17                     18
                      A                      A                      A
 Frequencies --    776.6747               780.5824               789.5829
 Red. masses --      1.3211                 1.3496                 4.6869
 Frc consts  --      0.4695                 0.4845                 1.7216
 IR Inten    --     97.1001                28.9109                58.8221

                     19                     20                     21
                      A                      A                      A
 Frequencies --    877.0275               919.1513               963.1518
 Red. masses --      2.7696                 1.9835                 1.8057
 Frc consts  --      1.2552                 0.9873                 0.9869
 IR Inten    --      5.5462                15.4693                29.6294

                     22                     23                     24
                      A                      A                      A
 Frequencies --   1088.8400              1129.9706              1173.0775
 Red. masses --      3.6563                 2.0802                 1.5161
 Frc consts  --      2.5540                 1.5649                 1.2293
 IR Inten    --     33.7602                25.1252                17.5711

                     25                     26                     27
                      A                      A                      A
 Frequencies --   1234.0561              1286.7060              1345.1619
 Red. masses --      1.0927                 2.4761                 1.5333
 Frc consts  --      0.9805                 2.4153                 1.6347
 IR Inten    --     25.5255               412.1278               234.2361

                     28                     29                     30
                      A                      A                      A
 Frequencies --   1415.3751              1439.0506              1448.0236
 Red. masses --      1.3121                 1.0872                 1.1849
 Frc consts  --      1.5487                 1.3266                 1.4638
 IR Inten    --     43.9706                88.0124                 6.9911

                     31                     32                     33
                      A                      A                      A
 Frequencies --   1492.5445              1826.0150              2272.0540
 Red. masses --      1.1021                11.8544                 5.7382
 Frc consts  --      1.4465                23.2884                17.4527
 IR Inten    --     24.2229               315.1198                88.2765

                     34                     35                     36
                      A                      A                      A
 Frequencies --   3092.2231              3111.3792              3143.5876
 Red. masses --      1.0578                 1.0564                 1.1072
 Frc consts  --      5.9593                 6.0253                 6.4463
 IR Inten    --     12.2314                 3.0653                 2.0022

                     37                     38                     39
                      A                      A                      A
 Frequencies --   3191.4398              3490.1554              3775.8914
 Red. masses --      1.1093                 1.1716                 1.0662
 Frc consts  --      6.6567                 8.4084                 8.9560
 IR Inten    --      2.9155                63.3356               135.7672

 - Thermochemistry -
 -------------------
 Temperature   298.150 Kelvin.  Pressure   1.00000 Atm.
 Atom     1 has atomic number  8 and mass  15.99491

 Molecular mass:   115.03952 amu.
 Principal axes and moments of inertia in atomic units:
                           1         2         3
     Eigenvalues --   539.683551519.771501851.86633
           X            0.99970  -0.02447   0.00309
           Y            0.02448   0.99968  -0.00567
           Z           -0.00295   0.00574   0.99998
 This molecule is an asymmetric top.
 Rotational symmetry number  1.
 Warning -- assumption of classical behavior for rotation
           may cause significant error
 Rotational temperatures (Kelvin)      0.16049     0.05699     0.04677
 Rotational constants (GHZ):           3.34407     1.18751     0.97455
    1 imaginary frequencies ignored.
 Zero-point vibrational energy     281593.9 (Joules/Mol)
                                   67.30257 (Kcal/Mol)
 Warning -- explicit consideration of  13 degrees of freedom as
           vibrations may cause significant error
 Vibrational temperatures:     67.57   138.45   172.61   260.15   276.40
          (Kelvin)            393.54   483.25   544.52   596.75   660.65
                              820.61   846.07   882.58  1075.35  1117.46
                             1123.08  1136.03  1261.85  1322.45  1385.76
                             1566.60  1625.78  1687.80  1775.53  1851.28
                             1935.39  2036.41  2070.47  2083.38  2147.44
                             2627.23  3268.98  4449.02  4476.58  4522.92
                             4591.77  5021.56  5432.67

 Zero-point correction=                           0.107253 (Hartree/Particle)
 Thermal correction to Energy=                    0.116367
 Thermal correction to Enthalpy=                  0.117311
 Thermal correction to Gibbs Free Energy=         0.072183
 Sum of electronic and zero-point Energies=           -420.094184
 Sum of electronic and thermal Energies=              -420.085070
 Sum of electronic and thermal Enthalpies=            -420.084126
 Sum of electronic and thermal Free Energies=         -420.129254

                     E (Thermal)             CV                S
                      KCal/Mol        Cal/Mol-Kelvin    Cal/Mol-Kelvin
 Total                   73.021             32.148             94.980
 Electronic               0.000              0.000              1.377
 Translational            0.889              2.981             40.136
 Rotational               0.889              2.981             28.809
 Vibrational             71.244             26.186             24.658
 Vibration     1          0.595              1.979              4.941
 Vibration     2          0.603              1.952              3.529
 Vibration     3          0.609              1.933              3.101
 Vibration     4          0.630              1.866              2.320
 Vibration     5          0.634              1.851              2.207
 Vibration     6          0.676              1.722              1.574
 Vibration     7          0.717              1.604              1.232
 Vibration     8          0.749              1.516              1.045
 Vibration     9          0.778              1.438              0.910
 Vibration    10          0.817              1.341              0.769
 Vibration    11          0.926              1.095              0.504
 Vibration    12          0.945              1.057              0.471
 Vibration    13          0.973              1.003              0.427

 1\1\GINC-AJ\Freq\UM062X\6-311++G(d,p)\C5H7O3(2)\AAYUSH\16-Aug-2025\0\\
 # freq 6-311++g(d,p) m062x\\Title Card Required\\0,2\O,2.342887,1.6659
 3,-0.331929\H,1.533051,1.776469,0.194711\C,-3.317507,0.18924,-0.516258
 \H,-4.333483,0.261866,-0.827554\C,-2.175337,0.107177,-0.165278\C,-0.79
 0996,0.061362,0.273362\O,-0.229398,0.986263,0.798696\O,-0.244886,-1.12
 6092,0.027084\C,1.121766,-1.317617,0.442472\C,2.099149,-0.823181,-0.59
 1399\H,1.206819,-2.39884,0.563743\H,1.274594,-0.836312,1.40995\H,3.113
 862,-1.160987,-0.382971\H,1.797783,-1.05674,-1.612046\H,2.221036,0.424

 Normal termination of Gaussian 16 at Sat Aug 16 15:46:40 2025.
