 Gaussian 16, Revision A.03,
 Gaussian 16:  ES64L-G16RevA.03 25-Dec-2016

 --------------------------
 # ccsd(t)/6-311++g(d,p) sp
 --------------------------

 -------------------
 Title Card Required
 -------------------
 Symbolic Z-matrix:
 Charge =  0 Multiplicity = 2

                         Standard orientation:
 ---------------------------------------------------------------------
 Center     Atomic      Atomic             Coordinates (Angstroms)
 Number     Number       Type             X           Y           Z
 ---------------------------------------------------------------------
      1          8           0        2.288109    1.689442   -0.320982
      2          1           0        1.478341    1.799936    0.205771
      3          6           0       -3.372925    0.215318   -0.506195
      4          1           0       -4.388882    0.288612   -0.817397
      5          6           0       -2.230777    0.132504   -0.155320
      6          6           0       -0.846439    0.085768    0.283233
      7          8           0       -0.284424    1.010036    0.809235
      8          8           0       -0.300848   -1.101737    0.036049
      9          6           0        1.065737   -1.294158    0.451241
     10          6           0        2.043293   -0.799370   -0.582298
     11          1           0        1.150331   -2.375507    0.571703
     12          1           0        1.218809   -0.813639    1.419072
     13          1           0        3.057869   -1.137767   -0.374161
     14          1           0        1.741788   -1.032039   -1.603107
     15          1           0        2.165717    0.448105   -0.540259
 ---------------------------------------------------------------------

 SCF Done:  E(UHF) =  -417.962939228     A.U. after   33 cycles
 E2 =    -0.1284486346D+01 EUMP2 =    -0.41924742557383D+03
 CCSD(T)= -0.41934958896D+03

 The electronic state is 2-A.
 Alpha  occ. eigenvalues --  -20.63051 -20.59626 -20.57879 -11.43550 -11.31114
 Alpha  occ. eigenvalues --  -11.27767 -11.26926 -11.25080  -1.50043  -1.39956
 Alpha  occ. eigenvalues --   -1.36536  -1.09199  -1.05562  -0.94230  -0.85392
 Alpha  occ. eigenvalues --   -0.78129  -0.74050  -0.72441  -0.70814  -0.68244
 Alpha  occ. eigenvalues --   -0.64347  -0.62487  -0.59130  -0.57169  -0.54501
 Alpha  occ. eigenvalues --   -0.52586  -0.50405  -0.48904  -0.43770  -0.43604
 Alpha  occ. eigenvalues --   -0.43112
 Alpha virt. eigenvalues --    0.03502   0.04323   0.05939   0.06786   0.07350
 Alpha virt. eigenvalues --    0.07557   0.09485   0.10269   0.11053   0.11555
 Alpha virt. eigenvalues --    0.12220   0.13739   0.14164   0.15060   0.16213

  Beta  occ. eigenvalues --  -20.63048 -20.57888 -20.56244 -11.43553 -11.31224
  Beta  occ. eigenvalues --  -11.27771 -11.26922 -11.23665  -1.50043  -1.39946
  Beta  occ. eigenvalues --   -1.24662  -1.08896  -1.04253  -0.92559  -0.84145
  Beta  occ. eigenvalues --   -0.78013  -0.73998  -0.71915  -0.68703  -0.63670
  Beta  occ. eigenvalues --   -0.62487  -0.58770  -0.56780  -0.54372  -0.50935
  Beta  occ. eigenvalues --   -0.49353  -0.48435  -0.47046  -0.43723  -0.43588
  Beta virt. eigenvalues --    0.03507   0.04320   0.05591   0.06186   0.06939
  Beta virt. eigenvalues --    0.07362   0.07774   0.09973   0.10680   0.11060
  Beta virt. eigenvalues --    0.12227   0.12327   0.13778   0.14169   0.15254

 Mulliken charges and spin densities:
               1          2
     1  O   -0.348662   0.748541
     2  H    0.289710  -0.013328
     3  C   -0.699155  -0.002704
     4  H    0.205718   0.000137
     5  C    1.378342   0.005734
     6  C   -0.683845   0.010692
     7  O   -0.347561  -0.005123
     8  O   -0.054699  -0.000155
     9  C   -0.296351  -0.084708
    10  C   -0.417170   0.573860
    11  H    0.166859   0.021859
    12  H    0.212109   0.012093
    13  H    0.149422  -0.032151
    14  H    0.179984  -0.024121
    15  H    0.265299  -0.210625
 Sum of Mulliken charges =  -0.00000   1.00000

 Dipole moment (field-independent basis, Debye):
    X=             -2.1369    Y=             -2.7718    Z=             -0.0437  Tot=              3.5001
 Quadrupole moment (field-independent basis, Debye-Ang):
   XX=            -39.8019   YY=            -51.1033   ZZ=            -48.1126
   XY=             -7.7908   XZ=              4.5780   YZ=             -0.9646

 3-0=-419.2727725\MP4SDQ=-419.2951745\CCSD=-419.2946914\CCSD(T)=-419.34
 Normal termination of Gaussian 16 at Thu Aug 21 10:06:02 2025.
