 Gaussian 16, Revision A.03,
 Gaussian 16:  ES64L-G16RevA.03 25-Dec-2016

 -------------------
 # freq 6-31+g m062x
 -------------------

 -------------------
 Title Card Required
 -------------------
 Symbolic Z-matrix:
 Charge =  0 Multiplicity = 2

                         Standard orientation:
 ---------------------------------------------------------------------
 Center     Atomic      Atomic             Coordinates (Angstroms)
 Number     Number       Type             X           Y           Z
 ---------------------------------------------------------------------
      1          8           0        2.288241    1.687034   -0.320814
      2          1           0        1.479613    1.800218    0.205909
      3          6           0       -3.372932    0.215955   -0.506095
      4          1           0       -4.388881    0.289598   -0.817250
      5          6           0       -2.230795    0.132761   -0.155276
      6          6           0       -0.846511    0.085720    0.283285
      7          8           0       -0.284270    1.009510    0.809542
      8          8           0       -0.301065   -1.102046    0.035674
      9          6           0        1.065340   -1.294496    0.450724
     10          6           0        2.042870   -0.800789   -0.582467
     11          1           0        1.150283   -2.376196    0.570749
     12          1           0        1.218775   -0.814657    1.418916
     13          1           0        3.058566   -1.135104   -0.374207
     14          1           0        1.741212   -1.028222   -1.604237
     15          1           0        2.169344    0.473481   -0.536117
 ---------------------------------------------------------------------

 SCF Done:  E(UM062X) =  -419.952623987     A.U. after   23 cycles

 The electronic state is 2-A.
 Alpha  occ. eigenvalues --  -19.72682 -19.68331 -19.65508 -10.74993 -10.63833
 Alpha  occ. eigenvalues --  -10.59774 -10.59415 -10.58172  -1.30038  -1.20597
 Alpha  occ. eigenvalues --   -1.11997  -0.92901  -0.89311  -0.80457  -0.72856
 Alpha  occ. eigenvalues --   -0.66822  -0.62569  -0.60875  -0.60185  -0.57589
 Alpha  occ. eigenvalues --   -0.54383  -0.51340  -0.50045  -0.48464  -0.45592
 Alpha  occ. eigenvalues --   -0.41362  -0.40721  -0.38974  -0.38601  -0.37916
 Alpha  occ. eigenvalues --   -0.33193
 Alpha virt. eigenvalues --   -0.03325   0.01368   0.01938   0.03249   0.03447
 Alpha virt. eigenvalues --    0.04039   0.04599   0.06063   0.07186   0.07596
 Alpha virt. eigenvalues --    0.08201   0.08710   0.09389   0.11032   0.11948

  Beta  occ. eigenvalues --  -19.72681 -19.68334 -19.64387 -10.74994 -10.63860
  Beta  occ. eigenvalues --  -10.59774 -10.59415 -10.57662  -1.30034  -1.20590
  Beta  occ. eigenvalues --   -1.08085  -0.92564  -0.88867  -0.79525  -0.72293
  Beta  occ. eigenvalues --   -0.66648  -0.62530  -0.60606  -0.59623  -0.55201
  Beta  occ. eigenvalues --   -0.52787  -0.50352  -0.49126  -0.45699  -0.43405
  Beta  occ. eigenvalues --   -0.41171  -0.39938  -0.38639  -0.37837  -0.36475
  Beta virt. eigenvalues --   -0.09968  -0.03300   0.01307   0.01928   0.03220
  Beta virt. eigenvalues --    0.03408   0.04105   0.04655   0.06104   0.07117
  Beta virt. eigenvalues --    0.07665   0.08309   0.08879   0.09524   0.11183

 Mulliken charges and spin densities:
               1          2
     1  O   -0.582608   0.577308
     2  H    0.469068  -0.013553
     3  C    0.294489   0.009354
     4  H    0.350739   0.000018
     5  C    0.464786   0.022451
     6  C   -0.772413  -0.017060
     7  O   -0.444106  -0.006245
     8  O   -0.215089  -0.000284
     9  C   -0.289017  -0.050327
    10  C   -0.512266   0.575926
    11  H    0.238211   0.025890
    12  H    0.249321   0.010039
    13  H    0.238196  -0.020857
    14  H    0.243890  -0.015508
    15  H    0.266800  -0.097153
 Sum of Mulliken charges =  -0.00000   1.00000

 Dipole moment (field-independent basis, Debye):
    X=             -2.3219    Y=             -3.5614    Z=              0.1210  Tot=              4.2531
 Quadrupole moment (field-independent basis, Debye-Ang):
   XX=            -41.6973   YY=            -52.7295   ZZ=            -48.2918
   XY=            -10.5625   XZ=              4.3627   YZ=             -0.6679

  Exact polarizability:  88.942  -0.263  75.353   8.004   2.894  48.570
 Approx polarizability:  94.337   2.332  84.332  13.347   7.542  54.634

 ******    3 imaginary frequencies (negative Signs) ******

                      1                      2                      3
                      A                      A                      A
 Frequencies --  -1472.6594              -321.4172               -82.9078
 Red. masses --      1.0868                 1.0986                 5.5895
 Frc consts  --      1.3887                 0.0669                 0.0226
 IR Inten    --    793.8650               114.0428                 0.1273

                      4                      5                      6
                      A                      A                      A
 Frequencies --     42.0437                86.3549               128.0295
 Red. masses --      4.6020                 4.3042                 3.3037
 Frc consts  --      0.0048                 0.0189                 0.0319
 IR Inten    --      7.2576                 8.8159                 0.9846

                      7                      8                      9
                      A                      A                      A
 Frequencies --    170.4881               255.8498               313.8179
 Red. masses --      6.0005                 3.6550                 3.1953
 Frc consts  --      0.1028                 0.1410                 0.1854
 IR Inten    --     12.8807                 2.1314                17.3175

                     10                     11                     12
                      A                      A                      A
 Frequencies --    387.0128               432.1186               564.9519
 Red. masses --      1.3889                 2.2493                 3.9230
 Frc consts  --      0.1226                 0.2475                 0.7377
 IR Inten    --     17.3332                18.5525                 5.2407

                     13                     14                     15
                      A                      A                      A
 Frequencies --    576.2489               627.9902               725.8062
 Red. masses --      3.7625                 5.6215                 1.1939
 Frc consts  --      0.7361                 1.3062                 0.3706
 IR Inten    --      0.5432                13.6867               175.0994

                     16                     17                     18
                      A                      A                      A
 Frequencies --    782.3132               818.1748               874.1185
 Red. masses --      3.2848                 1.4243                 2.4222
 Frc consts  --      1.1844                 0.5618                 1.0904
 IR Inten    --     73.5410                55.0548                13.2570

                     19                     20                     21
                      A                      A                      A
 Frequencies --    875.6039               930.3620               971.4668
 Red. masses --      2.2795                 1.8661                 1.8766
 Frc consts  --      1.0297                 0.9517                 1.0435
 IR Inten    --     16.1358                18.0694                18.0986

                     22                     23                     24
                      A                      A                      A
 Frequencies --   1130.5709              1148.9471              1186.7310
 Red. masses --      3.6326                 2.1541                 1.5101
 Frc consts  --      2.7357                 1.6754                 1.2530
 IR Inten    --     15.5155                30.6227                17.7755

                     25                     26                     27
                      A                      A                      A
 Frequencies --   1244.1392              1312.4476              1376.4565
 Red. masses --      1.0983                 1.5137                 2.3429
 Frc consts  --      1.0016                 1.5362                 2.6153
 IR Inten    --     34.9194               200.1230               382.5439

                     28                     29                     30
                      A                      A                      A
 Frequencies --   1442.2444              1475.3665              1523.4419
 Red. masses --      1.4568                 1.1255                 1.0988
 Frc consts  --      1.7853                 1.4435                 1.5025
 IR Inten    --     72.5546                11.5341                38.6372

                     31                     32                     33
                      A                      A                      A
 Frequencies --   1531.4003              1895.2284              2335.4884
 Red. masses --      1.0603                12.1698                 5.5412
 Frc consts  --      1.4650                25.7547                17.8079
 IR Inten    --    194.8399               285.8760                91.0705

                     34                     35                     36
                      A                      A                      A
 Frequencies --   3118.9922              3150.3722              3173.8932
 Red. masses --      1.0576                 1.0565                 1.1040
 Frc consts  --      6.0620                 6.1782                 6.5523
 IR Inten    --     12.8174                 3.6926                 2.7304

                     37                     38                     39
                      A                      A                      A
 Frequencies --   3236.6956              3532.7253              3805.4069
 Red. masses --      1.1080                 1.1799                 1.0650
 Frc consts  --      6.8387                 8.6756                 9.0862
 IR Inten    --      3.8485                55.1877                77.0637

 - Thermochemistry -
 -------------------
 Temperature   298.150 Kelvin.  Pressure   1.00000 Atm.
 Atom     1 has atomic number  8 and mass  15.99491

 Molecular mass:   115.03952 amu.
 Principal axes and moments of inertia in atomic units:
                           1         2         3
     Eigenvalues --   539.418101519.767931851.60585
           X            0.99970  -0.02421   0.00310
           Y            0.02423   0.99969  -0.00586
           Z           -0.00296   0.00594   0.99998
 This molecule is an asymmetric top.
 Rotational symmetry number  1.
 Warning -- assumption of classical behavior for rotation
           may cause significant error
 Rotational temperatures (Kelvin)      0.16057     0.05699     0.04678
 Rotational constants (GHZ):           3.34572     1.18751     0.97469
    3 imaginary frequencies ignored.
 Zero-point vibrational energy     282218.8 (Joules/Mol)
                                   67.45191 (Kcal/Mol)
 Warning -- explicit consideration of  10 degrees of freedom as
           vibrations may cause significant error
 Vibrational temperatures:     60.49   124.25   184.21   245.29   368.11
          (Kelvin)            451.51   556.83   621.72   812.84   829.09
                              903.54  1044.27  1125.57  1177.17  1257.66
                             1259.80  1338.58  1397.72  1626.64  1653.08
                             1707.44  1790.04  1888.32  1980.41  2075.07
                             2122.72  2191.89  2203.34  2726.81  3360.25
                             4487.53  4532.68  4566.52  4656.88  5082.80
                             5475.13

 Zero-point correction=                           0.107491 (Hartree/Particle)
 Thermal correction to Energy=                    0.115792
 Thermal correction to Enthalpy=                  0.116736
 Thermal correction to Gibbs Free Energy=         0.072813
 Sum of electronic and zero-point Energies=           -419.845133
 Sum of electronic and thermal Energies=              -419.836832
 Sum of electronic and thermal Enthalpies=            -419.835888
 Sum of electronic and thermal Free Energies=         -419.879811

                     E (Thermal)             CV                S
                      KCal/Mol        Cal/Mol-Kelvin    Cal/Mol-Kelvin
 Total                   72.661             28.662             92.445
 Electronic               0.000              0.000              1.377
 Translational            0.889              2.981             40.136
 Rotational               0.889              2.981             28.808
 Vibrational             70.883             22.701             22.124
 Vibration     1          0.595              1.980              5.160
 Vibration     2          0.601              1.959              3.741
 Vibration     3          0.611              1.925              2.975
 Vibration     4          0.626              1.879              2.430
 Vibration     5          0.666              1.753              1.690
 Vibration     6          0.702              1.647              1.342
 Vibration     7          0.755              1.498              1.012
 Vibration     8          0.793              1.400              0.852
 Vibration     9          0.921              1.107              0.514
 Vibration    10          0.933              1.083              0.492

 Normal termination of Gaussian 16 at Fri Jun 20 12:54:43 2025.
