 Gaussian 16, Revision A.03,
 Gaussian 16:  ES64L-G16RevA.03 25-Dec-2016

 --------------------------
 # freq 6-311++g(d,p) m062x
 --------------------------

 -------------------
 Title Card Required
 -------------------
 Symbolic Z-matrix:
 Charge =  0 Multiplicity = 2

                         Standard orientation:
 ---------------------------------------------------------------------
 Center     Atomic      Atomic             Coordinates (Angstroms)
 Number     Number       Type             X           Y           Z
 ---------------------------------------------------------------------
      1          8           0        2.287931    1.695119   -0.321323
      2          1           0        1.475830    1.799763    0.205394
      3          6           0       -3.372900    0.214075   -0.506422
      4          1           0       -4.388864    0.286634   -0.817739
      5          6           0       -2.230730    0.132045   -0.155415
      6          6           0       -0.846254    0.085838    0.283096
      7          8           0       -0.284664    1.011257    0.808474
      8          8           0       -0.300498   -1.101038    0.036957
      9          6           0        1.066551   -1.293617    0.452487
     10          6           0        2.044086   -0.797627   -0.582046
     11          1           0        1.149967   -2.374220    0.574236
     12          1           0        1.218758   -0.811416    1.419484
     13          1           0        3.056130   -1.144693   -0.373918
     14          1           0        1.742912   -1.042349   -1.600439
     15          1           0        2.158602    0.399295   -0.550087
 ---------------------------------------------------------------------

 SCF Done:  E(UM062X) =  -420.200976461     A.U. after   20 cycles

 The electronic state is 2-A.
 Alpha  occ. eigenvalues --  -19.70002 -19.64882 -19.64028 -10.72407 -10.62372
 Alpha  occ. eigenvalues --  -10.58050 -10.57571 -10.56472  -1.27403  -1.18072
 Alpha  occ. eigenvalues --   -1.11166  -0.91902  -0.88323  -0.79701  -0.72056
 Alpha  occ. eigenvalues --   -0.66223  -0.62158  -0.60676  -0.59332  -0.56970
 Alpha  occ. eigenvalues --   -0.53792  -0.51049  -0.49621  -0.48743  -0.45415
 Alpha  occ. eigenvalues --   -0.41165  -0.40623  -0.39795  -0.38234  -0.37403
 Alpha  occ. eigenvalues --   -0.34745
 Alpha virt. eigenvalues --   -0.02924  -0.00520   0.00379   0.01596   0.02319
 Alpha virt. eigenvalues --    0.02879   0.03377   0.04995   0.05553   0.06429
 Alpha virt. eigenvalues --    0.06704   0.07327   0.07768   0.09260   0.10027

  Beta  occ. eigenvalues --  -19.70002 -19.64886 -19.62767 -10.72407 -10.62388
  Beta  occ. eigenvalues --  -10.58050 -10.57571 -10.56085  -1.27400  -1.18067
  Beta  occ. eigenvalues --   -1.06194  -0.91617  -0.87918  -0.78915  -0.71545
  Beta  occ. eigenvalues --   -0.66107  -0.62115  -0.60462  -0.58762  -0.54515
  Beta  occ. eigenvalues --   -0.52075  -0.49869  -0.48498  -0.45993  -0.43180
  Beta  occ. eigenvalues --   -0.41002  -0.39920  -0.38237  -0.37365  -0.36924
  Beta virt. eigenvalues --   -0.09832  -0.02902  -0.00456   0.00403   0.01719
  Beta virt. eigenvalues --    0.02504   0.03018   0.03388   0.05350   0.05643
  Beta virt. eigenvalues --    0.06515   0.06987   0.07452   0.07816   0.09475

 Mulliken charges and spin densities:
               1          2
     1  O   -0.350612   0.671058
     2  H    0.265937  -0.003768
     3  C   -0.635855  -0.001069
     4  H    0.182130  -0.000012
     5  C    1.218623   0.005931
     6  C   -0.658514   0.007557
     7  O   -0.272478  -0.003845
     8  O    0.027250   0.000102
     9  C   -0.421543  -0.035599
    10  C   -0.453925   0.406459
    11  H    0.199970   0.019483
    12  H    0.233485   0.006929
    13  H    0.184432  -0.012545
    14  H    0.202541  -0.005063
    15  H    0.278558  -0.055616
 Sum of Mulliken charges =  -0.00000   1.00000

 Dipole moment (field-independent basis, Debye):
    X=             -1.9852    Y=             -3.1574    Z=             -0.0308  Tot=              3.7298
 Quadrupole moment (field-independent basis, Debye-Ang):
   XX=            -40.4372   YY=            -51.0786   ZZ=            -47.8878
   XY=             -8.6787   XZ=              4.1105   YZ=             -0.6543

  Exact polarizability:  93.319  -0.461  78.967   7.677   2.505  52.155
 Approx polarizability: 100.223   1.349  88.751  12.293   6.151  63.159

 ******    1 imaginary frequencies (negative Signs) ******

                      1                      2                      3
                      A                      A                      A
 Frequencies --  -1322.6627                34.1221                91.6146
 Red. masses --      1.1431                 8.2730                 3.7285
 Frc consts  --      1.1783                 0.0057                 0.0184
 IR Inten    --   1115.5807                 2.0970                 3.4330

                      4                      5                      6
                      A                      A                      A
 Frequencies --    113.2752               166.5160               189.7422
 Red. masses --      4.8238                 4.1218                 5.4114
 Frc consts  --      0.0365                 0.0673                 0.1148
 IR Inten    --      3.1620                 0.2185                 8.2234

                      7                      8                      9
                      A                      A                      A
 Frequencies --    273.1847               323.9415               347.4658
 Red. masses --      4.3462                 1.6944                 1.6096
 Frc consts  --      0.1911                 0.1048                 0.1145
 IR Inten    --      2.5422                 6.2354                18.5431

                     10                     11                     12
                      A                      A                      A
 Frequencies --    413.6610               436.1246               568.2298
 Red. masses --      1.2436                 2.4487                 3.9008
 Frc consts  --      0.1254                 0.2744                 0.7421
 IR Inten    --     76.1253                10.8844                 1.1589

                     13                     14                     15
                      A                      A                      A
 Frequencies --    610.5202               670.7955               747.0568
 Red. masses --      6.9649                 1.9292                 1.3142
 Frc consts  --      1.5296                 0.5115                 0.4321
 IR Inten    --     11.1025                 3.1986                39.2057

                     16                     17                     18
                      A                      A                      A
 Frequencies --    779.9184               788.8396               840.8838
 Red. masses --      1.4809                 5.1952                 1.6588
 Frc consts  --      0.5307                 1.9047                 0.6911
 IR Inten    --     17.7244                45.1191               302.2233

                     19                     20                     21
                      A                      A                      A
 Frequencies --    877.0132               918.8049               959.7049
 Red. masses --      2.6972                 1.8669                 1.8080
 Frc consts  --      1.2223                 0.9286                 0.9811
 IR Inten    --      7.8632                23.3504                18.7001

                     22                     23                     24
                      A                      A                      A
 Frequencies --   1088.9180              1131.5801              1176.5427
 Red. masses --      3.7162                 2.1609                 1.5236
 Frc consts  --      2.5962                 1.6302                 1.2426
 IR Inten    --     31.2144                39.1217                 6.5074

                     25                     26                     27
                      A                      A                      A
 Frequencies --   1284.9183              1292.7200              1348.6975
 Red. masses --      1.2626                 1.8202                 1.5092
 Frc consts  --      1.2282                 1.7922                 1.6174
 IR Inten    --    182.3800               275.7101               235.9203

                     28                     29                     30
                      A                      A                      A
 Frequencies --   1411.7979              1430.3756              1451.9449
 Red. masses --      1.2021                 1.2734                 1.1171
 Frc consts  --      1.4117                 1.5350                 1.3876
 IR Inten    --     59.0665                60.0638                15.6883

                     31                     32                     33
                      A                      A                      A
 Frequencies --   1496.9828              1824.2570              2271.9864
 Red. masses --      1.1024                11.8440                 5.7385
 Frc consts  --      1.4555                23.2231                17.4526
 IR Inten    --     22.8322               330.0534                87.8344

                     34                     35                     36
                      A                      A                      A
 Frequencies --   3096.7042              3108.0067              3148.2439
 Red. masses --      1.0578                 1.0567                 1.1079
 Frc consts  --      5.9769                 6.0139                 6.4699
 IR Inten    --     13.3434                 4.4802                 2.7258

                     37                     38                     39
                      A                      A                      A
 Frequencies --   3184.7395              3490.2171              3758.5039
 Red. masses --      1.1080                 1.1716                 1.0664
 Frc consts  --      6.6213                 8.4085                 8.8752
 IR Inten    --      3.9590                63.3011               136.7355

 - Thermochemistry -
 -------------------
 Temperature   298.150 Kelvin.  Pressure   1.00000 Atm.
 Atom     1 has atomic number  8 and mass  15.99491

 Molecular mass:   115.03952 amu.
 Principal axes and moments of inertia in atomic units:
                           1         2         3
     Eigenvalues --   540.547091519.782031852.71225
           X            0.99968  -0.02500   0.00306
           Y            0.02502   0.99967  -0.00526
           Z           -0.00292   0.00533   0.99998
 This molecule is an asymmetric top.
 Rotational symmetry number  1.
 Warning -- assumption of classical behavior for rotation
           may cause significant error
 Rotational temperatures (Kelvin)      0.16023     0.05699     0.04675
 Rotational constants (GHZ):           3.33873     1.18750     0.97411
    1 imaginary frequencies ignored.
 Zero-point vibrational energy     282011.0 (Joules/Mol)
                                   67.40224 (Kcal/Mol)
 Warning -- explicit consideration of  12 degrees of freedom as
           vibrations may cause significant error
 Vibrational temperatures:     49.09   131.81   162.98   239.58   273.00
          (Kelvin)            393.05   466.08   499.93   595.17   627.49
                              817.56   878.40   965.13  1074.85  1122.13
                             1134.96  1209.84  1261.83  1321.96  1380.80
                             1566.71  1628.09  1692.78  1848.71  1859.94
                             1940.47  2031.26  2057.99  2089.02  2153.82
                             2624.70  3268.88  4455.47  4471.73  4529.62
                             4582.13  5021.64  5407.65

 Zero-point correction=                           0.107412 (Hartree/Particle)
 Thermal correction to Energy=                    0.116611
 Thermal correction to Enthalpy=                  0.117556
 Thermal correction to Gibbs Free Energy=         0.071899
 Sum of electronic and zero-point Energies=           -420.093564
 Sum of electronic and thermal Energies=              -420.084365
 Sum of electronic and thermal Enthalpies=            -420.083421
 Sum of electronic and thermal Free Energies=         -420.129077

                     E (Thermal)             CV                S
                      KCal/Mol        Cal/Mol-Kelvin    Cal/Mol-Kelvin
 Total                   73.175             32.032             96.091
 Electronic               0.000              0.000              1.377
 Translational            0.889              2.981             40.136
 Rotational               0.889              2.981             28.811
 Vibrational             71.397             26.071             25.767
 Vibration     1          0.594              1.983              5.574
 Vibration     2          0.602              1.955              3.625
 Vibration     3          0.607              1.938              3.212
 Vibration     4          0.624              1.884              2.474
 Vibration     5          0.633              1.854              2.230
 Vibration     6          0.676              1.723              1.576
 Vibration     7          0.708              1.628              1.290
 Vibration     8          0.725              1.580              1.178
 Vibration     9          0.777              1.441              0.914
 Vibration    10          0.797              1.391              0.839
 Vibration    11          0.924              1.100              0.508
 Vibration    12          0.970              1.010              0.432

 Optimization completed.
    -- Stationary point found.

 1\1\GINC-AJ\Freq\UM062X\6-311++G(d,p)\C5H7O3(2)\AAYUSH\16-Aug-2025\0\\
 # freq 6-311++g(d,p) m062x\\Title Card Required\\0,2\O,2.34331892,1.67
 02907,-0.33115831\H,1.53121792,1.7749347,0.19555869\C,-3.31751208,0.18
 92467,-0.51625731\H,-4.33347608,0.2618057,-0.82757431\C,-2.17534208,0.
 1072167,-0.16525031\C,-0.79086608,0.0610097,0.27326069\O,-0.22927608,0
 .9864287,0.79863869\O,-0.24511008,-1.1258663,0.02712169\C,1.12193892,-
 1.3184453,0.44265169\C,2.09947392,-0.8224553,-0.59188131\H,1.20535492,
 -2.3990483,0.56440069\H,1.27414592,-0.8362443,1.40964869\H,3.11151792,

 Normal termination of Gaussian 16 at Sat Aug 16 15:51:16 2025.
