 Gaussian 16, Revision A.03,
 Gaussian 16:  ES64L-G16RevA.03 25-Dec-2016

 --------------------------
 # ccsd(t)/6-311++g(d,p) sp
 --------------------------

 -------------------
 Title Card Required
 -------------------
 Symbolic Z-matrix:
 Charge =  0 Multiplicity = 2

                         Standard orientation:
 ---------------------------------------------------------------------
 Center     Atomic      Atomic             Coordinates (Angstroms)
 Number     Number       Type             X           Y           Z
 ---------------------------------------------------------------------
      1          8           0        2.287931    1.695119   -0.321323
      2          1           0        1.475830    1.799763    0.205394
      3          6           0       -3.372900    0.214075   -0.506422
      4          1           0       -4.388864    0.286634   -0.817739
      5          6           0       -2.230730    0.132045   -0.155415
      6          6           0       -0.846254    0.085838    0.283096
      7          8           0       -0.284664    1.011257    0.808474
      8          8           0       -0.300498   -1.101038    0.036957
      9          6           0        1.066551   -1.293617    0.452487
     10          6           0        2.044086   -0.797627   -0.582046
     11          1           0        1.149967   -2.374220    0.574236
     12          1           0        1.218758   -0.811416    1.419484
     13          1           0        3.056130   -1.144693   -0.373918
     14          1           0        1.742912   -1.042349   -1.600439
     15          1           0        2.158602    0.399295   -0.550087
 ---------------------------------------------------------------------

 SCF Done:  E(UHF) =  -417.968111070     A.U. after   33 cycles
 E2 =    -0.1279139813D+01 EUMP2 =    -0.41924725088359D+03
 CCSD(T)= -0.41934988449D+03

 The electronic state is 2-A.
 Alpha  occ. eigenvalues --  -20.62899 -20.60635 -20.57836 -11.43506 -11.30765
 Alpha  occ. eigenvalues --  -11.27727 -11.26888 -11.24006  -1.49934  -1.39869
 Alpha  occ. eigenvalues --   -1.37459  -1.09041  -1.05221  -0.93986  -0.85227
 Alpha  occ. eigenvalues --   -0.77953  -0.74009  -0.72447  -0.70882  -0.68241
 Alpha  occ. eigenvalues --   -0.64899  -0.62693  -0.58704  -0.56826  -0.54362
 Alpha  occ. eigenvalues --   -0.53315  -0.50379  -0.48691  -0.44035  -0.43690
 Alpha  occ. eigenvalues --   -0.43560
 Alpha virt. eigenvalues --    0.03530   0.04423   0.06013   0.06817   0.07387
 Alpha virt. eigenvalues --    0.07616   0.09393   0.10257   0.11089   0.11486
 Alpha virt. eigenvalues --    0.12240   0.13815   0.14224   0.15102   0.16277

  Beta  occ. eigenvalues --  -20.62897 -20.57847 -20.56967 -11.43508 -11.30849
  Beta  occ. eigenvalues --  -11.27730 -11.26886 -11.22906  -1.49935  -1.39854
  Beta  occ. eigenvalues --   -1.24259  -1.08829  -1.04187  -0.92663  -0.84211
  Beta  occ. eigenvalues --   -0.77867  -0.73958  -0.71853  -0.68583  -0.63724
  Beta  occ. eigenvalues --   -0.62612  -0.58594  -0.56528  -0.54179  -0.50884
  Beta  occ. eigenvalues --   -0.49508  -0.48778  -0.47174  -0.43696  -0.43553
  Beta virt. eigenvalues --    0.03534   0.04429   0.05831   0.06258   0.07081
  Beta virt. eigenvalues --    0.07399   0.07895   0.10018   0.10767   0.11101
  Beta virt. eigenvalues --    0.12199   0.12368   0.13865   0.14228   0.15315

 Mulliken charges and spin densities:
               1          2
     1  O   -0.311464   0.825913
     2  H    0.290695  -0.017323
     3  C   -0.700286  -0.002043
     4  H    0.205558   0.000084
     5  C    1.378951   0.005386
     6  C   -0.685060   0.008647
     7  O   -0.350610  -0.004665
     8  O   -0.055627   0.000068
     9  C   -0.292627  -0.066181
    10  C   -0.423331   0.434784
    11  H    0.164125   0.015156
    12  H    0.208148   0.008830
    13  H    0.143636  -0.024536
    14  H    0.172561  -0.017988
    15  H    0.255332  -0.166131
 Sum of Mulliken charges =  -0.00000   1.00000

 Dipole moment (field-independent basis, Debye):
    X=             -2.0754    Y=             -2.3850    Z=             -0.0193  Tot=              3.1616
 Quadrupole moment (field-independent basis, Debye-Ang):
   XX=            -39.6897   YY=            -50.6277   ZZ=            -48.2327
   XY=             -6.8356   XZ=              4.6560   YZ=             -1.1029

 Normal termination of Gaussian 16 at Thu Aug 21 11:38:31 2025.
