 Gaussian 16, Revision A.03,
 Gaussian 16:  ES64L-G16RevA.03 25-Dec-2016

 --------------------------
 # freq 6-311++g(d,p) m062x
 --------------------------

 -------------------
 Title Card Required
 -------------------
 Symbolic Z-matrix:
 Charge =  0 Multiplicity = 2

                         Standard orientation:
 ---------------------------------------------------------------------
 Center     Atomic      Atomic             Coordinates (Angstroms)
 Number     Number       Type             X           Y           Z
 ---------------------------------------------------------------------
      1          8           0        2.289225    1.674581   -0.319860
      2          1           0        1.487948    1.805173    0.206618
      3          6           0       -3.372950    0.219928   -0.505571
      4          1           0       -4.388848    0.295632   -0.816474
      5          6           0       -2.230902    0.134485   -0.155037
      6          6           0       -0.846912    0.085459    0.283536
      7          8           0       -0.283189    1.006724    0.811007
      8          8           0       -0.302590   -1.103775    0.033853
      9          6           0        1.062918   -1.296739    0.448118
     10          6           0        2.040006   -0.812745   -0.583604
     11          1           0        1.148934   -2.380286    0.566728
     12          1           0        1.218402   -0.820181    1.418195
     13          1           0        3.062440   -1.120409   -0.373795
     14          1           0        1.737436   -1.008738   -1.610335
     15          1           0        2.193167    0.626253   -0.515579
 ---------------------------------------------------------------------

 SCF Done:  E(UM062X) =  -420.211733867     A.U. after   17 cycles

 The electronic state is 2-A.
 Alpha  occ. eigenvalues --  -19.70341 -19.65059 -19.60458 -10.72568 -10.63187
 Alpha  occ. eigenvalues --  -10.58218 -10.58183 -10.57696  -1.27695  -1.18350
 Alpha  occ. eigenvalues --   -1.10391  -0.92385  -0.88679  -0.79922  -0.72270
 Alpha  occ. eigenvalues --   -0.66730  -0.62285  -0.61010  -0.59818  -0.57271
 Alpha  occ. eigenvalues --   -0.54450  -0.51635  -0.50114  -0.47470  -0.46005
 Alpha  occ. eigenvalues --   -0.41402  -0.40863  -0.38396  -0.37576  -0.37447
 Alpha  occ. eigenvalues --   -0.31401
 Alpha virt. eigenvalues --   -0.03061  -0.00761   0.00270   0.01353   0.02228
 Alpha virt. eigenvalues --    0.02725   0.03263   0.05114   0.05434   0.06408
 Alpha virt. eigenvalues --    0.06858   0.07266   0.07608   0.09230   0.09908

  Beta  occ. eigenvalues --  -19.70340 -19.65057 -19.59871 -10.72568 -10.63224
  Beta  occ. eigenvalues --  -10.58184 -10.57696 -10.57533  -1.27684  -1.18334
  Beta  occ. eigenvalues --   -1.08107  -0.91835  -0.88012  -0.78598  -0.71395
  Beta  occ. eigenvalues --   -0.66481  -0.62229  -0.60702  -0.59151  -0.54723
  Beta  occ. eigenvalues --   -0.53521  -0.50560  -0.49190  -0.46026  -0.44179
  Beta  occ. eigenvalues --   -0.41267  -0.40366  -0.38356  -0.37484  -0.36402
  Beta virt. eigenvalues --   -0.08347  -0.03035  -0.00656   0.00303   0.01545
  Beta virt. eigenvalues --    0.02390   0.02893   0.03273   0.05331   0.05540
  Beta virt. eigenvalues --    0.06444   0.07110   0.07356   0.07622   0.09370

 Mulliken charges and spin densities:
               1          2
     1  O   -0.475415   0.262019
     2  H    0.266750   0.008409
     3  C   -0.632286  -0.000200
     4  H    0.182616   0.000044
     5  C    1.213873  -0.000499
     6  C   -0.650596   0.005758
     7  O   -0.268964  -0.002421
     8  O    0.028491  -0.000168
     9  C   -0.432333  -0.051493
    10  C   -0.431292   0.823177
    11  H    0.208009   0.043240
    12  H    0.241360   0.015571
    13  H    0.195575  -0.028107
    14  H    0.216734  -0.018451
    15  H    0.337476  -0.056880
 Sum of Mulliken charges =  -0.00000   1.00000

 Dipole moment (field-independent basis, Debye):
    X=             -2.1720    Y=             -3.9900    Z=             -0.0736  Tot=              4.5435
 Quadrupole moment (field-independent basis, Debye-Ang):
   XX=            -40.7557   YY=            -52.4828   ZZ=            -47.6017
   XY=            -10.8241   XZ=              3.9430   YZ=             -0.4554

  Exact polarizability:  93.252  -1.639  71.636   7.410   2.168  52.450
 Approx polarizability: 100.199   0.878  83.189  12.121   5.596  63.474

 ******    2 imaginary frequencies (negative Signs) ******

                      1                      2                      3
                      A                      A                      A
 Frequencies --   -347.5175               -51.0548                84.9034
 Red. masses --      2.7128                 5.7026                 3.9128
 Frc consts  --      0.1930                 0.0088                 0.0166
 IR Inten    --     38.1855                 2.8170                 3.4816

                      4                      5                      6
                      A                      A                      A
 Frequencies --    112.6713               173.2361               191.0741
 Red. masses --      5.3349                 4.1221                 5.5408
 Frc consts  --      0.0399                 0.0729                 0.1192
 IR Inten    --      3.4289                 0.3922                 5.6276

                      7                      8                      9
                      A                      A                      A
 Frequencies --    272.7438               334.7521               376.5192
 Red. masses --      4.3887                 3.1865                 1.1739
 Frc consts  --      0.1924                 0.2104                 0.0981
 IR Inten    --      2.3577                11.5376                26.5372

                     10                     11                     12
                      A                      A                      A
 Frequencies --    413.5409               468.3034               568.0109
 Red. masses --      1.5090                 1.9031                 3.2773
 Frc consts  --      0.1520                 0.2459                 0.6230
 IR Inten    --     45.2417                11.1790                 0.7183

                     13                     14                     15
                      A                      A                      A
 Frequencies --    611.6142               658.4640               748.2374
 Red. masses --      7.4129                 1.0916                 1.3136
 Frc consts  --      1.6338                 0.2789                 0.4333
 IR Inten    --     10.4518                76.3873                39.9579

                     16                     17                     18
                      A                      A                      A
 Frequencies --    780.4030               787.1109               805.3758
 Red. masses --      1.5904                 4.0013                 1.1730
 Frc consts  --      0.5707                 1.4606                 0.4483
 IR Inten    --     13.4581                44.3471                 5.5871

                     19                     20                     21
                      A                      A                      A
 Frequencies --    850.3848               874.4873               925.2367
 Red. masses --      1.2141                 3.0568                 1.7492
 Frc consts  --      0.5173                 1.3773                 0.8823
 IR Inten    --     73.6206                28.5348                 8.2873

                     22                     23                     24
                      A                      A                      A
 Frequencies --    987.8342              1091.0850              1132.5324
 Red. masses --      2.3137                 3.9601                 1.9033
 Frc consts  --      1.3303                 2.7777                 1.4383
 IR Inten    --      2.4623                19.4737                 5.5679

                     25                     26                     27
                      A                      A                      A
 Frequencies --   1276.2781              1330.9081              1407.6037
 Red. masses --      2.0182                 1.8617                 1.3320
 Frc consts  --      1.9368                 1.9429                 1.5550
 IR Inten    --    313.0914               345.2116                34.3399

                     28                     29                     30
                      A                      A                      A
 Frequencies --   1419.0874              1446.7220              1480.6609
 Red. masses --      1.3722                 1.1703                 1.1035
 Frc consts  --      1.6281                 1.4431                 1.4254
 IR Inten    --     26.3494                 7.6583                27.3203

                     31                     32                     33
                      A                      A                      A
 Frequencies --   1744.7792              1831.5714              2272.2062
 Red. masses --      1.1009                10.0736                 5.7373
 Frc consts  --      1.9745                19.9105                17.4524
 IR Inten    --    144.9324               285.7729                89.2135

                     34                     35                     36
                      A                      A                      A
 Frequencies --   3074.2907              3120.1616              3129.8783
 Red. masses --      1.0593                 1.0609                 1.0965
 Frc consts  --      5.8990                 6.0855                 6.3289
 IR Inten    --     10.8700                 1.5007                 2.2251

                     37                     38                     39
                      A                      A                      A
 Frequencies --   3211.4871              3489.9962              3836.5122
 Red. masses --      1.1120                 1.1716                 1.0648
 Frc consts  --      6.7572                 8.4080                 9.2336
 IR Inten    --      1.4356                63.4380               127.6416

 - Thermochemistry -
 -------------------
 Temperature   298.150 Kelvin.  Pressure   1.00000 Atm.
 Atom     1 has atomic number  8 and mass  15.99491

 Molecular mass:   115.03952 amu.
 Principal axes and moments of inertia in atomic units:
                           1         2         3
     Eigenvalues --   538.710401519.769021850.91900
           X            0.99974  -0.02266   0.00317
           Y            0.02268   0.99972  -0.00698
           Z           -0.00301   0.00705   0.99997
 This molecule is an asymmetric top.
 Rotational symmetry number  1.
 Warning -- assumption of classical behavior for rotation
           may cause significant error
 Rotational temperatures (Kelvin)      0.16078     0.05699     0.04680
 Rotational constants (GHZ):           3.35011     1.18751     0.97505
    2 imaginary frequencies ignored.
 Zero-point vibrational energy     283040.4 (Joules/Mol)
                                   67.64829 (Kcal/Mol)
 Warning -- explicit consideration of  11 degrees of freedom as
           vibrations may cause significant error
 Vibrational temperatures:    122.16   162.11   249.25   274.91   392.42
          (Kelvin)            481.63   541.73   594.99   673.78   817.24
                              879.98   947.38  1076.55  1122.83  1132.48
                             1158.76  1223.51  1258.19  1331.21  1421.27
                             1569.83  1629.46  1836.28  1914.88  2025.23
                             2041.75  2081.51  2130.34  2510.35  2635.22
                             3269.20  4423.22  4489.22  4503.20  4620.61
                             5021.33  5519.89

 Zero-point correction=                           0.107804 (Hartree/Particle)
 Thermal correction to Energy=                    0.116114
 Thermal correction to Enthalpy=                  0.117058
 Thermal correction to Gibbs Free Energy=         0.074084
 Sum of electronic and zero-point Energies=           -420.103929
 Sum of electronic and thermal Energies=              -420.095620
 Sum of electronic and thermal Enthalpies=            -420.094676
 Sum of electronic and thermal Free Energies=         -420.137650

                     E (Thermal)             CV                S
                      KCal/Mol        Cal/Mol-Kelvin    Cal/Mol-Kelvin
 Total                   72.862             30.185             90.447
 Electronic               0.000              0.000              1.377
 Translational            0.889              2.981             40.136
 Rotational               0.889              2.981             28.807
 Vibrational             71.085             24.223             20.127
 Vibration     1          0.601              1.960              3.774
 Vibration     2          0.607              1.939              3.222
 Vibration     3          0.627              1.875              2.400
 Vibration     4          0.634              1.852              2.217
 Vibration     5          0.676              1.724              1.579
 Vibration     6          0.716              1.606              1.237
 Vibration     7          0.747              1.520              1.053
 Vibration     8          0.777              1.441              0.914
 Vibration     9          0.825              1.320              0.742
 Vibration    10          0.924              1.100              0.508
 Vibration    11          0.971              1.007              0.430

 1\1\GINC-AJ\Freq\UM062X\6-311++G(d,p)\C5H7O3(2)\AAYUSH\23-Jun-2025\0\\
 # freq 6-311++g(d,p) m062x\\Title Card Required\\0,2\O,2.289225,1.6745
 81,-0.31986\H,1.487948,1.805173,0.206618\C,-3.37295,0.219928,-0.505571
 \H,-4.388848,0.295632,-0.816474\C,-2.230902,0.134485,-0.155037\C,-0.84
 6912,0.085459,0.283536\O,-0.283189,1.006724,0.811007\O,-0.30259,-1.103
 775,0.033853\C,1.062918,-1.296739,0.448118\C,2.040006,-0.812745,-0.583
 604\H,1.148934,-2.380286,0.566728\H,1.218402,-0.820181,1.418195\H,3.06
 244,-1.120409,-0.373795\H,1.737436,-1.008738,-1.610335\H,2.193167,0.62

 Normal termination of Gaussian 16 at Mon Jun 23 02:30:59 2025.
