 Gaussian 16, Revision A.03,
 Gaussian 16:  ES64L-G16RevA.03 25-Dec-2016

 --------------------------
 # ccsd(t)/6-311++g(d,p) sp
 --------------------------

 -------------------
 Title Card Required
 -------------------
 Symbolic Z-matrix:
 Charge =  0 Multiplicity = 2

                         Standard orientation:
 ---------------------------------------------------------------------
 Center     Atomic      Atomic             Coordinates (Angstroms)
 Number     Number       Type             X           Y           Z
 ---------------------------------------------------------------------
      1          8           0        2.287870    1.701908   -0.321658
      2          1           0        1.473352    1.799885    0.204861
      3          6           0       -3.372858    0.212887   -0.506683
      4          1           0       -4.388824    0.284689   -0.818134
      5          6           0       -2.230670    0.131666   -0.155516
      6          6           0       -0.846020    0.085921    0.282932
      7          8           0       -0.284815    1.012663    0.807521
      8          8           0       -0.300248   -1.100263    0.038056
      9          6           0        1.067339   -1.293263    0.454012
     10          6           0        2.044807   -0.797458   -0.581938
     11          1           0        1.149043   -2.373122    0.577578
     12          1           0        1.218629   -0.808973    1.419992
     13          1           0        3.054046   -1.153516   -0.373383
     14          1           0        1.743941   -1.056178   -1.597323
     15          1           0        2.151761    0.354232   -0.561777
 ---------------------------------------------------------------------

 SCF Done:  E(UHF) =  -417.973718786     A.U. after   33 cycles
 E2 =    -0.1274764103D+01 EUMP2 =    -0.41924848288869D+03
 CCSD(T)= -0.41935081481D+03

 The electronic state is 2-A.
 Alpha  occ. eigenvalues --  -20.62822 -20.61144 -20.57812 -11.43486 -11.30574
 Alpha  occ. eigenvalues --  -11.27705 -11.26868 -11.23213  -1.49881  -1.39818
 Alpha  occ. eigenvalues --   -1.37851  -1.08967  -1.05056  -0.93899  -0.85174
 Alpha  occ. eigenvalues --   -0.77863  -0.73988  -0.72379  -0.70819  -0.68270
 Alpha  occ. eigenvalues --   -0.65245  -0.62702  -0.58460  -0.56620  -0.54510
 Alpha  occ. eigenvalues --   -0.53431  -0.50366  -0.48581  -0.45059  -0.43695
 Alpha  occ. eigenvalues --   -0.43539
 Alpha virt. eigenvalues --    0.03544   0.04477   0.06050   0.06829   0.07407
 Alpha virt. eigenvalues --    0.07655   0.09346   0.10254   0.11100   0.11438
 Alpha virt. eigenvalues --    0.12248   0.13855   0.14255   0.15128   0.16309

  Beta  occ. eigenvalues --  -20.62820 -20.57823 -20.57306 -11.43488 -11.30638
  Beta  occ. eigenvalues --  -11.27707 -11.26866 -11.22353  -1.49882  -1.39796
  Beta  occ. eigenvalues --   -1.23822  -1.08803  -1.04225  -0.92826  -0.84337
  Beta  occ. eigenvalues --   -0.77799  -0.73936  -0.71817  -0.68513  -0.63805
  Beta  occ. eigenvalues --   -0.62609  -0.58551  -0.56382  -0.54138  -0.50895
  Beta  occ. eigenvalues --   -0.49708  -0.48922  -0.47428  -0.43682  -0.43532
  Beta virt. eigenvalues --    0.03546   0.04485   0.05962   0.06338   0.07193
  Beta virt. eigenvalues --    0.07421   0.07996   0.10056   0.10875   0.11120
  Beta virt. eigenvalues --    0.12161   0.12452   0.13916   0.14258   0.15357

 Mulliken charges and spin densities:
               1          2
     1  O   -0.291501   0.874626
     2  H    0.290875  -0.020486
     3  C   -0.701161  -0.001701
     4  H    0.205461   0.000056
     5  C    1.378994   0.005029
     6  C   -0.687335   0.006402
     7  O   -0.352069  -0.003893
     8  O   -0.056494   0.000164
     9  C   -0.290636  -0.051422
    10  C   -0.422748   0.329945
    11  H    0.162832   0.010651
    12  H    0.205808   0.006331
    13  H    0.139610  -0.018695
    14  H    0.166829  -0.013299
    15  H    0.251534  -0.123706
 Sum of Mulliken charges =  -0.00000   1.00000

 Dipole moment (field-independent basis, Debye):
    X=             -2.0437    Y=             -2.1806    Z=             -0.0068  Tot=              2.9886
 Quadrupole moment (field-independent basis, Debye-Ang):
   XX=            -39.6428   YY=            -50.3601   ZZ=            -48.2947
   XY=             -6.3168   XZ=              4.6972   YZ=             -1.1843

 PMP3-0=-419.2750291\MP4SDQ=-419.297544\CCSD=-419.2969178\CCSD(T)=-419.
 Normal termination of Gaussian 16 at Wed Jul  9 21:07:45 2025.
