 Gaussian 16, Revision A.03,
 Gaussian 16:  ES64L-G16RevA.03 25-Dec-2016

 -------------------
 # freq 6-31+g m062x
 -------------------

 -------------------
 Title Card Required
 -------------------
 Symbolic Z-matrix:
 Charge =  0 Multiplicity = 2

                         Standard orientation:
 ---------------------------------------------------------------------
 Center     Atomic      Atomic             Coordinates (Angstroms)
 Number     Number       Type             X           Y           Z
 ---------------------------------------------------------------------
      1          8           0        2.288586    1.720198   -0.321911
      2          1           0        1.469785    1.801070    0.203318
      3          6           0       -3.372663    0.211376   -0.507315
      4          1           0       -4.388610    0.281810   -0.819117
      5          6           0       -2.230473    0.131595   -0.155711
      6          6           0       -0.845408    0.086508    0.282585
      7          8           0       -0.284501    1.015948    0.804722
      8          8           0       -0.300372   -1.098766    0.040982
      9          6           0        1.068042   -1.293853    0.458323
     10          6           0        2.045444   -0.807951   -0.583038
     11          1           0        1.144399   -2.372625    0.588353
     12          1           0        1.218606   -0.803427    1.421151
     13          1           0        3.049633   -1.175948   -0.369664
     14          1           0        1.745022   -1.100538   -1.589742
     15          1           0        2.141803    0.304567   -0.593697
 ---------------------------------------------------------------------

 SCF Done:  E(UM062X) =  -419.956773855     A.U. after   22 cycles

 The electronic state is 2-A.
 Alpha  occ. eigenvalues --  -19.72323 -19.68294 -19.68126 -10.74813 -10.62922
 Alpha  occ. eigenvalues --  -10.59630 -10.59279 -10.55731  -1.29732  -1.20254
 Alpha  occ. eigenvalues --   -1.13407  -0.92417  -0.88883  -0.80086  -0.72559
 Alpha  occ. eigenvalues --   -0.66243  -0.62426  -0.60552  -0.59664  -0.57126
 Alpha  occ. eigenvalues --   -0.53955  -0.51485  -0.49517  -0.48524  -0.44919
 Alpha  occ. eigenvalues --   -0.41370  -0.41011  -0.40266  -0.38524  -0.37797
 Alpha  occ. eigenvalues --   -0.37323
 Alpha virt. eigenvalues --   -0.03171   0.01618   0.02029   0.03480   0.03687
 Alpha virt. eigenvalues --    0.04146   0.04703   0.06204   0.07328   0.07790
 Alpha virt. eigenvalues --    0.08483   0.08642   0.09462   0.11097   0.12105

  Beta  occ. eigenvalues --  -19.72323 -19.68130 -19.66774 -10.74813 -10.62933
  Beta  occ. eigenvalues --  -10.59630 -10.59279 -10.55468  -1.29731  -1.20251
  Beta  occ. eigenvalues --   -1.07079  -0.92265  -0.88633  -0.79562  -0.72236
  Beta  occ. eigenvalues --   -0.66170  -0.62399  -0.60363  -0.59282  -0.55139
  Beta  occ. eigenvalues --   -0.51966  -0.49914  -0.48245  -0.45883  -0.43183
  Beta  occ. eigenvalues --   -0.40974  -0.39746  -0.38529  -0.37775  -0.37629
  Beta virt. eigenvalues --   -0.09247  -0.03147   0.01631   0.02027   0.03496
  Beta virt. eigenvalues --    0.03687   0.04263   0.04791   0.06254   0.07339
  Beta virt. eigenvalues --    0.07869   0.08568   0.08822   0.09676   0.11289

 Mulliken charges and spin densities:
               1          2
     1  O   -0.463268   0.856261
     2  H    0.465298  -0.027179
     3  C    0.285370   0.009243
     4  H    0.350014   0.000006
     5  C    0.452503   0.016883
     6  C   -0.756794  -0.019477
     7  O   -0.445278  -0.001517
     8  O   -0.215046  -0.000516
     9  C   -0.283050  -0.022831
    10  C   -0.533749   0.256012
    11  H    0.229204   0.009051
    12  H    0.240528   0.003559
    13  H    0.227185  -0.007942
    14  H    0.233188  -0.003745
    15  H    0.213895  -0.067808
 Sum of Mulliken charges =  -0.00000   1.00000

 Dipole moment (field-independent basis, Debye):
    X=             -2.1284    Y=             -2.6180    Z=              0.1600  Tot=              3.3779
 Quadrupole moment (field-independent basis, Debye-Ang):
   XX=            -41.3677   YY=            -51.2739   ZZ=            -48.5301
   XY=             -8.1639   XZ=              4.5377   YZ=             -0.9536

  Exact polarizability:  88.550  -1.835  70.275   8.146   2.885  48.398
 Approx polarizability:  93.925   0.704  75.495  13.366   7.122  54.195

 ******    5 imaginary frequencies (negative Signs) ******

                      1                      2                      3
                      A                      A                      A
 Frequencies --   -333.6827              -248.5857              -166.5201
 Red. masses --      1.1052                 1.9451                 2.3813
 Frc consts  --      0.0725                 0.0708                 0.0389
 IR Inten    --     50.9751                72.5246                 6.8479

                      4                      5                      6
                      A                      A                      A
 Frequencies --    -78.2443               -50.5276                71.9391
 Red. masses --      4.1973                 2.4696                 3.1482
 Frc consts  --      0.0151                 0.0037                 0.0096
 IR Inten    --     10.2770                 6.0717                27.5714

                      7                      8                      9
                      A                      A                      A
 Frequencies --     95.0161               175.4401               255.8377
 Red. masses --      4.1231                 3.6337                 3.7304
 Frc consts  --      0.0219                 0.0659                 0.1439
 IR Inten    --      2.5732                12.5000                 2.4596

                     10                     11                     12
                      A                      A                      A
 Frequencies --    310.3095               406.3182               567.4595
 Red. masses --      3.7159                 3.3333                 3.2735
 Frc consts  --      0.2108                 0.3242                 0.6211
 IR Inten    --     14.9253                11.1684                23.8813

                     13                     14                     15
                      A                      A                      A
 Frequencies --    598.8056               627.0147               782.5952
 Red. masses --      1.3823                 5.2037                 3.2163
 Frc consts  --      0.2920                 1.2054                 1.1606
 IR Inten    --    155.2762                32.6027                76.7427

                     16                     17                     18
                      A                      A                      A
 Frequencies --    815.4187               828.7217               874.6518
 Red. masses --      1.3906                 1.2718                 1.8823
 Frc consts  --      0.5448                 0.5146                 0.8484
 IR Inten    --     30.6431                62.2900                18.7472

                     19                     20                     21
                      A                      A                      A
 Frequencies --    895.1529               951.1195              1120.9056
 Red. masses --      3.1509                 2.6959                 3.6928
 Frc consts  --      1.4876                 1.4369                 2.7337
 IR Inten    --     27.3282                11.8179                 3.0460

                     22                     23                     24
                      A                      A                      A
 Frequencies --   1138.4508              1190.0480              1326.5417
 Red. masses --      2.2173                 1.8478                 1.5317
 Frc consts  --      1.6931                 1.5418                 1.5881
 IR Inten    --     27.2893                10.5924               188.4279

                     25                     26                     27
                      A                      A                      A
 Frequencies --   1374.6218              1401.0840              1446.7407
 Red. masses --      1.9400                 1.1019                 1.4119
 Frc consts  --      2.1598                 1.2745                 1.7412
 IR Inten    --    355.4885                10.2291                90.8930

                     28                     29                     30
                      A                      A                      A
 Frequencies --   1459.7745              1487.1610              1536.7914
 Red. masses --      1.3299                 1.0691                 1.1004
 Frc consts  --      1.6697                 1.3932                 1.5312
 IR Inten    --     28.6794                 3.1477                24.9491

                     31                     32                     33
                      A                      A                      A
 Frequencies --   1885.9062              2330.7064              2334.9385
 Red. masses --     11.8705                 1.0923                 5.5413
 Frc consts  --     24.8749                 3.4959                17.7996
 IR Inten    --    273.2908               869.2702                88.7134

                     34                     35                     36
                      A                      A                      A
 Frequencies --   3133.5414              3138.0926              3191.5281
 Red. masses --      1.0582                 1.0588                 1.1058
 Frc consts  --      6.1222                 6.1431                 6.6361
 IR Inten    --     16.5334                12.6016                 7.6136

                     37                     38                     39
                      A                      A                      A
 Frequencies --   3209.5633              3532.9382              3738.9190
 Red. masses --      1.1029                 1.1797                 1.0660
 Frc consts  --      6.6941                 8.6756                 8.7803
 IR Inten    --      9.2758                55.0394                83.3344

 - Thermochemistry -
 -------------------
 Temperature   298.150 Kelvin.  Pressure   1.00000 Atm.
 Atom     1 has atomic number  8 and mass  15.99491

 Molecular mass:   115.03952 amu.
 Principal axes and moments of inertia in atomic units:
                           1         2         3
     Eigenvalues --   546.810511519.858871858.79016
           X            0.99964  -0.02652   0.00294
           Y            0.02654   0.99964  -0.00406
           Z           -0.00283   0.00413   0.99999
 This molecule is an asymmetric top.
 Rotational symmetry number  1.
 Warning -- assumption of classical behavior for rotation
           may cause significant error
 Rotational temperatures (Kelvin)      0.15840     0.05699     0.04660
 Rotational constants (GHZ):           3.30049     1.18744     0.97092
    5 imaginary frequencies ignored.
 Zero-point vibrational energy     288503.7 (Joules/Mol)
                                   68.95404 (Kcal/Mol)
 Warning -- explicit consideration of   8 degrees of freedom as
           vibrations may cause significant error
 Vibrational temperatures:    103.50   136.71   252.42   368.09   446.47
          (Kelvin)            584.60   816.45   861.55   902.13  1125.98
                             1173.21  1192.35  1258.43  1287.93  1368.45
                             1612.73  1637.98  1712.21  1908.60  1977.77
                             2015.85  2081.54  2100.29  2139.69  2211.10
                             2713.40  3353.37  3359.46  4508.47  4515.02
                             4591.90  4617.85  5083.11  5379.47

 Zero-point correction=                           0.109885 (Hartree/Particle)
 Thermal correction to Energy=                    0.117023
 Thermal correction to Enthalpy=                  0.117967
 Thermal correction to Gibbs Free Energy=         0.076627
 Sum of electronic and zero-point Energies=           -419.846889
 Sum of electronic and thermal Energies=              -419.839751
 Sum of electronic and thermal Enthalpies=            -419.838806
 Sum of electronic and thermal Free Energies=         -419.880147

                     E (Thermal)             CV                S
                      KCal/Mol        Cal/Mol-Kelvin    Cal/Mol-Kelvin
 Total                   73.433             24.540             87.008
 Electronic               0.000              0.000              1.377
 Translational            0.889              2.981             40.136
 Rotational               0.889              2.981             28.826
 Vibrational             71.656             18.578             16.670
 Vibration     1          0.598              1.967              4.100
 Vibration     2          0.603              1.953              3.554
 Vibration     3          0.627              1.873              2.376
 Vibration     4          0.666              1.753              1.690
 Vibration     5          0.699              1.654              1.361
 Vibration     6          0.771              1.456              0.940
 Vibration     7          0.923              1.102              0.509
 Vibration     8          0.957              1.034              0.452

 Normal termination of Gaussian 16 at Fri Jun 20 12:59:34 2025.
