 Gaussian 16, Revision A.03,
 Gaussian 16:  ES64L-G16RevA.03 25-Dec-2016

 --------------------------
 # freq 6-311++g(d,p) m062x
 --------------------------

 -------------------
 Title Card Required
 -------------------
 Symbolic Z-matrix:
 Charge =  0 Multiplicity = 2

                         Standard orientation:
 ---------------------------------------------------------------------
 Center     Atomic      Atomic             Coordinates (Angstroms)
 Number     Number       Type             X           Y           Z
 ---------------------------------------------------------------------
      1          8           0        2.288379    1.684732   -0.320651
      2          1           0        1.480902    1.800631    0.206038
      3          6           0       -3.372937    0.216592   -0.506000
      4          1           0       -4.388880    0.290578   -0.817110
      5          6           0       -2.230813    0.133025   -0.155233
      6          6           0       -0.846580    0.085671    0.283332
      7          8           0       -0.284108    1.009006    0.809826
      8          8           0       -0.301292   -1.102345    0.035323
      9          6           0        1.064948   -1.294848    0.450236
     10          6           0        2.042438   -0.802353   -0.582643
     11          1           0        1.150177   -2.376884    0.569888
     12          1           0        1.218729   -0.815643    1.418775
     13          1           0        3.059235   -1.132613   -0.374222
     14          1           0        1.740625   -1.024695   -1.605323
     15          1           0        2.173055    0.498953   -0.532190
 ---------------------------------------------------------------------

 SCF Done:  E(UM062X) =  -420.203064121     A.U. after   19 cycles

 The electronic state is 2-A.
 Alpha  occ. eigenvalues --  -19.70198 -19.64972 -19.62355 -10.72495 -10.62856
 Alpha  occ. eigenvalues --  -10.58122 -10.57639 -10.57609  -1.27567  -1.18224
 Alpha  occ. eigenvalues --   -1.10339  -0.92170  -0.88529  -0.79844  -0.72189
 Alpha  occ. eigenvalues --   -0.66510  -0.62230  -0.60826  -0.59532  -0.57057
 Alpha  occ. eigenvalues --   -0.54030  -0.51121  -0.49805  -0.48475  -0.45776
 Alpha  occ. eigenvalues --   -0.41272  -0.40778  -0.38631  -0.38246  -0.37462
 Alpha  occ. eigenvalues --   -0.32691
 Alpha virt. eigenvalues --   -0.02998  -0.00659   0.00315   0.01458   0.02280
 Alpha virt. eigenvalues --    0.02789   0.03314   0.05064   0.05481   0.06410
 Alpha virt. eigenvalues --    0.06784   0.07276   0.07675   0.09232   0.09952

  Beta  occ. eigenvalues --  -19.70197 -19.64974 -19.61384 -10.72495 -10.62883
  Beta  occ. eigenvalues --  -10.58122 -10.57638 -10.57073  -1.27561  -1.18215
  Beta  occ. eigenvalues --   -1.06660  -0.91766  -0.88016  -0.78843  -0.71541
  Beta  occ. eigenvalues --   -0.66334  -0.62180  -0.60586  -0.58934  -0.54529
  Beta  occ. eigenvalues --   -0.52455  -0.50111  -0.48881  -0.46027  -0.43503
  Beta  occ. eigenvalues --   -0.41140  -0.40093  -0.38297  -0.37418  -0.36450
  Beta virt. eigenvalues --   -0.09689  -0.02974  -0.00571   0.00344   0.01621
  Beta virt. eigenvalues --    0.02447   0.02948   0.03324   0.05350   0.05589
  Beta virt. eigenvalues --    0.06474   0.07071   0.07381   0.07716   0.09424

 Mulliken charges and spin densities:
               1          2
     1  O   -0.414918   0.487007
     2  H    0.266106   0.003779
     3  C   -0.634247  -0.000732
     4  H    0.182389   0.000012
     5  C    1.217544   0.003672
     6  C   -0.655139   0.008186
     7  O   -0.270036  -0.004148
     8  O    0.028107   0.000288
     9  C   -0.427404  -0.045374
    10  C   -0.449227   0.605646
    11  H    0.204375   0.031008
    12  H    0.238296   0.011175
    13  H    0.190912  -0.019982
    14  H    0.211180  -0.010656
    15  H    0.312064  -0.069882
 Sum of Mulliken charges =  -0.00000   1.00000

 Dipole moment (field-independent basis, Debye):
    X=             -2.0891    Y=             -3.6423    Z=             -0.0509  Tot=              4.1992
 Quadrupole moment (field-independent basis, Debye-Ang):
   XX=            -40.6321   YY=            -51.8045   ZZ=            -47.7484
   XY=             -9.8980   XZ=              4.0238   YZ=             -0.5235

  Exact polarizability:  93.406  -0.524  77.419   7.556   2.373  52.306
 Approx polarizability: 100.365   1.705  90.084  12.229   6.133  63.413

 ******    1 imaginary frequencies (negative Signs) ******

                      1                      2                      3
                      A                      A                      A
 Frequencies --  -1702.5770                47.2387                96.2078
 Red. masses --      1.0704                 7.8649                 3.8079
 Frc consts  --      1.8281                 0.0103                 0.0208
 IR Inten    --    563.7128                 2.4010                 3.1474

                      4                      5                      6
                      A                      A                      A
 Frequencies --    121.5652               186.4699               195.2495
 Red. masses --      4.8055                 3.5559                 6.8789
 Frc consts  --      0.0418                 0.0728                 0.1545
 IR Inten    --      3.7591                 2.0223                 4.8732

                      7                      8                      9
                      A                      A                      A
 Frequencies --    273.5928               336.9520               391.1135
 Red. masses --      4.3315                 3.1458                 1.1852
 Frc consts  --      0.1910                 0.2104                 0.1068
 IR Inten    --      2.2437                11.9328                40.9294

                     10                     11                     12
                      A                      A                      A
 Frequencies --    417.4501               481.5667               548.9027
 Red. masses --      1.6806                 1.7659                 3.7488
 Frc consts  --      0.1726                 0.2413                 0.6655
 IR Inten    --     45.1284                13.5156                 3.7502

                     13                     14                     15
                      A                      A                      A
 Frequencies --    575.3167               612.3840               747.6927
 Red. masses --      3.1552                 7.3271                 1.3140
 Frc consts  --      0.6153                 1.6189                 0.4328
 IR Inten    --      1.2581                 9.0300                39.9201

                     16                     17                     18
                      A                      A                      A
 Frequencies --    762.6623               780.3186               788.7467
 Red. masses --      1.1408                 1.4790                 5.0449
 Frc consts  --      0.3909                 0.5306                 1.8492
 IR Inten    --     84.5945                16.6138                50.4176

                     19                     20                     21
                      A                      A                      A
 Frequencies --    873.1130               913.2597               958.8939
 Red. masses --      2.5761                 1.9209                 1.9561
 Frc consts  --      1.1571                 0.9439                 1.0597
 IR Inten    --      6.4417                11.3149                19.1488

                     22                     23                     24
                      A                      A                      A
 Frequencies --   1086.3163              1113.4809              1159.8437
 Red. masses --      3.0379                 1.7886                 1.4533
 Frc consts  --      2.1122                 1.3065                 1.1519
 IR Inten    --     46.8532                20.8982                 6.2630

                     25                     26                     27
                      A                      A                      A
 Frequencies --   1191.8699              1283.6200              1342.8506
 Red. masses --      1.3545                 2.3860                 1.5871
 Frc consts  --      1.1336                 2.3163                 1.6862
 IR Inten    --     18.2000               400.4702               247.8862

                     28                     29                     30
                      A                      A                      A
 Frequencies --   1414.3811              1446.2808              1481.0328
 Red. masses --      1.3472                 1.1674                 1.0715
 Frc consts  --      1.5879                 1.4387                 1.3848
 IR Inten    --     37.8891                 6.0913               101.1273

                     31                     32                     33
                      A                      A                      A
 Frequencies --   1489.0102              1827.3890              2272.0913
 Red. masses --      1.0972                11.8200                 5.7379
 Frc consts  --      1.4333                23.2558                17.4525
 IR Inten    --     36.0779               310.2962                88.6344

                     34                     35                     36
                      A                      A                      A
 Frequencies --   3087.2519              3114.5023              3139.1912
 Red. masses --      1.0580                 1.0563                 1.1058
 Frc consts  --      5.9413                 6.0371                 6.4203
 IR Inten    --     11.3444                 2.3947                 1.7935

                     37                     38                     39
                      A                      A                      A
 Frequencies --   3197.6592              3490.1080              3792.9991
 Red. masses --      1.1103                 1.1716                 1.0659
 Frc consts  --      6.6886                 8.4083                 9.0350
 IR Inten    --      2.2585                63.3757               134.3755

 - Thermochemistry -
 -------------------
 Temperature   298.150 Kelvin.  Pressure   1.00000 Atm.
 Atom     1 has atomic number  8 and mass  15.99491

 Molecular mass:   115.03952 amu.
 Principal axes and moments of inertia in atomic units:
                           1         2         3
     Eigenvalues --   539.197611519.765571851.38998
           X            0.99971  -0.02395   0.00311
           Y            0.02397   0.99969  -0.00605
           Z           -0.00297   0.00613   0.99998
 This molecule is an asymmetric top.
 Rotational symmetry number  1.
 Warning -- assumption of classical behavior for rotation
           may cause significant error
 Rotational temperatures (Kelvin)      0.16063     0.05699     0.04678
 Rotational constants (GHZ):           3.34709     1.18751     0.97480
    1 imaginary frequencies ignored.
 Zero-point vibrational energy     281353.2 (Joules/Mol)
                                   67.24502 (Kcal/Mol)
 Warning -- explicit consideration of  13 degrees of freedom as
           vibrations may cause significant error
 Vibrational temperatures:     67.97   138.42   174.91   268.29   280.92
          (Kelvin)            393.64   484.80   562.73   600.62   692.87
                              789.75   827.75   881.08  1075.76  1097.30
                             1122.70  1134.83  1256.21  1313.98  1379.63
                             1562.97  1602.05  1668.76  1714.83  1846.84
                             1932.06  2034.98  2080.88  2130.88  2142.35
                             2629.21  3269.03  4441.87  4481.07  4516.60
                             4600.72  5021.49  5457.28

 Zero-point correction=                           0.107162 (Hartree/Particle)
 Thermal correction to Energy=                    0.116257
 Thermal correction to Enthalpy=                  0.117201
 Thermal correction to Gibbs Free Energy=         0.072145
 Sum of electronic and zero-point Energies=           -420.095902
 Sum of electronic and thermal Energies=              -420.086807
 Sum of electronic and thermal Enthalpies=            -420.085863
 Sum of electronic and thermal Free Energies=         -420.130920

                     E (Thermal)             CV                S
                      KCal/Mol        Cal/Mol-Kelvin    Cal/Mol-Kelvin
 Total                   72.952             32.214             94.829
 Electronic               0.000              0.000              1.377
 Translational            0.889              2.981             40.136
 Rotational               0.889              2.981             28.808
 Vibrational             71.175             26.252             24.508
 Vibration     1          0.595              1.979              4.930
 Vibration     2          0.603              1.952              3.530
 Vibration     3          0.609              1.931              3.075
 Vibration     4          0.632              1.858              2.263
 Vibration     5          0.636              1.846              2.177
 Vibration     6          0.676              1.722              1.573
 Vibration     7          0.718              1.602              1.227
 Vibration     8          0.759              1.489              0.996
 Vibration     9          0.780              1.432              0.901
 Vibration    10          0.838              1.291              0.706
 Vibration    11          0.904              1.142              0.546
 Vibration    12          0.932              1.085              0.494
 Vibration    13          0.972              1.006              0.429

 1\1\GINC-AJ\Freq\UM062X\6-311++G(d,p)\C5H7O3(2)\AAYUSH\16-Aug-2025\0\\
 # freq 6-311++g(d,p) m062x\\Title Card Required\\0,2\O,2.342498,1.6626
 3,-0.33247\H,1.53488,1.778522,0.194004\C,-3.317503,0.189234,-0.516258\
 H,-4.333488,0.261904,-0.827541\C,-2.175332,0.107149,-0.165296\C,-0.791
 09,0.061609,0.273433\O,-0.229474,0.986148,0.798727\O,-0.244733,-1.1262
 56,0.02706\C,1.121646,-1.316993,0.44233\C,2.098777,-0.825022,-0.591138
 \H,1.207824,-2.398792,0.563442\H,1.274932,-0.836351,1.410236\H,3.11585
 ,-1.154102,-0.3822\H,1.797236,-1.049004,-1.613541\H,2.228239,0.476466,

 Normal termination of Gaussian 16 at Sat Aug 16 15:42:07 2025.
