 Gaussian 16, Revision A.03,
 Gaussian 16:  ES64L-G16RevA.03 25-Dec-2016

 --------------------------
 # ccsd(t)/6-311++g(d,p) sp
 --------------------------

 -------------------
 Title Card Required
 -------------------
 Symbolic Z-matrix:
 Charge =  0 Multiplicity = 2

                         Standard orientation:
 ---------------------------------------------------------------------
 Center     Atomic      Atomic             Coordinates (Angstroms)
 Number     Number       Type             X           Y           Z
 ---------------------------------------------------------------------
      1          6           0        2.588581   -0.220402   -1.128305
      2          1           0        3.476783   -0.487985   -1.652974
      3          6           0        1.603990   -0.019959   -0.427805
      4          6           0        0.325849    0.612711   -0.040601
      5          8           0        0.253126    1.696075    0.463348
      6          8           0       -0.693002   -0.189994   -0.310884
      7          6           0       -1.985309    0.282551    0.119910
      8          6           0       -2.991016   -0.784969   -0.240628
      9          1           0       -1.940814    0.463844    1.195659
     10          1           0       -2.190225    1.232729   -0.377494
     11          1           0       -3.000499   -0.957136   -1.317562
     12          1           0       -2.749523   -1.722653    0.260842
     13          1           0       -3.988348   -0.469288    0.070047
     14          8           0        1.763125   -1.082332    1.169892
     15          1           0        2.554063   -0.669095    1.547207
 ---------------------------------------------------------------------

 SCF Done:  E(UHF) =  -417.978792598     A.U. after   33 cycles
 E2 =    -0.1254942085D+01 EUMP2 =    -0.41923373468317D+03
 CCSD(T)= -0.41935451420D+03

 The electronic state is 2-A.
 Alpha  occ. eigenvalues --  -20.61749 -20.61070 -20.55558 -11.41213 -11.29529
 Alpha  occ. eigenvalues --  -11.27430 -11.27028 -11.22722  -1.48125  -1.37753
 Alpha  occ. eigenvalues --   -1.37480  -1.08151  -1.04770  -0.92035  -0.83287
 Alpha  occ. eigenvalues --   -0.77389  -0.72806  -0.69959  -0.68752  -0.67023
 Alpha  occ. eigenvalues --   -0.64373  -0.59287  -0.58505  -0.55653  -0.54259
 Alpha  occ. eigenvalues --   -0.51925  -0.51280  -0.47671  -0.46163  -0.43353
 Alpha  occ. eigenvalues --   -0.42182
 Alpha virt. eigenvalues --    0.03678   0.04490   0.05940   0.06554   0.07096
 Alpha virt. eigenvalues --    0.08125   0.09947   0.10554   0.11213   0.12218
 Alpha virt. eigenvalues --    0.12926   0.13859   0.14666   0.15265   0.16783

  Beta  occ. eigenvalues --  -20.61077 -20.58190 -20.55958 -11.40840 -11.29531
  Beta  occ. eigenvalues --  -11.29169 -11.24925 -11.22723  -1.48278  -1.38335
  Beta  occ. eigenvalues --   -1.25273  -1.07827  -1.03822  -0.90721  -0.82779
  Beta  occ. eigenvalues --   -0.76955  -0.71693  -0.69701  -0.69077  -0.64045
  Beta  occ. eigenvalues --   -0.60138  -0.58703  -0.55729  -0.52755  -0.51982
  Beta  occ. eigenvalues --   -0.49871  -0.48504  -0.47199  -0.44910  -0.42340
  Beta virt. eigenvalues --    0.03761   0.04453   0.04630   0.06537   0.07080
  Beta virt. eigenvalues --    0.07802   0.08390   0.09897   0.10669   0.12178
  Beta virt. eigenvalues --    0.12650   0.13062   0.14086   0.15433   0.16135

 Mulliken charges and spin densities:
               1          2
     1  C   -0.374024   1.210118
     2  H    0.223579  -0.091610
     3  C    0.641469  -1.050813
     4  C   -0.389342   0.212576
     5  O   -0.296336  -0.082530
     6  O   -0.059455   0.002756
     7  C   -0.025616   0.000359
     8  C   -0.601662   0.000747
     9  H    0.180089  -0.000037
    10  H    0.178229   0.000254
    11  H    0.150327   0.000072
    12  H    0.158136  -0.000065
    13  H    0.137888   0.000002
    14  O   -0.172928   0.828582
    15  H    0.249646  -0.030412
 Sum of Mulliken charges =  -0.00000   1.00000

 Dipole moment (field-independent basis, Debye):
    X=              0.4564    Y=             -0.8749    Z=             -0.8112  Tot=              1.2774
 Quadrupole moment (field-independent basis, Debye-Ang):
   XX=            -30.1680   YY=            -55.8887   ZZ=            -44.4464
   XY=             -1.8636   XZ=             -1.8096   YZ=             -1.0306

 -0=-419.2816372\MP4SDQ=-419.2923134\CCSD=-419.3000444\CCSD(T)=-419.354
 Normal termination of Gaussian 16 at Mon Apr 28 11:27:14 2025.
