 Gaussian 16, Revision A.03,
 Gaussian 16:  ES64L-G16RevA.03 25-Dec-2016

 --------------------------
 # ccsd(t)/6-311++g(d,p) sp
 --------------------------

 -------------------
 Title Card Required
 -------------------
 Symbolic Z-matrix:
 Charge =  0 Multiplicity = 2

                         Standard orientation:
 ---------------------------------------------------------------------
 Center     Atomic      Atomic             Coordinates (Angstroms)
 Number     Number       Type             X           Y           Z
 ---------------------------------------------------------------------
      1          6           0        2.572819   -0.295862   -1.119363
      2          1           0        3.473046   -0.631839   -1.586449
      3          6           0        1.628793   -0.139093   -0.276182
      4          6           0        0.331529    0.603324   -0.085657
      5          8           0        0.257999    1.726699    0.322759
      6          8           0       -0.692908   -0.211443   -0.297883
      7          6           0       -1.984980    0.294810    0.094880
      8          6           0       -2.992128   -0.796510   -0.180016
      9          1           0       -1.938464    0.559433    1.153287
     10          1           0       -2.189539    1.203428   -0.474744
     11          1           0       -3.001879   -1.052948   -1.240047
     12          1           0       -2.751875   -1.692127    0.393784
     13          1           0       -3.989104   -0.456132    0.104698
     14          8           0        1.750632   -0.938796    1.161395
     15          1           0        2.535837   -0.541513    1.557326
 ---------------------------------------------------------------------

 SCF Done:  E(UHF) =  -417.993550208     A.U. after   27 cycles
 E2 =    -0.1268248227D+01 EUMP2 =    -0.41926179843473D+03
 CCSD(T)= -0.41937560168D+03

 The electronic state is 2-A.
 Alpha  occ. eigenvalues --  -20.61201 -20.59338 -20.55906 -11.40942 -11.31515
 Alpha  occ. eigenvalues --  -11.29583 -11.28657 -11.22755  -1.48232  -1.37913
 Alpha  occ. eigenvalues --   -1.35252  -1.08870  -1.04945  -0.92124  -0.83701
 Alpha  occ. eigenvalues --   -0.77808  -0.72681  -0.70160  -0.68818  -0.66912
 Alpha  occ. eigenvalues --   -0.61174  -0.59120  -0.58333  -0.55692  -0.52721
 Alpha  occ. eigenvalues --   -0.51924  -0.50884  -0.47979  -0.46531  -0.43844
 Alpha  occ. eigenvalues --   -0.41517
 Alpha virt. eigenvalues --    0.03669   0.04485   0.05970   0.06544   0.07076
 Alpha virt. eigenvalues --    0.08136   0.09936   0.10800   0.11196   0.12826
 Alpha virt. eigenvalues --    0.13003   0.13859   0.14654   0.15257   0.16369

  Beta  occ. eigenvalues --  -20.61206 -20.57727 -20.56102 -11.40630 -11.33533
  Beta  occ. eigenvalues --  -11.29587 -11.25390 -11.22756  -1.48293  -1.38232
  Beta  occ. eigenvalues --   -1.30672  -1.07164  -1.03338  -0.90185  -0.82553
  Beta  occ. eigenvalues --   -0.77029  -0.71130  -0.70021  -0.68856  -0.65620
  Beta  occ. eigenvalues --   -0.60429  -0.58364  -0.55824  -0.53625  -0.51998
  Beta  occ. eigenvalues --   -0.50839  -0.50027  -0.47760  -0.46945  -0.41863
  Beta virt. eigenvalues --    0.03794   0.04156   0.04506   0.06498   0.07038
  Beta virt. eigenvalues --    0.07260   0.08194   0.09861   0.10386   0.12304
  Beta virt. eigenvalues --    0.13068   0.13387   0.14078   0.15330   0.16669

 Mulliken charges and spin densities:
               1          2
     1  C    0.131960   1.660997
     2  H    0.251878  -0.103776
     3  C   -0.044071  -1.027022
     4  C   -0.139726   0.165392
     5  O   -0.301888  -0.036000
     6  O   -0.060877   0.003484
     7  C   -0.047810  -0.000844
     8  C   -0.577084  -0.000308
     9  H    0.182926   0.000101
    10  H    0.177974   0.000287
    11  H    0.150240   0.000088
    12  H    0.159314  -0.000156
    13  H    0.137392   0.000035
    14  O   -0.284879   0.349930
    15  H    0.264652  -0.012209
 Sum of Mulliken charges =  -0.00000   1.00000

 Dipole moment (field-independent basis, Debye):
    X=              0.4381    Y=             -0.6978    Z=             -1.2606  Tot=              1.5060
 Quadrupole moment (field-independent basis, Debye-Ang):
   XX=            -30.4290   YY=            -56.2304   ZZ=            -45.2862
   XY=             -1.5918   XZ=             -2.4502   YZ=              0.4235

 0=-419.3020085\MP4SDQ=-419.3165956\CCSD=-419.3213258\CCSD(T)=-419.3756
 Normal termination of Gaussian 16 at Thu Apr 24 15:20:30 2025.
