 Gaussian 16, Revision A.03,
 Gaussian 16:  ES64L-G16RevA.03 25-Dec-2016

 --------------------------
 # ccsd(t)/6-311++g(d,p) sp
 --------------------------

 -------------------
 Title Card Required
 -------------------
 Symbolic Z-matrix:
 Charge =  0 Multiplicity = 2

                         Standard orientation:
 ---------------------------------------------------------------------
 Center     Atomic      Atomic             Coordinates (Angstroms)
 Number     Number       Type             X           Y           Z
 ---------------------------------------------------------------------
      1          6           0       -2.602269   -0.018714    1.158995
      2          1           0       -3.511019   -0.240274    1.668038
      3          6           0       -1.570963    0.209014    0.586680
      4          6           0       -0.320059    0.634934   -0.038924
      5          8           0       -0.241685    1.586846   -0.763751
      6          8           0        0.693251   -0.135030    0.338195
      7          6           0        1.984828    0.246399   -0.174088
      8          6           0        2.988658   -0.742840    0.369584
      9          1           0        1.941187    0.235844   -1.264884
     10          1           0        2.194037    1.269108    0.147221
     11          1           0        2.997111   -0.723199    1.460002
     12          1           0        2.745974   -1.753862    0.040757
     13          1           0        3.986791   -0.488798    0.008917
     14          8           0       -1.785034   -1.369188   -1.077044
     15          1           0       -2.567511   -0.932608   -1.452739
 ---------------------------------------------------------------------

 SCF Done:  E(UHF) =  -417.992701000     A.U. after   38 cycles
 E2 =    -0.1259654072D+01 EUMP2 =    -0.41925235507202D+03
 CCSD(T)= -0.41935722337D+03

 The electronic state is 2-A.
 Alpha  occ. eigenvalues --  -20.63047 -20.61110 -20.55713 -11.41411 -11.29532
 Alpha  occ. eigenvalues --  -11.26715 -11.25836 -11.22721  -1.48117  -1.38612
 Alpha  occ. eigenvalues --   -1.37758  -1.07815  -1.04447  -0.91969  -0.83225
 Alpha  occ. eigenvalues --   -0.77175  -0.72751  -0.69738  -0.68882  -0.67582
 Alpha  occ. eigenvalues --   -0.66006  -0.59635  -0.58694  -0.55678  -0.55364
 Alpha  occ. eigenvalues --   -0.51920  -0.51638  -0.47845  -0.46395  -0.42776
 Alpha  occ. eigenvalues --   -0.42201
 Alpha virt. eigenvalues --    0.03722   0.04482   0.05939   0.06561   0.07079
 Alpha virt. eigenvalues --    0.08155   0.09674   0.10031   0.10878   0.12051
 Alpha virt. eigenvalues --    0.12970   0.14056   0.15122   0.15323   0.16665

  Beta  occ. eigenvalues --  -20.61117 -20.58951 -20.55989 -11.41207 -11.29533
  Beta  occ. eigenvalues --  -11.26786 -11.25576 -11.22722  -1.48232  -1.38204
  Beta  occ. eigenvalues --   -1.23242  -1.07870  -1.04020  -0.91426  -0.83124
  Beta  occ. eigenvalues --   -0.77063  -0.72265  -0.69466  -0.69109  -0.63441
  Beta  occ. eigenvalues --   -0.60113  -0.58847  -0.55704  -0.52577  -0.51949
  Beta  occ. eigenvalues --   -0.50215  -0.48404  -0.47046  -0.42946  -0.42325
  Beta virt. eigenvalues --    0.03773   0.04463   0.05152   0.06548   0.07070
  Beta virt. eigenvalues --    0.08105   0.09013   0.09889   0.10455   0.11241
  Beta virt. eigenvalues --    0.12610   0.13032   0.14170   0.15372   0.15881

 Mulliken charges and spin densities:
               1          2
     1  C   -0.685352   0.534184
     2  H    0.219505  -0.037294
     3  C    1.480161  -0.465548
     4  C   -0.927433   0.074911
     5  O   -0.282386  -0.056903
     6  O   -0.045035   0.000481
     7  C   -0.009368  -0.001584
     8  C   -0.618329  -0.000168
     9  H    0.178550   0.000103
    10  H    0.177393  -0.000061
    11  H    0.150316   0.000006
    12  H    0.157245   0.000016
    13  H    0.138674  -0.000002
    14  O   -0.169706   0.990465
    15  H    0.235763  -0.038604
 Sum of Mulliken charges =  -0.00000   1.00000

 Dipole moment (field-independent basis, Debye):
    X=             -0.4948    Y=             -0.9007    Z=              0.6113  Tot=              1.1958
 Quadrupole moment (field-independent basis, Debye-Ang):
   XX=            -29.7294   YY=            -55.1452   ZZ=            -45.3243
   XY=              2.0234   XZ=             -1.3734   YZ=              2.9042

 =-419.2847441\MP4SDQ=-419.304586\CCSD=-419.3049606\CCSD(T)=-419.357223
 Normal termination of Gaussian 16 at Thu May  1 12:46:12 2025.
