 Gaussian 16, Revision A.03,
 Gaussian 16:  ES64L-G16RevA.03 25-Dec-2016

 --------------------------
 # ccsd(t)/6-311++g(d,p) sp
 --------------------------

 -------------------
 Title Card Required
 -------------------
 Symbolic Z-matrix:
 Charge =  0 Multiplicity = 2

                         Standard orientation:
 ---------------------------------------------------------------------
 Center     Atomic      Atomic             Coordinates (Angstroms)
 Number     Number       Type             X           Y           Z
 ---------------------------------------------------------------------
      1          6           0        2.589670   -0.207231   -1.130347
      2          1           0        3.478523   -0.468984   -1.656581
      3          6           0        1.600833   -0.002274   -0.445806
      4          6           0        0.325666    0.613819   -0.033981
      5          8           0        0.252395    1.690184    0.485097
      6          8           0       -0.693116   -0.186448   -0.312809
      7          6           0       -1.985319    0.280490    0.123832
      8          6           0       -2.990880   -0.782694   -0.249841
      9          1           0       -1.941112    0.448625    1.201735
     10          1           0       -2.190495    1.236691   -0.361816
     11          1           0       -3.000442   -0.941603   -1.328796
     12          1           0       -2.749078   -1.726473    0.239963
     13          1           0       -3.988258   -0.471232    0.064918
     14          8           0        1.765018   -1.103712    1.166991
     15          1           0        2.556661   -0.689876    1.543212
 ---------------------------------------------------------------------

 SCF Done:  E(UHF) =  -417.979605870     A.U. after   34 cycles
 E2 =    -0.1254876997D+01 EUMP2 =    -0.41923448286781D+03
 CCSD(T)= -0.41935388807D+03

 The electronic state is 2-A.
 Alpha  occ. eigenvalues --  -20.61973 -20.61057 -20.55542 -11.41229 -11.29522
 Alpha  occ. eigenvalues --  -11.27251 -11.26715 -11.22718  -1.48107  -1.37846
 Alpha  occ. eigenvalues --   -1.37599  -1.08079  -1.04733  -0.92027  -0.83260
 Alpha  occ. eigenvalues --   -0.77340  -0.72791  -0.69954  -0.68748  -0.67095
 Alpha  occ. eigenvalues --   -0.64733  -0.59311  -0.58520  -0.55651  -0.54456
 Alpha  occ. eigenvalues --   -0.51917  -0.51304  -0.47638  -0.46154  -0.43261
 Alpha  occ. eigenvalues --   -0.42184
 Alpha virt. eigenvalues --    0.03682   0.04492   0.05932   0.06556   0.07098
 Alpha virt. eigenvalues --    0.08125   0.09950   0.10498   0.11191   0.12170
 Alpha virt. eigenvalues --    0.12927   0.13858   0.14685   0.15260   0.16800

  Beta  occ. eigenvalues --  -20.61065 -20.58303 -20.55946 -11.40864 -11.29523
  Beta  occ. eigenvalues --  -11.28729 -11.24904 -11.22718  -1.48264  -1.38321
  Beta  occ. eigenvalues --   -1.24944  -1.07860  -1.03847  -0.90797  -0.82816
  Beta  occ. eigenvalues --   -0.76950  -0.71734  -0.69669  -0.69082  -0.63973
  Beta  occ. eigenvalues --   -0.60128  -0.58727  -0.55722  -0.52740  -0.51972
  Beta  occ. eigenvalues --   -0.49924  -0.48487  -0.47193  -0.44567  -0.42335
  Beta virt. eigenvalues --    0.03761   0.04462   0.04691   0.06539   0.07083
  Beta virt. eigenvalues --    0.07858   0.08440   0.09903   0.10702   0.12090
  Beta virt. eigenvalues --    0.12638   0.13056   0.14080   0.15430   0.16055

 Mulliken charges and spin densities:
               1          2
     1  C   -0.491998   1.131566
     2  H    0.219914  -0.086597
     3  C    0.773664  -1.007098
     4  C   -0.407390   0.215254
     5  O   -0.294627  -0.083588
     6  O   -0.057655   0.002465
     7  C   -0.021963   0.000392
     8  C   -0.605359   0.000896
     9  H    0.179749  -0.000059
    10  H    0.178210   0.000234
    11  H    0.150354   0.000068
    12  H    0.157960  -0.000050
    13  H    0.137961  -0.000000
    14  O   -0.166904   0.858167
    15  H    0.248082  -0.031650
 Sum of Mulliken charges =  -0.00000   1.00000

 Dipole moment (field-independent basis, Debye):
    X=              0.4618    Y=             -0.9017    Z=             -0.7496  Tot=              1.2602
 Quadrupole moment (field-independent basis, Debye-Ang):
   XX=            -30.1358   YY=            -55.8245   ZZ=            -44.4275
   XY=             -1.9154   XZ=             -1.6975   YZ=             -1.2272

 -0=-419.2808458\MP4SDQ=-419.2925872\CCSD=-419.299657\CCSD(T)=-419.3538
 Normal termination of Gaussian 16 at Mon Apr 28 08:49:39 2025.
