 Gaussian 16, Revision A.03,
 Gaussian 16:  ES64L-G16RevA.03 25-Dec-2016

 --------------------------
 # ccsd(t)/6-311++g(d,p) sp
 --------------------------

 -------------------
 Title Card Required
 -------------------
 Symbolic Z-matrix:
 Charge =  0 Multiplicity = 2

                         Standard orientation:
 ---------------------------------------------------------------------
 Center     Atomic      Atomic             Coordinates (Angstroms)
 Number     Number       Type             X           Y           Z
 ---------------------------------------------------------------------
      1          6           0        2.601465   -0.043041   -1.156166
      2          1           0        3.507812   -0.267998   -1.667996
      3          6           0        1.573677    0.185159   -0.576841
      4          6           0        0.320954    0.631888    0.030658
      5          8           0        0.242774    1.602112    0.730599
      6          8           0       -0.693359   -0.142271   -0.334599
      7          6           0       -1.985091    0.251318    0.167864
      8          6           0       -2.989019   -0.748811   -0.355285
      9          1           0       -1.942298    0.263867    1.258694
     10          1           0       -2.193317    1.267084   -0.175270
     11          1           0       -2.997564   -0.751609   -1.445874
     12          1           0       -2.746244   -1.752838   -0.005750
     13          1           0       -3.987128   -0.487411    0.000144
     14          8           0        1.782855   -1.337954    1.092650
     15          1           0        2.568664   -0.905274    1.465480
 ---------------------------------------------------------------------

 SCF Done:  E(UHF) =  -417.991632081     A.U. after   40 cycles
 E2 =    -0.1259408702D+01 EUMP2 =    -0.41925104078258D+03
 CCSD(T)= -0.41935693919D+03

 The electronic state is 2-A.
 Alpha  occ. eigenvalues --  -20.62999 -20.61098 -20.55682 -11.41392 -11.29527
 Alpha  occ. eigenvalues --  -11.26713 -11.25817 -11.22719  -1.48105  -1.38600
 Alpha  occ. eigenvalues --   -1.37733  -1.07813  -1.04465  -0.91981  -0.83222
 Alpha  occ. eigenvalues --   -0.77175  -0.72747  -0.69766  -0.68862  -0.67550
 Alpha  occ. eigenvalues --   -0.66002  -0.59596  -0.58682  -0.55675  -0.55326
 Alpha  occ. eigenvalues --   -0.51916  -0.51598  -0.47802  -0.46359  -0.42794
 Alpha  occ. eigenvalues --   -0.42181
 Alpha virt. eigenvalues --    0.03680   0.04483   0.05923   0.06558   0.07083
 Alpha virt. eigenvalues --    0.08145   0.09748   0.10025   0.10901   0.11840
 Alpha virt. eigenvalues --    0.12895   0.13720   0.14994   0.15234   0.16537

  Beta  occ. eigenvalues --  -20.61105 -20.58915 -20.55978 -11.41171 -11.29528
  Beta  occ. eigenvalues --  -11.26851 -11.25478 -11.22719  -1.48228  -1.38213
  Beta  occ. eigenvalues --   -1.23334  -1.07877  -1.04002  -0.91383  -0.83105
  Beta  occ. eigenvalues --   -0.77048  -0.72212  -0.69476  -0.69108  -0.63480
  Beta  occ. eigenvalues --   -0.60109  -0.58847  -0.55703  -0.52597  -0.51947
  Beta  occ. eigenvalues --   -0.50199  -0.48409  -0.47063  -0.43004  -0.42312
  Beta virt. eigenvalues --    0.03735   0.04464   0.05105   0.06544   0.07073
  Beta virt. eigenvalues --    0.08087   0.08968   0.09904   0.10527   0.11146
  Beta virt. eigenvalues --    0.12509   0.12988   0.13914   0.15346   0.15707

 Mulliken charges and spin densities:
               1          2
     1  C   -2.013262   0.468259
     2  H    0.192105  -0.042314
     3  C    2.307597  -0.535322
     4  C   -0.415614   0.219381
     5  O   -0.281207  -0.061232
     6  O   -0.040611   0.001192
     7  C    0.019899  -0.000066
     8  C   -0.644966   0.001999
     9  H    0.178828  -0.000036
    10  H    0.177540  -0.000055
    11  H    0.150611   0.000010
    12  H    0.157754  -0.000002
    13  H    0.139043   0.000003
    14  O   -0.165631   0.985599
    15  H    0.237914  -0.037416
 Sum of Mulliken charges =  -0.00000   1.00000

 Dipole moment (field-independent basis, Debye):
    X=              0.4934    Y=             -0.9231    Z=             -0.5978  Tot=              1.2054
 Quadrupole moment (field-independent basis, Debye-Ang):
   XX=            -29.7579   YY=            -55.2285   ZZ=            -45.1671
   XY=             -2.0527   XZ=             -1.3596   YZ=             -2.7452

 PMP3-0=-419.284275\MP4SDQ=-419.3036993\CCSD=-419.3045355\CCSD(T)=-419.
 Normal termination of Gaussian 16 at Mon Apr 28 12:20:24 2025.
