 Gaussian 16, Revision A.03,
 Gaussian 16:  ES64L-G16RevA.03 25-Dec-2016

 --------------------------
 # ccsd(t)/6-311++g(d,p) sp
 --------------------------

 -------------------
 Title Card Required
 -------------------
 Symbolic Z-matrix:
 Charge =  0 Multiplicity = 2

                         Standard orientation:
 ---------------------------------------------------------------------
 Center     Atomic      Atomic             Coordinates (Angstroms)
 Number     Number       Type             X           Y           Z
 ---------------------------------------------------------------------
      1          6           0        2.581386   -0.273547   -1.121542
      2          1           0        3.473232   -0.579223   -1.620611
      3          6           0        1.619257   -0.098862   -0.333207
      4          6           0        0.328292    0.607337   -0.070994
      5          8           0        0.256190    1.718184    0.369031
      6          8           0       -0.692801   -0.204750   -0.302223
      7          6           0       -1.985196    0.290907    0.102778
      8          6           0       -2.991675   -0.793434   -0.200441
      9          1           0       -1.939581    0.528636    1.167484
     10          1           0       -2.189436    1.213558   -0.444072
     11          1           0       -3.001039   -1.022762   -1.266669
     12          1           0       -2.751165   -1.703218    0.350467
     13          1           0       -3.988822   -0.460747    0.092591
     14          8           0        1.754471   -0.987233    1.171262
     15          1           0        2.541545   -0.580258    1.556682
 ---------------------------------------------------------------------

 SCF Done:  E(UHF) =  -417.982384313     A.U. after   28 cycles
 E2 =    -0.1262235623D+01 EUMP2 =    -0.41924461993587D+03
 CCSD(T)= -0.41936468164D+03

 The electronic state is 2-A.
 Alpha  occ. eigenvalues --  -20.61186 -20.60179 -20.55784 -11.41118 -11.29845
 Alpha  occ. eigenvalues --  -11.29581 -11.28318 -11.22753  -1.48241  -1.37869
 Alpha  occ. eigenvalues --   -1.35855  -1.08711  -1.04943  -0.92148  -0.83552
 Alpha  occ. eigenvalues --   -0.77704  -0.72884  -0.70004  -0.68830  -0.66659
 Alpha  occ. eigenvalues --   -0.62060  -0.59138  -0.58455  -0.55684  -0.53055
 Alpha  occ. eigenvalues --   -0.51960  -0.51074  -0.47969  -0.46374  -0.43871
 Alpha  occ. eigenvalues --   -0.41931
 Alpha virt. eigenvalues --    0.03649   0.04480   0.05998   0.06545   0.07084
 Alpha virt. eigenvalues --    0.08136   0.09937   0.10710   0.11204   0.12589
 Alpha virt. eigenvalues --    0.12888   0.13821   0.14583   0.15272   0.16543

  Beta  occ. eigenvalues --  -20.61191 -20.57613 -20.56086 -11.40763 -11.32088
  Beta  occ. eigenvalues --  -11.29584 -11.25310 -11.22753  -1.48347  -1.38352
  Beta  occ. eigenvalues --   -1.27902  -1.07527  -1.03622  -0.90405  -0.82655
  Beta  occ. eigenvalues --   -0.77036  -0.71508  -0.69880  -0.69021  -0.64640
  Beta  occ. eigenvalues --   -0.60246  -0.58549  -0.55787  -0.52922  -0.52025
  Beta  occ. eigenvalues --   -0.49809  -0.48844  -0.47361  -0.47038  -0.42257
  Beta virt. eigenvalues --    0.03765   0.04198   0.04498   0.06515   0.07051
  Beta virt. eigenvalues --    0.07437   0.08228   0.09865   0.10449   0.12247
  Beta virt. eigenvalues --    0.12974   0.13108   0.14086   0.15393   0.16477

 Mulliken charges and spin densities:
               1          2
     1  C    0.031412   1.543386
     2  H    0.243838  -0.106869
     3  C    0.118174  -1.124894
     4  C   -0.229653   0.188762
     5  O   -0.301367  -0.059942
     6  O   -0.062947   0.003711
     7  C   -0.041016  -0.000329
     8  C   -0.584749   0.000051
     9  H    0.182241   0.000075
    10  H    0.178072   0.000316
    11  H    0.150148   0.000085
    12  H    0.159253  -0.000147
    13  H    0.137617   0.000017
    14  O   -0.239102   0.576075
    15  H    0.258079  -0.020298
 Sum of Mulliken charges =  -0.00000   1.00000

 Dipole moment (field-independent basis, Debye):
    X=              0.4383    Y=             -0.7069    Z=             -1.2079  Tot=              1.4666
 Quadrupole moment (field-independent basis, Debye-Ang):
   XX=            -30.2720   YY=            -56.1839   ZZ=            -44.9075
   XY=             -1.5802   XZ=             -2.4847   YZ=              0.0053

 MP3-0=-419.2918792\MP4SDQ=-419.3023245\CCSD=-419.3098242\CCSD(T)=-419.
 Normal termination of Gaussian 16 at Thu Apr 24 08:37:11 2025.
