 Gaussian 16, Revision A.03,
 Gaussian 16:  ES64L-G16RevA.03 25-Dec-2016

 --------------------------
 # ccsd(t)/6-311++g(d,p) sp
 --------------------------

 -------------------
 Title Card Required
 -------------------
 Symbolic Z-matrix:
 Charge =  0 Multiplicity = 2

                         Standard orientation:
 ---------------------------------------------------------------------
 Center     Atomic      Atomic             Coordinates (Angstroms)
 Number     Number       Type             X           Y           Z
 ---------------------------------------------------------------------
      1          6           0        2.600380   -0.065860   -1.153232
      2          1           0        3.504225   -0.293975   -1.668074
      3          6           0        1.576458    0.161912   -0.565772
      4          6           0        0.321813    0.628989    0.022831
      5          8           0        0.243947    1.615961    0.698750
      6          8           0       -0.693461   -0.148788   -0.331417
      7          6           0       -1.985252    0.255788    0.162008
      8          6           0       -2.989333   -0.754174   -0.341552
      9          1           0       -1.942892    0.289826    1.252418
     10          1           0       -2.192765    1.264651   -0.201236
     11          1           0       -2.998035   -0.778062   -1.431883
     12          1           0       -2.746502   -1.751250    0.027303
     13          1           0       -3.987383   -0.485893    0.008872
     14          8           0        1.780752   -1.307976    1.106334
     15          1           0        2.569047   -0.878807    1.477563
 ---------------------------------------------------------------------

 SCF Done:  E(UHF) =  -417.990399835     A.U. after   38 cycles
 E2 =    -0.1258964661D+01 EUMP2 =    -0.41924936449570D+03
 CCSD(T)= -0.41935639809D+03

 The electronic state is 2-A.
 Alpha  occ. eigenvalues --  -20.62942 -20.61087 -20.55654 -11.41373 -11.29522
 Alpha  occ. eigenvalues --  -11.26719 -11.25811 -11.22716  -1.48095  -1.38580
 Alpha  occ. eigenvalues --   -1.37712  -1.07819  -1.04487  -0.91991  -0.83220
 Alpha  occ. eigenvalues --   -0.77177  -0.72747  -0.69795  -0.68843  -0.67514
 Alpha  occ. eigenvalues --   -0.65983  -0.59559  -0.58669  -0.55671  -0.55280
 Alpha  occ. eigenvalues --   -0.51912  -0.51559  -0.47761  -0.46325  -0.42821
 Alpha  occ. eigenvalues --   -0.42169
 Alpha virt. eigenvalues --    0.03683   0.04485   0.05923   0.06558   0.07087
 Alpha virt. eigenvalues --    0.08142   0.09819   0.10028   0.10929   0.11885
 Alpha virt. eigenvalues --    0.12896   0.13739   0.14941   0.15234   0.16579

  Beta  occ. eigenvalues --  -20.61094 -20.58874 -20.55969 -11.41133 -11.29523
  Beta  occ. eigenvalues --  -11.26937 -11.25381 -11.22716  -1.48226  -1.38224
  Beta  occ. eigenvalues --   -1.23437  -1.07887  -1.03986  -0.91337  -0.83084
  Beta  occ. eigenvalues --   -0.77033  -0.72160  -0.69489  -0.69108  -0.63522
  Beta  occ. eigenvalues --   -0.60106  -0.58845  -0.55702  -0.52616  -0.51946
  Beta  occ. eigenvalues --   -0.50183  -0.48416  -0.47080  -0.43081  -0.42306
  Beta virt. eigenvalues --    0.03739   0.04466   0.05075   0.06544   0.07077
  Beta virt. eigenvalues --    0.08075   0.08916   0.09913   0.10599   0.11207
  Beta virt. eigenvalues --    0.12548   0.12995   0.13941   0.15353   0.15697

 Mulliken charges and spin densities:
               1          2
     1  C   -1.843210   0.530381
     2  H    0.195202  -0.046336
     3  C    2.100403  -0.588156
     4  C   -0.383136   0.224756
     5  O   -0.282192  -0.065343
     6  O   -0.041556   0.001228
     7  C    0.015312   0.000076
     8  C   -0.639396   0.001994
     9  H    0.178788  -0.000074
    10  H    0.177613  -0.000019
    11  H    0.150556   0.000016
    12  H    0.157696  -0.000006
    13  H    0.138887   0.000003
    14  O   -0.163749   0.978409
    15  H    0.238783  -0.036927
 Sum of Mulliken charges =  -0.00000   1.00000

 Dipole moment (field-independent basis, Debye):
    X=              0.4929    Y=             -0.9383    Z=             -0.5892  Tot=              1.2127
 Quadrupole moment (field-independent basis, Debye-Ang):
   XX=            -29.7917   YY=            -55.3071   ZZ=            -45.0246
   XY=             -2.0678   XZ=             -1.3530   YZ=             -2.5882

 -0=-419.2835711\MP4SDQ=-419.3025068\CCSD=-419.3038607\CCSD(T)=-419.356
 Normal termination of Gaussian 16 at Thu May  1 22:14:06 2025.
