 Gaussian 16, Revision A.03,
 Gaussian 16:  ES64L-G16RevA.03 25-Dec-2016

 --------------------------
 # ccsd(t)/6-311++g(d,p) sp
 --------------------------

 -------------------
 Title Card Required
 -------------------
 Symbolic Z-matrix:
 Charge =  0 Multiplicity = 2

                         Standard orientation:
 ---------------------------------------------------------------------
 Center     Atomic      Atomic             Coordinates (Angstroms)
 Number     Number       Type             X           Y           Z
 ---------------------------------------------------------------------
      1          6           0        2.585080   -0.254723   -1.123726
      2          1           0        3.473936   -0.543355   -1.636796
      3          6           0        1.613097   -0.069172   -0.371491
      4          6           0        0.326916    0.609628   -0.059607
      5          8           0        0.255024    1.710656    0.404088
      6          8           0       -0.692812   -0.199408   -0.305490
      7          6           0       -1.985268    0.287902    0.109070
      8          6           0       -2.991401   -0.790584   -0.215508
      9          1           0       -1.940117    0.504842    1.178186
     10          1           0       -2.189624    1.220998   -0.419791
     11          1           0       -3.000739   -0.998904   -1.286037
     12          1           0       -2.750566   -1.710941    0.317388
     13          1           0       -3.988626   -0.464027    0.084071
     14          8           0        1.757655   -1.023069    1.173435
     15          1           0        2.546261   -0.612355    1.554287
 ---------------------------------------------------------------------

 SCF Done:  E(UHF) =  -417.978987142     A.U. after   30 cycles
 E2 =    -0.1257782598D+01 EUMP2 =    -0.41923676973918D+03
 CCSD(T)= -0.41935915086D+03

 The electronic state is 2-A.
 Alpha  occ. eigenvalues --  -20.61134 -20.60884 -20.55669 -11.41163 -11.29559
 Alpha  occ. eigenvalues --  -11.28598 -11.27898 -11.22740  -1.48194  -1.37795
 Alpha  occ. eigenvalues --   -1.36600  -1.08452  -1.04880  -0.92097  -0.83426
 Alpha  occ. eigenvalues --   -0.77573  -0.72866  -0.69973  -0.68791  -0.66779
 Alpha  occ. eigenvalues --   -0.63025  -0.59207  -0.58475  -0.55667  -0.53540
 Alpha  occ. eigenvalues --   -0.51950  -0.51188  -0.47840  -0.46258  -0.43676
 Alpha  occ. eigenvalues --   -0.42108
 Alpha virt. eigenvalues --    0.03659   0.04484   0.05976   0.06549   0.07089
 Alpha virt. eigenvalues --    0.08131   0.09941   0.10668   0.11230   0.12409
 Alpha virt. eigenvalues --    0.12908   0.13838   0.14606   0.15274   0.16658

  Beta  occ. eigenvalues --  -20.61139 -20.57817 -20.56027 -11.40789 -11.30829
  Beta  occ. eigenvalues --  -11.29561 -11.25126 -11.22740  -1.48325  -1.38362
  Beta  occ. eigenvalues --   -1.26610  -1.07679  -1.03719  -0.90518  -0.82694
  Beta  occ. eigenvalues --   -0.76998  -0.71597  -0.69805  -0.69056  -0.64327
  Beta  occ. eigenvalues --   -0.60187  -0.58621  -0.55762  -0.52818  -0.52012
  Beta  occ. eigenvalues --   -0.49749  -0.48598  -0.47191  -0.46232  -0.42329
  Beta virt. eigenvalues --    0.03761   0.04333   0.04513   0.06527   0.07065
  Beta virt. eigenvalues --    0.07590   0.08276   0.09879   0.10537   0.12265
  Beta virt. eigenvalues --    0.12814   0.13080   0.14091   0.15421   0.16352

 Mulliken charges and spin densities:
               1          2
     1  C   -0.094985   1.428101
     2  H    0.235747  -0.103421
     3  C    0.293316  -1.133252
     4  C   -0.299861   0.200858
     5  O   -0.300221  -0.072741
     6  O   -0.062776   0.003514
     7  C   -0.035382   0.000039
     8  C   -0.591054   0.000314
     9  H    0.181350   0.000034
    10  H    0.178156   0.000301
    11  H    0.150209   0.000082
    12  H    0.158814  -0.000118
    13  H    0.137712   0.000010
    14  O   -0.205585   0.701471
    15  H    0.254559  -0.025193
 Sum of Mulliken charges =  -0.00000   1.00000

 Dipole moment (field-independent basis, Debye):
    X=              0.4445    Y=             -0.7732    Z=             -1.0478  Tot=              1.3760
 Quadrupole moment (field-independent basis, Debye-Ang):
   XX=            -30.2333   YY=            -56.0797   ZZ=            -44.6600
   XY=             -1.6852   XZ=             -2.2250   YZ=             -0.4049

 0=-419.2865908\MP4SDQ=-419.2956658\CCSD=-419.3042343\CCSD(T)=-419.3591
 Normal termination of Gaussian 16 at Thu Apr 24 13:26:03 2025.
