 Gaussian 16, Revision A.03,
 Gaussian 16:  ES64L-G16RevA.03 25-Dec-2016

 --------------------------
 # ccsd(t)/6-311++g(d,p) sp
 --------------------------

 -------------------
 Title Card Required
 -------------------
 Symbolic Z-matrix:
 Charge =  0 Multiplicity = 2

                         Standard orientation:
 ---------------------------------------------------------------------
 Center     Atomic      Atomic             Coordinates (Angstroms)
 Number     Number       Type             X           Y           Z
 ---------------------------------------------------------------------
      1          6           0        2.243173   -0.377833   -0.056252
      2          1           0        3.645085   -0.919395   -0.172916
      3          6           0        1.137132    0.101128   -0.012099
      4          6           0       -0.215444    0.644002   -0.000404
      5          8           0       -0.451336    1.819311    0.015573
      6          8           0       -1.126082   -0.324734   -0.005838
      7          6           0       -2.499648    0.113097    0.012430
      8          6           0       -3.359853   -1.128803    0.000264
      9          1           0       -2.657272    0.718359    0.907484
     10          1           0       -2.672579    0.746793   -0.859822
     11          1           0       -3.169294   -1.718261   -0.897303
     12          1           0       -3.152538   -1.747108    0.874380
     13          1           0       -4.413762   -0.846029    0.014620
     14          8           0        4.568100   -0.571074    0.095743
     15          1           0        4.662736    0.268079   -0.373901
 ---------------------------------------------------------------------

 SCF Done:  E(UHF) =  -417.938925630     A.U. after   34 cycles
 E2 =    -0.1264626863D+01 EUMP2 =    -0.41920355249282D+03
 CCSD(T)= -0.41932353503D+03

 The electronic state is 2-A.
 Alpha  occ. eigenvalues --  -20.62170 -20.61411 -20.56801 -11.42496 -11.31810
 Alpha  occ. eigenvalues --  -11.30398 -11.26280 -11.23455  -1.49066  -1.40278
 Alpha  occ. eigenvalues --   -1.38555  -1.09468  -1.05747  -0.93115  -0.84120
 Alpha  occ. eigenvalues --   -0.80032  -0.76996  -0.70248  -0.69756  -0.67138
 Alpha  occ. eigenvalues --   -0.60459  -0.59791  -0.57164  -0.56406  -0.55173
 Alpha  occ. eigenvalues --   -0.52768  -0.52539  -0.48917  -0.47372  -0.46218
 Alpha  occ. eigenvalues --   -0.45842
 Alpha virt. eigenvalues --    0.03848   0.04769   0.06006   0.06216   0.07015
 Alpha virt. eigenvalues --    0.07888   0.08415   0.09504   0.11204   0.11738
 Alpha virt. eigenvalues --    0.12358   0.13814   0.15308   0.15352   0.15818

  Beta  occ. eigenvalues --  -20.62187 -20.59689 -20.57439 -11.42008 -11.30407
  Beta  occ. eigenvalues --  -11.28075 -11.26481 -11.23456  -1.49373  -1.39586
  Beta  occ. eigenvalues --   -1.34534  -1.08946  -1.04347  -0.91200  -0.83341
  Beta  occ. eigenvalues --   -0.77332  -0.72663  -0.70434  -0.70411  -0.61452
  Beta  occ. eigenvalues --   -0.60120  -0.58560  -0.56565  -0.53600  -0.52866
  Beta  occ. eigenvalues --   -0.52341  -0.49800  -0.48434  -0.44261  -0.43867
  Beta virt. eigenvalues --   -0.00619   0.03904   0.05920   0.06030   0.06247
  Beta virt. eigenvalues --    0.07028   0.08027   0.09366   0.10054   0.11254
  Beta virt. eigenvalues --    0.12454   0.12759   0.13785   0.15184   0.15936

 Mulliken charges and spin densities:
               1          2
     1  C   -0.635698   1.858489
     2  H    0.370294  -0.120025
     3  C    1.512405  -1.036415
     4  C   -0.918842   0.133262
     5  O   -0.289209  -0.132318
     6  O   -0.105912   0.003595
     7  C   -0.031599   0.000378
     8  C   -0.617187  -0.000588
     9  H    0.179470  -0.000140
    10  H    0.177405  -0.000010
    11  H    0.153752   0.000004
    12  H    0.154737   0.000002
    13  H    0.142010  -0.000066
    14  O   -0.362497   0.309474
    15  H    0.270870  -0.015642
 Sum of Mulliken charges =  -0.00000   1.00000

 Dipole moment (field-independent basis, Debye):
    X=             -1.9404    Y=             -0.8063    Z=             -1.1764  Tot=              2.4082
 Quadrupole moment (field-independent basis, Debye-Ang):
   XX=            -42.4652   YY=            -54.2845   ZZ=            -47.0471
   XY=              5.8708   XZ=             -5.5365   YZ=             -0.1070

 1984\PMP3-0=-419.2494606\MP4SDQ=-419.257561\CCSD=-419.2685151\CCSD(T)=
 Normal termination of Gaussian 16 at Sun Apr 20 03:52:13 2025.
