 Gaussian 16, Revision A.03,
 Gaussian 16:  ES64L-G16RevA.03 25-Dec-2016

 --------------------------
 # ccsd(t)/6-311++g(d,p) sp
 --------------------------

 -------------------
 Title Card Required
 -------------------
 Symbolic Z-matrix:
 Charge =  0 Multiplicity = 2

                         Standard orientation:
 ---------------------------------------------------------------------
 Center     Atomic      Atomic             Coordinates (Angstroms)
 Number     Number       Type             X           Y           Z
 ---------------------------------------------------------------------
      1          6           0        2.247442   -0.381043   -0.058381
      2          1           0        3.560604   -0.872858   -0.137829
      3          6           0        1.140592    0.097733   -0.013256
      4          6           0       -0.212976    0.643554   -0.000034
      5          8           0       -0.449332    1.818936    0.016159
      6          8           0       -1.125330   -0.324432   -0.006131
      7          6           0       -2.498668    0.114313    0.012553
      8          6           0       -3.359886   -1.127017   -0.000051
      9          1           0       -2.655900    0.719315    0.907869
     10          1           0       -2.671463    0.748486   -0.859381
     11          1           0       -3.169862   -1.716239   -0.897888
     12          1           0       -3.152859   -1.745888    0.873742
     13          1           0       -4.413605   -0.843514    0.014608
     14          8           0        4.566322   -0.575198    0.092548
     15          1           0        4.670779    0.271014   -0.366720
 ---------------------------------------------------------------------

 SCF Done:  E(UHF) =  -417.935691769     A.U. after   35 cycles
 E2 =    -0.1268707966D+01 EUMP2 =    -0.41920439973455D+03
 CCSD(T)= -0.41932328391D+03

 The electronic state is 2-A.
 Alpha  occ. eigenvalues --  -20.64074 -20.61865 -20.56453 -11.42144 -11.30609
 Alpha  occ. eigenvalues --  -11.30176 -11.25672 -11.23279  -1.48725  -1.42265
 Alpha  occ. eigenvalues --   -1.38239  -1.08670  -1.05360  -0.92731  -0.84044
 Alpha  occ. eigenvalues --   -0.80991  -0.76760  -0.69958  -0.69486  -0.68686
 Alpha  occ. eigenvalues --   -0.60205  -0.59622  -0.57845  -0.56721  -0.56117
 Alpha  occ. eigenvalues --   -0.52535  -0.52322  -0.48440  -0.46905  -0.45299
 Alpha  occ. eigenvalues --   -0.44948
 Alpha virt. eigenvalues --    0.03944   0.04542   0.06118   0.06348   0.06963
 Alpha virt. eigenvalues --    0.07954   0.08815   0.09632   0.11322   0.11913
 Alpha virt. eigenvalues --    0.12538   0.14039   0.15447   0.15647   0.15758

  Beta  occ. eigenvalues --  -20.61884 -20.61601 -20.57038 -11.41699 -11.30184
  Beta  occ. eigenvalues --  -11.27368 -11.25898 -11.23280  -1.49010  -1.39187
  Beta  occ. eigenvalues --   -1.33782  -1.08438  -1.04023  -0.90972  -0.83092
  Beta  occ. eigenvalues --   -0.77038  -0.72829  -0.70118  -0.70059  -0.61114
  Beta  occ. eigenvalues --   -0.59970  -0.58710  -0.56348  -0.53351  -0.53241
  Beta  occ. eigenvalues --   -0.52587  -0.49355  -0.48114  -0.43516  -0.43142
  Beta virt. eigenvalues --   -0.00745   0.04012   0.05633   0.06135   0.06363
  Beta virt. eigenvalues --    0.06995   0.08054   0.09485   0.10130   0.11320
  Beta virt. eigenvalues --    0.12608   0.12918   0.13989   0.15156   0.16042

 Mulliken charges and spin densities:
               1          2
     1  C   -0.687399   1.651735
     2  H    0.393463  -0.158389
     3  C    1.496819  -0.975755
     4  C   -0.929386   0.128873
     5  O   -0.293597  -0.121004
     6  O   -0.105404   0.003361
     7  C   -0.030225   0.000310
     8  C   -0.616620  -0.000491
     9  H    0.178596  -0.000126
    10  H    0.176811  -0.000004
    11  H    0.153601   0.000003
    12  H    0.154383   0.000003
    13  H    0.141277  -0.000064
    14  O   -0.305829   0.494253
    15  H    0.273508  -0.022705
 Sum of Mulliken charges =  -0.00000   1.00000

 Dipole moment (field-independent basis, Debye):
    X=             -1.1891    Y=             -0.7445    Z=             -1.0478  Tot=              1.7510
 Quadrupole moment (field-independent basis, Debye-Ang):
   XX=            -37.4630   YY=            -54.6462   ZZ=            -47.1791
   XY=              5.8769   XZ=             -5.0264   YZ=             -0.2387

 0=-419.2501732\MP4SDQ=-419.2587103\CCSD=-419.26798\CCSD(T)=-419.323283
 Normal termination of Gaussian 16 at Fri Apr 18 06:33:10 2025.
