 Gaussian 16, Revision A.03,
 Gaussian 16:  ES64L-G16RevA.03 25-Dec-2016

 --------------------------
 # ccsd(t)/6-311++g(d,p) sp
 --------------------------

 -------------------
 Title Card Required
 -------------------
 Symbolic Z-matrix:
 Charge =  0 Multiplicity = 2

                         Standard orientation:
 ---------------------------------------------------------------------
 Center     Atomic      Atomic             Coordinates (Angstroms)
 Number     Number       Type             X           Y           Z
 ---------------------------------------------------------------------
      1          6           0        2.250980   -0.383563   -0.059901
      2          1           0        3.460581   -0.844939   -0.122350
      3          6           0        1.143467    0.095158   -0.014018
      4          6           0       -0.210760    0.643347    0.000357
      5          8           0       -0.447643    1.818813    0.016823
      6          8           0       -1.124580   -0.324160   -0.006222
      7          6           0       -2.497641    0.115293    0.012905
      8          6           0       -3.359641   -1.125593   -0.000099
      9          1           0       -2.654547    0.719984    0.908515
     10          1           0       -2.670446    0.749994   -0.858649
     11          1           0       -3.170100   -1.714488   -0.898260
     12          1           0       -3.152759   -1.745025    0.873334
     13          1           0       -4.413229   -0.841532    0.014900
     14          8           0        4.567869   -0.577798    0.090733
     15          1           0        4.676899    0.273302   -0.363618
 ---------------------------------------------------------------------

 SCF Done:  E(UHF) =  -417.941125030     A.U. after   40 cycles
 E2 =    -0.1269737747D+01 EUMP2 =    -0.41921086277724D+03
 CCSD(T)= -0.41932602639D+03

 The electronic state is 2-A.
 Alpha  occ. eigenvalues --  -20.67468 -20.61322 -20.55794 -11.41446 -11.29775
 Alpha  occ. eigenvalues --  -11.28077 -11.24568 -11.22967  -1.48128  -1.45132
 Alpha  occ. eigenvalues --   -1.37691  -1.07379  -1.04483  -0.92022  -0.84163
 Alpha  occ. eigenvalues --   -0.81611  -0.76215  -0.71879  -0.69456  -0.68856
 Alpha  occ. eigenvalues --   -0.61000  -0.59750  -0.59214  -0.56532  -0.55791
 Alpha  occ. eigenvalues --   -0.52121  -0.51952  -0.47707  -0.46405  -0.43189
 Alpha  occ. eigenvalues --   -0.42935
 Alpha virt. eigenvalues --    0.03910   0.04291   0.06299   0.06576   0.06877
 Alpha virt. eigenvalues --    0.08048   0.09468   0.09881   0.11547   0.12259
 Alpha virt. eigenvalues --    0.12823   0.14345   0.15598   0.15692   0.16211

  Beta  occ. eigenvalues --  -20.64095 -20.61341 -20.56254 -11.41104 -11.29781
  Beta  occ. eigenvalues --  -11.25953 -11.24711 -11.22967  -1.48355  -1.38442
  Beta  occ. eigenvalues --   -1.33011  -1.07533  -1.03400  -0.90620  -0.82688
  Beta  occ. eigenvalues --   -0.76608  -0.73759  -0.69585  -0.69364  -0.61386
  Beta  occ. eigenvalues --   -0.60459  -0.59021  -0.55959  -0.54671  -0.52745
  Beta  occ. eigenvalues --   -0.52176  -0.48520  -0.47497  -0.42059  -0.41734
  Beta virt. eigenvalues --    0.00150   0.04205   0.05326   0.06314   0.06582
  Beta virt. eigenvalues --    0.06942   0.08125   0.09689   0.10260   0.11535
  Beta virt. eigenvalues --    0.12864   0.13190   0.14307   0.15264   0.16197

 Mulliken charges and spin densities:
               1          2
     1  C   -0.762242   1.210411
     2  H    0.419143  -0.147180
     3  C    1.451520  -0.787910
     4  C   -0.924123   0.107282
     5  O   -0.302217  -0.094657
     6  O   -0.104858   0.002755
     7  C   -0.027837   0.000158
     8  C   -0.616385  -0.000275
     9  H    0.177273  -0.000104
    10  H    0.175696   0.000006
    11  H    0.153132   0.000003
    12  H    0.153782   0.000006
    13  H    0.139996  -0.000054
    14  O   -0.211559   0.741164
    15  H    0.278679  -0.031604
 Sum of Mulliken charges =  -0.00000   1.00000

 Dipole moment (field-independent basis, Debye):
    X=              0.0897    Y=             -0.8021    Z=             -0.9590  Tot=              1.2534
 Quadrupole moment (field-independent basis, Debye-Ang):
   XX=            -29.4059   YY=            -55.0219   ZZ=            -47.3716
   XY=              5.2691   XZ=             -4.7101   YZ=             -0.3270

 3562\PMP3-0=-419.2507061\MP4SDQ=-419.264849\CCSD=-419.2709781\CCSD(T)=
 Normal termination of Gaussian 16 at Thu Apr 17 20:55:47 2025.
