 Gaussian 16, Revision A.03,
 Gaussian 16:  ES64L-G16RevA.03 25-Dec-2016

 --------------------------
 # ccsd(t)/6-311++g(d,p) sp
 --------------------------

 -------------------
 Title Card Required
 -------------------
 Symbolic Z-matrix:
 Charge =  0 Multiplicity = 2

                         Standard orientation:
 ---------------------------------------------------------------------
 Center     Atomic      Atomic             Coordinates (Angstroms)
 Number     Number       Type             X           Y           Z
 ---------------------------------------------------------------------
      1          6           0        2.241142   -0.376126   -0.054835
      2          1           0        3.682326   -0.945773   -0.194855
      3          6           0        1.135417    0.102813   -0.011414
      4          6           0       -0.216640    0.644318   -0.000668
      5          8           0       -0.452451    1.819586    0.014987
      6          8           0       -1.126479   -0.324888   -0.005656
      7          6           0       -2.500114    0.112447    0.012262
      8          6           0       -3.359779   -1.129766    0.000485
      9          1           0       -2.658037    0.718006    0.907059
     10          1           0       -2.673131    0.745743   -0.860265
     11          1           0       -3.168866   -1.719508   -0.896821
     12          1           0       -3.152326   -1.747623    0.874886
     13          1           0       -4.413803   -0.847422    0.014590
     14          8           0        4.569579   -0.568682    0.098027
     15          1           0        4.658494    0.266334   -0.378441
 ---------------------------------------------------------------------

 SCF Done:  E(UHF) =  -417.941128411     A.U. after   34 cycles
 E2 =    -0.1262774641D+01 EUMP2 =    -0.41920390305161D+03
 CCSD(T)= -0.41932405670D+03

 The electronic state is 2-A.
 Alpha  occ. eigenvalues --  -20.62206 -20.60749 -20.56832 -11.42521 -11.31976
 Alpha  occ. eigenvalues --  -11.30424 -11.26323 -11.23478  -1.49109  -1.39843
 Alpha  occ. eigenvalues --   -1.38591  -1.09583  -1.05795  -0.93159  -0.84101
 Alpha  occ. eigenvalues --   -0.79604  -0.76988  -0.70287  -0.69789  -0.66882
 Alpha  occ. eigenvalues --   -0.60491  -0.59803  -0.57266  -0.56426  -0.54642
 Alpha  occ. eigenvalues --   -0.52797  -0.52561  -0.48981  -0.47460  -0.46326
 Alpha  occ. eigenvalues --   -0.45941
 Alpha virt. eigenvalues --    0.03833   0.04799   0.05990   0.06197   0.07037
 Alpha virt. eigenvalues --    0.07853   0.08372   0.09485   0.11196   0.11711
 Alpha virt. eigenvalues --    0.12324   0.13751   0.15266   0.15319   0.15869

  Beta  occ. eigenvalues --  -20.62223 -20.59257 -20.57481 -11.42024 -11.30432
  Beta  occ. eigenvalues --  -11.28130 -11.26514 -11.23479  -1.49422  -1.39641
  Beta  occ. eigenvalues --   -1.34907  -1.09012  -1.04378  -0.91214  -0.83364
  Beta  occ. eigenvalues --   -0.77366  -0.72830  -0.70479  -0.70453  -0.61499
  Beta  occ. eigenvalues --   -0.60142  -0.58694  -0.56594  -0.53640  -0.52891
  Beta  occ. eigenvalues --   -0.52156  -0.49856  -0.48478  -0.44352  -0.43952
  Beta virt. eigenvalues --   -0.00435   0.03891   0.05977   0.06033   0.06239
  Beta virt. eigenvalues --    0.07051   0.08005   0.09353   0.10062   0.11272
  Beta virt. eigenvalues --    0.12427   0.12755   0.13740   0.15234   0.15924

 Mulliken charges and spin densities:
               1          2
     1  C   -0.622229   1.903661
     2  H    0.360376  -0.103259
     3  C    1.512465  -1.042224
     4  C   -0.912740   0.131103
     5  O   -0.288671  -0.134628
     6  O   -0.106159   0.003618
     7  C   -0.031837   0.000335
     8  C   -0.617609  -0.000606
     9  H    0.179631  -0.000144
    10  H    0.177431  -0.000011
    11  H    0.153698   0.000004
    12  H    0.154790   0.000002
    13  H    0.142109  -0.000067
    14  O   -0.372373   0.255893
    15  H    0.271118  -0.013677
 Sum of Mulliken charges =  -0.00000   1.00000

 Dipole moment (field-independent basis, Debye):
    X=             -2.0616    Y=             -0.8667    Z=             -1.2406  Tot=              2.5574
 Quadrupole moment (field-independent basis, Debye-Ang):
   XX=            -43.4209   YY=            -54.1397   ZZ=            -47.0032
   XY=              5.6813   XZ=             -5.7970   YZ=             -0.0342

 0278\PMP3-0=-419.2495613\MP4SDQ=-419.2578933\CCSD=-419.26922\CCSD(T)=-
 Normal termination of Gaussian 16 at Fri Apr 18 04:23:45 2025.
