 Gaussian 16, Revision A.03,
 Gaussian 16:  ES64L-G16RevA.03 25-Dec-2016

 --------------------------
 # ccsd(t)/6-311++g(d,p) sp
 --------------------------

 -------------------
 Title Card Required
 -------------------
 Symbolic Z-matrix:
 Charge =  0 Multiplicity = 2

                         Standard orientation:
 ---------------------------------------------------------------------
 Center     Atomic      Atomic             Coordinates (Angstroms)
 Number     Number       Type             X           Y           Z
 ---------------------------------------------------------------------
      1          6           0        2.248488   -0.381775   -0.058986
      2          1           0        3.537118   -0.863217   -0.131977
      3          6           0        1.141402    0.096979   -0.013531
      4          6           0       -0.212388    0.643471    0.000154
      5          8           0       -0.448874    1.818874    0.016576
      6          8           0       -1.125147   -0.324365   -0.006165
      7          6           0       -2.498416    0.114584    0.012760
      8          6           0       -3.359860   -1.126616   -0.000083
      9          1           0       -2.655501    0.719361    0.908265
     10          1           0       -2.671242    0.749047   -0.858955
     11          1           0       -3.170028   -1.715599   -0.898121
     12          1           0       -3.152843   -1.745777    0.873502
     13          1           0       -4.413538   -0.842932    0.014756
     14          8           0        4.566288   -0.576059    0.091643
     15          1           0        4.672538    0.271666   -0.365784
 ---------------------------------------------------------------------

 SCF Done:  E(UHF) =  -417.935872679     A.U. after   35 cycles
 E2 =    -0.1269369057D+01 EUMP2 =    -0.41920524173614D+03
 CCSD(T)= -0.41932357889D+03

 The electronic state is 2-A.
 Alpha  occ. eigenvalues --  -20.65023 -20.61726 -20.56286 -11.41970 -11.30075
 Alpha  occ. eigenvalues --  -11.30035 -11.25381 -11.23200  -1.48572  -1.43057
 Alpha  occ. eigenvalues --   -1.38095  -1.08324  -1.05168  -0.92553  -0.84027
 Alpha  occ. eigenvalues --   -0.81244  -0.76632  -0.69830  -0.69623  -0.69160
 Alpha  occ. eigenvalues --   -0.60095  -0.59529  -0.58595  -0.56743  -0.56045
 Alpha  occ. eigenvalues --   -0.52430  -0.52222  -0.48239  -0.46750  -0.44822
 Alpha  occ. eigenvalues --   -0.44492
 Alpha virt. eigenvalues --    0.03976   0.04445   0.06166   0.06406   0.06945
 Alpha virt. eigenvalues --    0.07974   0.08995   0.09690   0.11380   0.11992
 Alpha virt. eigenvalues --    0.12612   0.14120   0.15504   0.15693   0.15829

  Beta  occ. eigenvalues --  -20.62311 -20.61746 -20.56847 -11.41546 -11.30082
  Beta  occ. eigenvalues --  -11.27022 -11.25600 -11.23201  -1.48846  -1.39006
  Beta  occ. eigenvalues --   -1.33644  -1.08209  -1.03866  -0.90867  -0.82978
  Beta  occ. eigenvalues --   -0.76911  -0.73075  -0.69984  -0.69889  -0.60963
  Beta  occ. eigenvalues --   -0.60002  -0.58912  -0.56249  -0.53640  -0.53165
  Beta  occ. eigenvalues --   -0.52487  -0.49151  -0.47967  -0.43166  -0.42799
  Beta virt. eigenvalues --   -0.00645   0.04061   0.05530   0.06182   0.06418
  Beta virt. eigenvalues --    0.06986   0.08066   0.09539   0.10171   0.11368
  Beta virt. eigenvalues --    0.12673   0.12995   0.14069   0.15173   0.16087

 Mulliken charges and spin densities:
               1          2
     1  C   -0.706731   1.561233
     2  H    0.400715  -0.163191
     3  C    1.486336  -0.942130
     4  C   -0.929503   0.124973
     5  O   -0.295651  -0.115832
     6  O   -0.105262   0.003242
     7  C   -0.029604   0.000262
     8  C   -0.616559  -0.000445
     9  H    0.178243  -0.000121
    10  H    0.176523  -0.000001
    11  H    0.153489   0.000003
    12  H    0.154228   0.000004
    13  H    0.140950  -0.000062
    14  O   -0.282138   0.557143
    15  H    0.274963  -0.025077
 Sum of Mulliken charges =  -0.00000   1.00000

 Dipole moment (field-independent basis, Debye):
    X=             -0.8641    Y=             -0.7494    Z=             -1.0182  Tot=              1.5314
 Quadrupole moment (field-independent basis, Debye-Ang):
   XX=            -35.3945   YY=            -54.7529   ZZ=            -47.2260
   XY=              5.7624   XZ=             -4.9129   YZ=             -0.2695

 Normal termination of Gaussian 16 at Thu Apr 17 19:51:39 2025.
