 Gaussian 16, Revision A.03,
 Gaussian 16:  ES64L-G16RevA.03 25-Dec-2016

 --------------------------
 # ccsd(t)/6-311++g(d,p) sp
 --------------------------

 -------------------
 Title Card Required
 -------------------
 Symbolic Z-matrix:
 Charge =  0 Multiplicity = 2

                         Standard orientation:
 ---------------------------------------------------------------------
 Center     Atomic      Atomic             Coordinates (Angstroms)
 Number     Number       Type             X           Y           Z
 ---------------------------------------------------------------------
      1          6           0        2.250238   -0.383021   -0.059648
      2          1           0        3.486572   -0.849599   -0.124416
      3          6           0        1.142831    0.095699   -0.013886
      4          6           0       -0.211278    0.643373    0.000298
      5          8           0       -0.448029    1.818818    0.016766
      6          8           0       -1.124768   -0.324228   -0.006214
      7          6           0       -2.497897    0.115073    0.012862
      8          6           0       -3.359730   -1.125907   -0.000110
      9          1           0       -2.654851    0.719776    0.908449
     10          1           0       -2.670707    0.749713   -0.858734
     11          1           0       -3.170106   -1.714816   -0.898242
     12          1           0       -3.152806   -1.745270    0.873360
     13          1           0       -4.413343   -0.841957    0.014848
     14          8           0        4.567134   -0.577334    0.090925
     15          1           0        4.675559    0.272797   -0.364184
 ---------------------------------------------------------------------

 SCF Done:  E(UHF) =  -417.938582381     A.U. after   39 cycles
 E2 =    -0.1269850796D+01 EUMP2 =    -0.41920843317693D+03
 CCSD(T)= -0.41932492639D+03

 The electronic state is 2-A.
 Alpha  occ. eigenvalues --  -20.66843 -20.61432 -20.55927 -11.41590 -11.29857
 Alpha  occ. eigenvalues --  -11.28685 -11.24774 -11.23031  -1.48249  -1.44608
 Alpha  occ. eigenvalues --   -1.37796  -1.07627  -1.04697  -0.92170  -0.84095
 Alpha  occ. eigenvalues --   -0.81573  -0.76335  -0.71213  -0.69557  -0.68962
 Alpha  occ. eigenvalues --   -0.60356  -0.59814  -0.59300  -0.56581  -0.55860
 Alpha  occ. eigenvalues --   -0.52206  -0.52020  -0.47842  -0.46483  -0.43687
 Alpha  occ. eigenvalues --   -0.43409
 Alpha virt. eigenvalues --    0.03966   0.04301   0.06265   0.06529   0.06899
 Alpha virt. eigenvalues --    0.08023   0.09352   0.09824   0.11503   0.12176
 Alpha virt. eigenvalues --    0.12765   0.14283   0.15620   0.15655   0.16102

  Beta  occ. eigenvalues --  -20.63661 -20.61451 -20.56424 -11.41219 -11.29863
  Beta  occ. eigenvalues --  -11.26254 -11.24952 -11.23031  -1.48493  -1.38605
  Beta  occ. eigenvalues --   -1.33291  -1.07722  -1.03526  -0.90669  -0.82755
  Beta  occ. eigenvalues --   -0.76673  -0.73614  -0.69696  -0.69515  -0.60813
  Beta  occ. eigenvalues --   -0.60558  -0.59070  -0.56040  -0.54358  -0.52870
  Beta  occ. eigenvalues --   -0.52262  -0.48701  -0.47637  -0.42381  -0.42039
  Beta virt. eigenvalues --   -0.00184   0.04165   0.05357   0.06280   0.06536
  Beta virt. eigenvalues --    0.06959   0.08102   0.09650   0.10245   0.11485
  Beta virt. eigenvalues --    0.12811   0.13147   0.14238   0.15232   0.16172

 Mulliken charges and spin densities:
               1          2
     1  C   -0.746568   1.331430
     2  H    0.415152  -0.156931
     3  C    1.460398  -0.845276
     4  C   -0.925906   0.113798
     5  O   -0.300281  -0.102162
     6  O   -0.104977   0.002928
     7  C   -0.028304   0.000178
     8  C   -0.616486  -0.000330
     9  H    0.177528  -0.000109
    10  H    0.175913   0.000004
    11  H    0.153231   0.000003
    12  H    0.153903   0.000005
    13  H    0.140259  -0.000057
    14  O   -0.231733   0.686263
    15  H    0.277873  -0.029744
 Sum of Mulliken charges =  -0.00000   1.00000

 Dipole moment (field-independent basis, Debye):
    X=             -0.1746    Y=             -0.7839    Z=             -0.9729  Tot=              1.2616
 Quadrupole moment (field-independent basis, Debye-Ang):
   XX=            -31.0642   YY=            -54.9498   ZZ=            -47.3293
   XY=              5.4231   XZ=             -4.7520   YZ=             -0.3137

 Normal termination of Gaussian 16 at Fri Apr 18 05:29:49 2025.
