 Gaussian 16, Revision A.03,
 Gaussian 16:  ES64L-G16RevA.03 25-Dec-2016

 --------------------------
 # ccsd(t)/6-311++g(d,p) sp
 --------------------------

 -------------------
 Title Card Required
 -------------------
 Symbolic Z-matrix:
 Charge =  0 Multiplicity = 2

                         Standard orientation:
 ---------------------------------------------------------------------
 Center     Atomic      Atomic             Coordinates (Angstroms)
 Number     Number       Type             X           Y           Z
 ---------------------------------------------------------------------
      1          6           0       -2.238445   -0.373496    0.052477
      2          1           0       -3.737236   -0.985127    0.229599
      3          6           0       -1.132998    0.105088    0.010400
      4          6           0        0.218326    0.644883    0.001061
      5          8           0        0.454286    1.820066   -0.013973
      6          8           0        1.127146   -0.325124    0.005375
      7          6           0        2.500817    0.111442   -0.011967
      8          6           0        3.359669   -1.131260   -0.000860
      9          1           0        2.659276    0.717528   -0.906316
     10          1           0        2.674028    0.744075    0.861012
     11          1           0        3.168170   -1.721501    0.895999
     12          1           0        3.151995   -1.748373   -0.875737
     13          1           0        4.413881   -0.849614   -0.014538
     14          8           0       -4.571643   -0.564989   -0.101711
     15          1           0       -4.652637    0.263448    0.385783
 ---------------------------------------------------------------------

 SCF Done:  E(UHF) =  -417.944407483     A.U. after   31 cycles
 E2 =    -0.1260465408D+01 EUMP2 =    -0.41920487289097D+03
 CCSD(T)= -0.41932505122D+03

 The electronic state is 2-A.
 Alpha  occ. eigenvalues --  -20.62197 -20.60139 -20.56809 -11.42485 -11.32023
 Alpha  occ. eigenvalues --  -11.30417 -11.26257 -11.23477  -1.49105  -1.39482
 Alpha  occ. eigenvalues --   -1.38581  -1.09607  -1.05798  -0.93151  -0.84037
 Alpha  occ. eigenvalues --   -0.79014  -0.76895  -0.70288  -0.69779  -0.66701
 Alpha  occ. eigenvalues --   -0.60486  -0.59789  -0.57557  -0.56428  -0.54083
 Alpha  occ. eigenvalues --   -0.52794  -0.52547  -0.48981  -0.47487  -0.46346
 Alpha  occ. eigenvalues --   -0.45942
 Alpha virt. eigenvalues --    0.03830   0.04798   0.05986   0.06194   0.07069
 Alpha virt. eigenvalues --    0.07797   0.08389   0.09482   0.11209   0.11702
 Alpha virt. eigenvalues --    0.12305   0.13684   0.15233   0.15317   0.15935

  Beta  occ. eigenvalues --  -20.62215 -20.58897 -20.57468 -11.41982 -11.30425
  Beta  occ. eigenvalues --  -11.28066 -11.26440 -11.23478  -1.49421  -1.39647
  Beta  occ. eigenvalues --   -1.35422  -1.09011  -1.04355  -0.91181  -0.83344
  Beta  occ. eigenvalues --   -0.77351  -0.73138  -0.70478  -0.70455  -0.61505
  Beta  occ. eigenvalues --   -0.60129  -0.58950  -0.56595  -0.53647  -0.52889
  Beta  occ. eigenvalues --   -0.52021  -0.49859  -0.48482  -0.44349  -0.43943
  Beta virt. eigenvalues --   -0.00131   0.03891   0.05993   0.06087   0.06256
  Beta virt. eigenvalues --    0.07093   0.07962   0.09358   0.10100   0.11325
  Beta virt. eigenvalues --    0.12413   0.12789   0.13705   0.15320   0.15933

 Mulliken charges and spin densities:
               1          2
     1  C   -0.608133   1.942944
     2  H    0.345588  -0.082638
     3  C    1.513193  -1.038746
     4  C   -0.907028   0.125250
     5  O   -0.288661  -0.136579
     6  O   -0.106517   0.003606
     7  C   -0.032028   0.000227
     8  C   -0.618251  -0.000625
     9  H    0.179694  -0.000146
    10  H    0.177312  -0.000013
    11  H    0.153549   0.000006
    12  H    0.154800   0.000002
    13  H    0.142108  -0.000067
    14  O   -0.377712   0.198462
    15  H    0.272088  -0.011683
 Sum of Mulliken charges =  -0.00000   1.00000

 Dipole moment (field-independent basis, Debye):
    X=              2.1076    Y=             -0.9690    Z=              1.3357  Tot=              2.6768
 Quadrupole moment (field-independent basis, Debye-Ang):
   XX=            -44.0211   YY=            -53.9416   ZZ=            -46.9424
   XY=             -5.3040   XZ=             -6.1908   YZ=             -0.0816

 9\PMP3-0=-419.2502379\MP4SDQ=-419.2588831\CCSD=-419.2704889\CCSD(T)=-4
 Normal termination of Gaussian 16 at Fri Apr 18 08:38:09 2025.
