 Gaussian 16, Revision A.03,
 Gaussian 16:  ES64L-G16RevA.03 25-Dec-2016

 --------------------------
 # ccsd(t)/6-311++g(d,p) sp
 --------------------------

 -------------------
 Title Card Required
 -------------------
 Symbolic Z-matrix:
 Charge =  0 Multiplicity = 2

                         Standard orientation:
 ---------------------------------------------------------------------
 Center     Atomic      Atomic             Coordinates (Angstroms)
 Number     Number       Type             X           Y           Z
 ---------------------------------------------------------------------
      1          6           0       -2.655855   -0.337833   -0.000000
      2          1           0       -3.700589   -0.131661    0.000001
      3          6           0       -1.504465   -0.685389   -0.000003
      4          6           0       -0.086112   -1.000979   -0.000005
      5          8           0        0.367929   -2.108596   -0.000010
      6          8           0        0.635416    0.126398   -0.000000
      7          6           0        2.067050   -0.052416   -0.000001
      8          6           0        2.689274    1.323770    0.000005
      9          1           0        2.341123   -0.631932    0.883664
     10          1           0        2.341123   -0.631924   -0.883670
     11          1           0        2.389149    1.883471   -0.886878
     12          1           0        2.389149    1.883463    0.886893
     13          1           0        3.776699    1.233497    0.000005
     14          8           0       -2.399486    1.862466    0.000011
     15          1           0       -1.426867    1.870011    0.000010
 ---------------------------------------------------------------------

 SCF Done:  E(UHF) =  -417.992166044     A.U. after   32 cycles
 E2 =    -0.1257436287D+01 EUMP2 =    -0.41924960233073D+03
 CCSD(T)= -0.41935685633D+03

 The electronic state is 2-A.
 Alpha  occ. eigenvalues --  -20.62467 -20.62361 -20.57101 -11.42037 -11.30624
 Alpha  occ. eigenvalues --  -11.26794 -11.26265 -11.23857  -1.49194  -1.39297
 Alpha  occ. eigenvalues --   -1.37960  -1.09247  -1.04991  -0.92399  -0.84230
 Alpha  occ. eigenvalues --   -0.78143  -0.73471  -0.70470  -0.70185  -0.66845
 Alpha  occ. eigenvalues --   -0.64966  -0.61214  -0.60188  -0.56804  -0.55202
 Alpha  occ. eigenvalues --   -0.53501  -0.53194  -0.49306  -0.48294  -0.43022
 Alpha  occ. eigenvalues --   -0.42179
 Alpha virt. eigenvalues --    0.03625   0.04712   0.05673   0.06080   0.06909
 Alpha virt. eigenvalues --    0.08729   0.09345   0.09560   0.11213   0.12290
 Alpha virt. eigenvalues --    0.12506   0.13233   0.15478   0.15674   0.16207

  Beta  occ. eigenvalues --  -20.62448 -20.58318 -20.56792 -11.42281 -11.30616
  Beta  occ. eigenvalues --  -11.27874 -11.24981 -11.23857  -1.49015  -1.38774
  Beta  occ. eigenvalues --   -1.22858  -1.08084  -1.04932  -0.92865  -0.84122
  Beta  occ. eigenvalues --   -0.77946  -0.73247  -0.70398  -0.69755  -0.62661
  Beta  occ. eigenvalues --   -0.60783  -0.59874  -0.56712  -0.53150  -0.53035
  Beta  occ. eigenvalues --   -0.50486  -0.48638  -0.47618  -0.43472  -0.42705
  Beta virt. eigenvalues --    0.03588   0.04656   0.05421   0.06076   0.06852
  Beta virt. eigenvalues --    0.07899   0.08608   0.09326   0.10855   0.12158
  Beta virt. eigenvalues --    0.12228   0.12291   0.13583   0.15220   0.15745

 Mulliken charges and spin densities:
               1          2
     1  C   -0.692508  -0.592972
     2  H    0.227278   0.048410
     3  C    1.266012   0.638529
     4  C   -0.554005  -0.088683
     5  O   -0.288891   0.061688
     6  O   -0.156343  -0.003403
     7  C   -0.013537   0.001344
     8  C   -0.607951  -0.000302
     9  H    0.181334  -0.000011
    10  H    0.181334  -0.000011
    11  H    0.154315   0.000010
    12  H    0.154315   0.000010
    13  H    0.142417   0.000046
    14  O   -0.244005   0.968145
    15  H    0.250235  -0.032801
 Sum of Mulliken charges =  -0.00000   1.00000

 Dipole moment (field-independent basis, Debye):
    X=              1.7458    Y=              1.9996    Z=              0.0000  Tot=              2.6545
 Quadrupole moment (field-independent basis, Debye-Ang):
   XX=            -39.1772   YY=            -56.2197   ZZ=            -47.6830
   XY=              4.9847   XZ=              0.0000   YZ=             -0.0000

 421\MP4SDQ=-419.3027801\CCSD=-419.3044282\CCSD(T)=-419.3568563\S2=0.86
 Normal termination of Gaussian 16 at Mon Apr 21 21:10:48 2025.
