 Gaussian 16, Revision A.03,
 Gaussian 16:  ES64L-G16RevA.03 25-Dec-2016

 --------------------------
 # ccsd(t)/6-311++g(d,p) sp
 --------------------------

 -------------------
 Title Card Required
 -------------------
 Symbolic Z-matrix:
 Charge =  0 Multiplicity = 2

                         Standard orientation:
 ---------------------------------------------------------------------
 Center     Atomic      Atomic             Coordinates (Angstroms)
 Number     Number       Type             X           Y           Z
 ---------------------------------------------------------------------
      1          6           0       -2.660232   -0.354239   -0.000000
      2          1           0       -3.702940   -0.138581    0.000001
      3          6           0       -1.505061   -0.686424   -0.000003
      4          6           0       -0.086482   -1.001075   -0.000005
      5          8           0        0.367487   -2.108714   -0.000010
      6          8           0        0.635453    0.126128   -0.000000
      7          6           0        2.067018   -0.053506   -0.000001
      8          6           0        2.690164    1.322257    0.000005
      9          1           0        2.340742   -0.633205    0.883648
     10          1           0        2.340742   -0.633198   -0.883655
     11          1           0        2.390441    1.882166   -0.886886
     12          1           0        2.390441    1.882159    0.886901
     13          1           0        3.777530    1.231272    0.000005
     14          8           0       -2.396189    1.879203    0.000011
     15          1           0       -1.423408    1.874364    0.000010
 ---------------------------------------------------------------------

 SCF Done:  E(UHF) =  -417.993410051     A.U. after   34 cycles
 E2 =    -0.1257875005D+01 EUMP2 =    -0.41925128505610D+03
 CCSD(T)= -0.41935744500D+03

 The electronic state is 2-A.
 Alpha  occ. eigenvalues --  -20.62484 -20.62413 -20.57097 -11.42064 -11.30633
 Alpha  occ. eigenvalues --  -11.26799 -11.26250 -11.23864  -1.49198  -1.39287
 Alpha  occ. eigenvalues --   -1.37975  -1.09193  -1.04995  -0.92429  -0.84234
 Alpha  occ. eigenvalues --   -0.78135  -0.73414  -0.70475  -0.70182  -0.66930
 Alpha  occ. eigenvalues --   -0.65013  -0.61203  -0.60191  -0.56807  -0.55216
 Alpha  occ. eigenvalues --   -0.53491  -0.53201  -0.49303  -0.48281  -0.43007
 Alpha  occ. eigenvalues --   -0.42212
 Alpha virt. eigenvalues --    0.03623   0.04712   0.05672   0.06077   0.06909
 Alpha virt. eigenvalues --    0.08692   0.09339   0.09564   0.11198   0.12292
 Alpha virt. eigenvalues --    0.12498   0.13195   0.15456   0.15655   0.16204

  Beta  occ. eigenvalues --  -20.62467 -20.58352 -20.56809 -11.42290 -11.30626
  Beta  occ. eigenvalues --  -11.27792 -11.25065 -11.23863  -1.49033  -1.38801
  Beta  occ. eigenvalues --   -1.22746  -1.08122  -1.04940  -0.92862  -0.84138
  Beta  occ. eigenvalues --   -0.77959  -0.73224  -0.70410  -0.69780  -0.62684
  Beta  occ. eigenvalues --   -0.60803  -0.59898  -0.56722  -0.53160  -0.53055
  Beta  occ. eigenvalues --   -0.50433  -0.48680  -0.47654  -0.43400  -0.42722
  Beta virt. eigenvalues --    0.03588   0.04665   0.05423   0.06074   0.06848
  Beta virt. eigenvalues --    0.07944   0.08580   0.09324   0.10895   0.12138
  Beta virt. eigenvalues --    0.12239   0.12276   0.13526   0.15217   0.15722

 Mulliken charges and spin densities:
               1          2
     1  C   -0.676701  -0.549738
     2  H    0.228841   0.044742
     3  C    1.256507   0.591065
     4  C   -0.561800  -0.083046
     5  O   -0.289177   0.057366
     6  O   -0.154513  -0.003062
     7  C   -0.013868   0.001203
     8  C   -0.608376  -0.000251
     9  H    0.181412  -0.000009
    10  H    0.181412  -0.000009
    11  H    0.154347   0.000011
    12  H    0.154347   0.000011
    13  H    0.142467   0.000036
    14  O   -0.244080   0.974829
    15  H    0.249181  -0.033148
 Sum of Mulliken charges =  -0.00000   1.00000

 Dipole moment (field-independent basis, Debye):
    X=              1.7526    Y=              1.9957    Z=              0.0000  Tot=              2.6560
 Quadrupole moment (field-independent basis, Debye-Ang):
   XX=            -39.1497   YY=            -56.2665   ZZ=            -47.6928
   XY=              5.0075   XZ=              0.0000   YZ=             -0.0000

 2849354\MP4SDQ=-419.3040096\CCSD=-419.3051472\CCSD(T)=-419.357445\S2=0
 Normal termination of Gaussian 16 at Tue Apr 22 12:20:12 2025.
