 Gaussian 16, Revision A.03,
 Gaussian 16:  ES64L-G16RevA.03 25-Dec-2016

 --------------------------
 # ccsd(t)/6-311++g(d,p) sp
 --------------------------

 -------------------
 Title Card Required
 -------------------
 Symbolic Z-matrix:
 Charge =  0 Multiplicity = 2

                         Standard orientation:
 ---------------------------------------------------------------------
 Center     Atomic      Atomic             Coordinates (Angstroms)
 Number     Number       Type             X           Y           Z
 ---------------------------------------------------------------------
      1          6           0        2.638228    0.267345    0.000000
      2          1           0        3.695371    0.128977    0.000001
      3          6           0        1.503831    0.684614   -0.000003
      4          6           0        0.084660    1.000668   -0.000005
      5          8           0       -0.370050    2.108117   -0.000010
      6          8           0       -0.634624   -0.127381    0.000000
      7          6           0       -2.067046    0.048448   -0.000001
      8          6           0       -2.686329   -1.329061    0.000005
      9          1           0       -2.342060    0.627376    0.883740
     10          1           0       -2.342060    0.627369   -0.883747
     11          1           0       -2.385036   -1.888119   -0.886843
     12          1           0       -2.385036   -1.888111    0.886858
     13          1           0       -3.773921   -1.240691    0.000005
     14          8           0        2.411163   -1.798997    0.000010
     15          1           0        1.440770   -1.852799    0.000010
 ---------------------------------------------------------------------

 SCF Done:  E(UHF) =  -417.986618926     A.U. after   32 cycles
 E2 =    -0.1254819014D+01 EUMP2 =    -0.41924143794025D+03
 CCSD(T)= -0.41935473026D+03

 The electronic state is 2-A.
 Alpha  occ. eigenvalues --  -20.62426 -20.62039 -20.57155 -11.41953 -11.30609
 Alpha  occ. eigenvalues --  -11.26935 -11.26481 -11.23840  -1.49211  -1.39371
 Alpha  occ. eigenvalues --   -1.37741  -1.09547  -1.05009  -0.92276  -0.84245
 Alpha  occ. eigenvalues --   -0.78208  -0.73656  -0.70468  -0.70215  -0.66280
 Alpha  occ. eigenvalues --   -0.64644  -0.61295  -0.60190  -0.56804  -0.55023
 Alpha  occ. eigenvalues --   -0.53563  -0.53185  -0.49351  -0.48385  -0.43149
 Alpha  occ. eigenvalues --   -0.42147
 Alpha virt. eigenvalues --    0.03635   0.04724   0.05676   0.06086   0.06906
 Alpha virt. eigenvalues --    0.08874   0.09377   0.09554   0.11245   0.12287
 Alpha virt. eigenvalues --    0.12530   0.13349   0.15572   0.15789   0.16217

  Beta  occ. eigenvalues --  -20.62395 -20.58132 -20.56746 -11.42281 -11.30598
  Beta  occ. eigenvalues --  -11.28443 -11.24713 -11.23839  -1.48963  -1.38674
  Beta  occ. eigenvalues --   -1.23464  -1.07914  -1.04912  -0.92883  -0.84069
  Beta  occ. eigenvalues --   -0.77908  -0.73305  -0.70368  -0.69663  -0.62505
  Beta  occ. eigenvalues --   -0.60718  -0.59777  -0.56676  -0.53126  -0.52970
  Beta  occ. eigenvalues --   -0.50737  -0.48478  -0.47476  -0.43971  -0.42638
  Beta virt. eigenvalues --    0.03592   0.04635   0.05382   0.06079   0.06858
  Beta virt. eigenvalues --    0.07632   0.08696   0.09334   0.10633   0.12111
  Beta virt. eigenvalues --    0.12156   0.12400   0.13874   0.15221   0.15891

 Mulliken charges and spin densities:
               1          2
     1  C   -0.790813  -0.789131
     2  H    0.220926   0.065294
     3  C    1.329912   0.863926
     4  C   -0.511001  -0.115443
     5  O   -0.288827   0.081682
     6  O   -0.165590  -0.004882
     7  C   -0.010452   0.001984
     8  C   -0.606544  -0.000414
     9  H    0.181290  -0.000028
    10  H    0.181290  -0.000028
    11  H    0.154225   0.000005
    12  H    0.154225   0.000005
    13  H    0.142265   0.000102
    14  O   -0.245210   0.928210
    15  H    0.254303  -0.031282
 Sum of Mulliken charges =  -0.00000   1.00000

 Dipole moment (field-independent basis, Debye):
    X=             -1.7401    Y=             -1.9246    Z=              0.0000  Tot=              2.5946
 Quadrupole moment (field-independent basis, Debye-Ang):
   XX=            -39.3473   YY=            -56.1477   ZZ=            -47.6362
   XY=              5.1750   XZ=             -0.0000   YZ=              0.0000

 7479\MP4SDQ=-419.2971099\CCSD=-419.301567\CCSD(T)=-419.3547303\S2=0.95
 Normal termination of Gaussian 16 at Mon Apr 21 18:33:56 2025.
