 Gaussian 16, Revision A.03,
 Gaussian 16:  ES64L-G16RevA.03 25-Dec-2016

 --------------------------
 # ccsd(t)/6-311++g(d,p) sp
 --------------------------

 -------------------
 Title Card Required
 -------------------
 Symbolic Z-matrix:
 Charge =  0 Multiplicity = 2

                         Standard orientation:
 ---------------------------------------------------------------------
 Center     Atomic      Atomic             Coordinates (Angstroms)
 Number     Number       Type             X           Y           Z
 ---------------------------------------------------------------------
      1          6           0       -2.672640   -0.399916   -0.000001
      2          1           0       -3.713184   -0.173122    0.000001
      3          6           0       -1.508016   -0.691951   -0.000003
      4          6           0       -0.087891   -1.001657   -0.000005
      5          8           0        0.366657   -2.109083   -0.000010
      6          8           0        0.634739    0.125273   -0.000000
      7          6           0        2.066374   -0.056929   -0.000001
      8          6           0        2.692989    1.317241    0.000005
      9          1           0        2.338826   -0.637283    0.883591
     10          1           0        2.338826   -0.637276   -0.883597
     11          1           0        2.394905    1.877991   -0.886915
     12          1           0        2.394905    1.877984    0.886930
     13          1           0        3.780113    1.223300    0.000005
     14          8           0       -2.384747    1.931214    0.000011
     15          1           0       -1.412484    1.888442    0.000010
 ---------------------------------------------------------------------

 SCF Done:  E(UHF) =  -417.996609001     A.U. after   35 cycles
 E2 =    -0.1258765989D+01 EUMP2 =    -0.41925537499008D+03
 CCSD(T)= -0.41935905017D+03

 The electronic state is 2-A.
 Alpha  occ. eigenvalues --  -20.62535 -20.62522 -20.57095 -11.42148 -11.30663
 Alpha  occ. eigenvalues --  -11.26858 -11.26247 -11.23886  -1.49214  -1.39262
 Alpha  occ. eigenvalues --   -1.37966  -1.09061  -1.05016  -0.92505  -0.84248
 Alpha  occ. eigenvalues --   -0.78121  -0.73251  -0.70493  -0.70174  -0.67095
 Alpha  occ. eigenvalues --   -0.65096  -0.61181  -0.60203  -0.56818  -0.55215
 Alpha  occ. eigenvalues --   -0.53468  -0.53224  -0.49300  -0.48255  -0.42990
 Alpha  occ. eigenvalues --   -0.42337
 Alpha virt. eigenvalues --    0.03620   0.04709   0.05670   0.06071   0.06906
 Alpha virt. eigenvalues --    0.08585   0.09325   0.09579   0.11147   0.12298
 Alpha virt. eigenvalues --    0.12468   0.13086   0.15395   0.15607   0.16195

  Beta  occ. eigenvalues --  -20.62524 -20.58431 -20.56864 -11.42327 -11.30659
  Beta  occ. eigenvalues --  -11.27630 -11.25316 -11.23885  -1.49085  -1.38876
  Beta  occ. eigenvalues --   -1.22469  -1.08220  -1.04971  -0.92850  -0.84181
  Beta  occ. eigenvalues --   -0.77996  -0.73150  -0.70443  -0.69850  -0.62723
  Beta  occ. eigenvalues --   -0.60863  -0.59963  -0.56751  -0.53191  -0.53113
  Beta  occ. eigenvalues --   -0.50292  -0.48797  -0.47759  -0.43261  -0.42774
  Beta virt. eigenvalues --    0.03589   0.04686   0.05423   0.06068   0.06834
  Beta virt. eigenvalues --    0.08046   0.08499   0.09317   0.10972   0.11987
  Beta virt. eigenvalues --    0.12264   0.12285   0.13406   0.15206   0.15673

 Mulliken charges and spin densities:
               1          2
     1  C   -0.649133  -0.435825
     2  H    0.232160   0.035510
     3  C    1.246376   0.467495
     4  C   -0.580987  -0.067829
     5  O   -0.290301   0.045964
     6  O   -0.151252  -0.002203
     7  C   -0.014192   0.000843
     8  C   -0.609517  -0.000111
     9  H    0.181745  -0.000008
    10  H    0.181745  -0.000008
    11  H    0.154444   0.000013
    12  H    0.154444   0.000013
    13  H    0.142632   0.000014
    14  O   -0.244574   0.990416
    15  H    0.246410  -0.034281
 Sum of Mulliken charges =  -0.00000   1.00000

 Dipole moment (field-independent basis, Debye):
    X=              1.7737    Y=              1.9474    Z=              0.0000  Tot=              2.6341
 Quadrupole moment (field-independent basis, Debye-Ang):
   XX=            -39.0614   YY=            -56.4482   ZZ=            -47.7177
   XY=              5.1958   XZ=              0.0000   YZ=             -0.0000

 419.2869416\MP4SDQ=-419.3070865\CCSD=-419.3070546\CCSD(T)=-419.3590502
 Normal termination of Gaussian 16 at Tue Apr 22 13:12:03 2025.
