 Gaussian 16, Revision A.03,
 Gaussian 16:  ES64L-G16RevA.03 25-Dec-2016

 --------------------------
 # ccsd(t)/6-311++g(d,p) sp
 --------------------------

 -------------------
 Title Card Required
 -------------------
 Symbolic Z-matrix:
 Charge =  0 Multiplicity = 2

                         Standard orientation:
 ---------------------------------------------------------------------
 Center     Atomic      Atomic             Coordinates (Angstroms)
 Number     Number       Type             X           Y           Z
 ---------------------------------------------------------------------
      1          6           0        2.605567    0.090282    0.000001
      2          1           0        3.674890    0.211615    0.000001
      3          6           0        1.507156    0.707667   -0.000003
      4          6           0        0.082024    0.998006   -0.000005
      5          8           0       -0.375300    2.105939   -0.000010
      6          8           0       -0.633316   -0.130455   -0.000000
      7          6           0       -2.067538    0.041198   -0.000001
      8          6           0       -2.682418   -1.337954    0.000005
      9          1           0       -2.343302    0.619434    0.883878
     10          1           0       -2.343302    0.619426   -0.883885
     11          1           0       -2.379411   -1.896139   -0.886739
     12          1           0       -2.379411   -1.896131    0.886754
     13          1           0       -3.770243   -1.252351    0.000005
     14          8           0        2.433645   -1.676956    0.000010
     15          1           0        1.471794   -1.789282    0.000010
 ---------------------------------------------------------------------

 SCF Done:  E(UHF) =  -417.987672170     A.U. after   30 cycles
 E2 =    -0.1255991585D+01 EUMP2 =    -0.41924366375513D+03
 CCSD(T)= -0.41936718769D+03

 The electronic state is 2-A.
 Alpha  occ. eigenvalues --  -20.62580 -20.60100 -20.57590 -11.41994 -11.30735
 Alpha  occ. eigenvalues --  -11.30162 -11.28470 -11.23866  -1.49513  -1.39785
 Alpha  occ. eigenvalues --   -1.35407  -1.10835  -1.05299  -0.92379  -0.84782
 Alpha  occ. eigenvalues --   -0.78753  -0.73879  -0.70683  -0.70387  -0.63940
 Alpha  occ. eigenvalues --   -0.62481  -0.61737  -0.59913  -0.56845  -0.54125
 Alpha  occ. eigenvalues --   -0.53295  -0.53117  -0.49666  -0.48806  -0.43780
 Alpha  occ. eigenvalues --   -0.42857
 Alpha virt. eigenvalues --    0.03655   0.04840   0.05692   0.06062   0.06876
 Alpha virt. eigenvalues --    0.08828   0.09391   0.09593   0.11030   0.12254
 Alpha virt. eigenvalues --    0.12378   0.12782   0.15666   0.15679   0.16164

  Beta  occ. eigenvalues --  -20.62512 -20.57472 -20.56939 -11.42506 -11.32522
  Beta  occ. eigenvalues --  -11.30712 -11.25350 -11.23864  -1.49070  -1.38659
  Beta  occ. eigenvalues --   -1.26962  -1.07516  -1.04628  -0.93095  -0.84225
  Beta  occ. eigenvalues --   -0.78096  -0.73252  -0.70494  -0.69607  -0.61915
  Beta  occ. eigenvalues --   -0.60744  -0.59626  -0.56691  -0.53213  -0.53197
  Beta  occ. eigenvalues --   -0.51869  -0.48681  -0.47721  -0.47312  -0.41957
  Beta virt. eigenvalues --    0.03635   0.04819   0.04965   0.06041   0.06593
  Beta virt. eigenvalues --    0.06940   0.08263   0.09319   0.10214   0.11780
  Beta virt. eigenvalues --    0.11865   0.12506   0.13548   0.15117   0.15791

 Mulliken charges and spin densities:
               1          2
     1  C   -1.582366  -1.120178
     2  H    0.206699   0.087539
     3  C    1.811136   1.297457
     4  C   -0.140126   0.002963
     5  O   -0.288314   0.131439
     6  O   -0.175101  -0.004447
     7  C    0.016195   0.009823
     8  C   -0.620349  -0.001338
     9  H    0.182353  -0.000151
    10  H    0.182353  -0.000151
    11  H    0.155056   0.000042
    12  H    0.155056   0.000042
    13  H    0.141727   0.000342
    14  O   -0.298545   0.616116
    15  H    0.254226  -0.019501
 Sum of Mulliken charges =  -0.00000   1.00000

 Dipole moment (field-independent basis, Debye):
    X=             -1.9126    Y=             -1.0444    Z=              0.0000  Tot=              2.1792
 Quadrupole moment (field-independent basis, Debye-Ang):
   XX=            -40.5305   YY=            -57.2855   ZZ=            -47.5034
   XY=              7.6452   XZ=             -0.0000   YZ=              0.0000

 19.2953665\MP4SDQ=-419.3029484\CCSD=-419.3122604\CCSD(T)=-419.3671877\
 Normal termination of Gaussian 16 at Tue Apr 22 22:08:00 2025.
