 Gaussian 16, Revision A.03,
 Gaussian 16:  ES64L-G16RevA.03 25-Dec-2016

 --------------------------
 # ccsd(t)/6-311++g(d,p) sp
 --------------------------

 -------------------
 Title Card Required
 -------------------
 Symbolic Z-matrix:
 Charge =  0 Multiplicity = 2

                         Standard orientation:
 ---------------------------------------------------------------------
 Center     Atomic      Atomic             Coordinates (Angstroms)
 Number     Number       Type             X           Y           Z
 ---------------------------------------------------------------------
      1          6           0        2.619460    0.170214    0.000001
      2          1           0        3.690072    0.172288    0.000001
      3          6           0        1.504843    0.694251   -0.000003
      4          6           0        0.082532    0.999499   -0.000005
      5          8           0       -0.372967    2.107128   -0.000010
      6          8           0       -0.633515   -0.128871   -0.000000
      7          6           0       -2.067399    0.044203   -0.000001
      8          6           0       -2.683896   -1.334379    0.000005
      9          1           0       -2.342758    0.622657    0.883874
     10          1           0       -2.342758    0.622649   -0.883881
     11          1           0       -2.381560   -1.892890   -0.886758
     12          1           0       -2.381560   -1.892882    0.886773
     13          1           0       -3.771616   -1.247498    0.000005
     14          8           0        2.423870   -1.729245    0.000010
     15          1           0        1.457837   -1.819141    0.000010
 ---------------------------------------------------------------------

 SCF Done:  E(UHF) =  -417.982279366     A.U. after   30 cycles
 E2 =    -0.1251378853D+01 EUMP2 =    -0.41923365821872D+03
 CCSD(T)= -0.41935667641D+03

 The electronic state is 2-A.
 Alpha  occ. eigenvalues --  -20.62486 -20.61190 -20.57369 -11.41946 -11.30669
 Alpha  occ. eigenvalues --  -11.28026 -11.27427 -11.23852  -1.49368  -1.39601
 Alpha  occ. eigenvalues --   -1.36780  -1.10196  -1.05136  -0.92223  -0.84446
 Alpha  occ. eigenvalues --   -0.78444  -0.73737  -0.70572  -0.70316  -0.64983
 Alpha  occ. eigenvalues --   -0.63686  -0.61532  -0.60214  -0.56846  -0.54369
 Alpha  occ. eigenvalues --   -0.53650  -0.53244  -0.49528  -0.48626  -0.43511
 Alpha  occ. eigenvalues --   -0.42523
 Alpha virt. eigenvalues --    0.03643   0.04794   0.05680   0.06076   0.06886
 Alpha virt. eigenvalues --    0.08928   0.09405   0.09549   0.11123   0.12247
 Alpha virt. eigenvalues --    0.12498   0.12933   0.15671   0.15736   0.16062

  Beta  occ. eigenvalues --  -20.62434 -20.57743 -20.56809 -11.42396 -11.30651
  Beta  occ. eigenvalues --  -11.30203 -11.24850 -11.23851  -1.49007  -1.38640
  Beta  occ. eigenvalues --   -1.24834  -1.07683  -1.04846  -0.92995  -0.84115
  Beta  occ. eigenvalues --   -0.77970  -0.73250  -0.70420  -0.69615  -0.62167
  Beta  occ. eigenvalues --   -0.60714  -0.59685  -0.56673  -0.53165  -0.52983
  Beta  occ. eigenvalues --   -0.51199  -0.48381  -0.47355  -0.45524  -0.42432
  Beta virt. eigenvalues --    0.03609   0.04710   0.05210   0.06064   0.06786
  Beta virt. eigenvalues --    0.07128   0.08571   0.09327   0.10336   0.11953
  Beta virt. eigenvalues --    0.12006   0.12477   0.13537   0.15176   0.15752

 Mulliken charges and spin densities:
               1          2
     1  C   -1.968364  -1.043684
     2  H    0.210024   0.083955
     3  C    2.141277   1.079607
     4  C   -0.115234  -0.019350
     5  O   -0.288060   0.112058
     6  O   -0.173531  -0.006014
     7  C    0.015391   0.007621
     8  C   -0.634255  -0.001665
     9  H    0.182038  -0.000102
    10  H    0.182038  -0.000102
    11  H    0.154852   0.000022
    12  H    0.154852   0.000022
    13  H    0.142061   0.000220
    14  O   -0.256797   0.813598
    15  H    0.253708  -0.026188
 Sum of Mulliken charges =  -0.00000   1.00000

 Dipole moment (field-independent basis, Debye):
    X=             -1.8240    Y=             -1.5217    Z=              0.0000  Tot=              2.3754
 Quadrupole moment (field-independent basis, Debye-Ang):
   XX=            -39.9009   YY=            -56.5629   ZZ=            -47.5664
   XY=              6.2977   XZ=             -0.0000   YZ=              0.0000

 846481\MP4SDQ=-419.2930866\CCSD=-419.3021692\CCSD(T)=-419.3566764\S2=1
 Normal termination of Gaussian 16 at Tue Apr 22 10:17:44 2025.
