 Gaussian 16, Revision A.03,
 Gaussian 16:  ES64L-G16RevA.03 25-Dec-2016

 --------------------------
 # ccsd(t)/6-311++g(d,p) sp
 --------------------------

 -------------------
 Title Card Required
 -------------------
 Symbolic Z-matrix:
 Charge =  0 Multiplicity = 2

                         Standard orientation:
 ---------------------------------------------------------------------
 Center     Atomic      Atomic             Coordinates (Angstroms)
 Number     Number       Type             X           Y           Z
 ---------------------------------------------------------------------
      1          6           0        2.593403    0.031068    0.000001
      2          1           0        3.655178    0.229172    0.000001
      3          6           0        1.511567    0.717546   -0.000003
      4          6           0        0.083012    0.996925   -0.000005
      5          8           0       -0.376816    2.104846   -0.000010
      6          8           0       -0.633438   -0.131776   -0.000000
      7          6           0       -2.067444    0.039410   -0.000001
      8          6           0       -2.681545   -1.340046    0.000005
      9          1           0       -2.343689    0.617532    0.883810
     10          1           0       -2.343688    0.617524   -0.883817
     11          1           0       -2.378149   -1.898063   -0.886761
     12          1           0       -2.378149   -1.898055    0.886776
     13          1           0       -3.769455   -1.255465    0.000005
     14          8           0        2.440471   -1.637023    0.000010
     15          1           0        1.482247   -1.770442    0.000010
 ---------------------------------------------------------------------

 SCF Done:  E(UHF) =  -418.000090671     A.U. after   30 cycles
 E2 =    -0.1263117622D+01 EUMP2 =    -0.41926320829349D+03
 CCSD(T)= -0.41938033947D+03

 The electronic state is 2-A.
 Alpha  occ. eigenvalues --  -20.62574 -20.59399 -20.57592 -11.41922 -11.31966
 Alpha  occ. eigenvalues --  -11.30729 -11.28965 -11.23851  -1.49477  -1.39753
 Alpha  occ. eigenvalues --   -1.34664  -1.11071  -1.05349  -0.92494  -0.85008
 Alpha  occ. eigenvalues --   -0.78942  -0.74086  -0.70673  -0.70339  -0.63676
 Alpha  occ. eigenvalues --   -0.62064  -0.61767  -0.59269  -0.56772  -0.54155
 Alpha  occ. eigenvalues --   -0.53270  -0.52779  -0.49594  -0.48821  -0.43582
 Alpha  occ. eigenvalues --   -0.42757
 Alpha virt. eigenvalues --    0.03661   0.04864   0.05692   0.06059   0.06875
 Alpha virt. eigenvalues --    0.08777   0.09386   0.09563   0.10991   0.12269
 Alpha virt. eigenvalues --    0.12282   0.12727   0.15600   0.15665   0.16232

  Beta  occ. eigenvalues --  -20.62494 -20.57729 -20.56915 -11.42443 -11.34082
  Beta  occ. eigenvalues --  -11.30702 -11.25573 -11.23850  -1.48994  -1.38570
  Beta  occ. eigenvalues --   -1.29647  -1.07328  -1.04237  -0.93006  -0.84229
  Beta  occ. eigenvalues --   -0.78130  -0.73329  -0.70468  -0.69507  -0.62016
  Beta  occ. eigenvalues --   -0.60705  -0.59562  -0.56678  -0.53905  -0.53228
  Beta  occ. eigenvalues --   -0.52372  -0.51304  -0.48060  -0.47248  -0.41300
  Beta virt. eigenvalues --    0.03653   0.04767   0.05013   0.06033   0.06532
  Beta virt. eigenvalues --    0.06915   0.08153   0.09320   0.10150   0.11680
  Beta virt. eigenvalues --    0.11786   0.12538   0.13568   0.15101   0.15801

 Mulliken charges and spin densities:
               1          2
     1  C   -1.318574  -1.026352
     2  H    0.205701   0.085933
     3  C    1.590471   1.393924
     4  C   -0.150444   0.020744
     5  O   -0.290606   0.137446
     6  O   -0.175774  -0.002176
     7  C    0.012806   0.011633
     8  C   -0.610631  -0.001233
     9  H    0.182427  -0.000202
    10  H    0.182427  -0.000202
    11  H    0.154919   0.000059
    12  H    0.154919   0.000059
    13  H    0.141510   0.000439
    14  O   -0.335456   0.392460
    15  H    0.256305  -0.012532
 Sum of Mulliken charges =  -0.00000   1.00000

 Dipole moment (field-independent basis, Debye):
    X=             -1.9181    Y=             -0.8642    Z=              0.0000  Tot=              2.1038
 Quadrupole moment (field-independent basis, Debye-Ang):
   XX=            -40.9390   YY=            -57.7064   ZZ=            -47.4626
   XY=              8.2444   XZ=             -0.0000   YZ=              0.0001

 9.3073262\MP4SDQ=-419.3195641\CCSD=-419.3257893\CCSD(T)=-419.3803395\S
 Normal termination of Gaussian 16 at Mon Apr 21 20:18:46 2025.
