 Gaussian 16, Revision A.03,
 Gaussian 16:  ES64L-G16RevA.03 25-Dec-2016

 --------------------------
 # ccsd(t)/6-311++g(d,p) sp
 --------------------------

 -------------------
 Title Card Required
 -------------------
 Symbolic Z-matrix:
 Charge =  0 Multiplicity = 2

                         Standard orientation:
 ---------------------------------------------------------------------
 Center     Atomic      Atomic             Coordinates (Angstroms)
 Number     Number       Type             X           Y           Z
 ---------------------------------------------------------------------
      1          6           0       -2.668678   -0.385230   -0.000001
      2          1           0       -3.709330   -0.159848    0.000001
      3          6           0       -1.506890   -0.689752   -0.000003
      4          6           0       -0.087371   -1.001397   -0.000005
      5          8           0        0.366837   -2.108949   -0.000010
      6          8           0        0.635146    0.125562   -0.000000
      7          6           0        2.066721   -0.055786   -0.000001
      8          6           0        2.692064    1.318970    0.000005
      9          1           0        2.339628   -0.635906    0.883613
     10          1           0        2.339628   -0.635898   -0.883619
     11          1           0        2.393359    1.879404   -0.886905
     12          1           0        2.393359    1.879397    0.886920
     13          1           0        3.779281    1.226155    0.000005
     14          8           0       -2.388830    1.913627    0.000011
     15          1           0       -1.416223    1.883942    0.000010
 ---------------------------------------------------------------------

 SCF Done:  E(UHF) =  -417.995632651     A.U. after   32 cycles
 E2 =    -0.1258526512D+01 EUMP2 =    -0.41925415916355D+03
 CCSD(T)= -0.41935855302D+03

 The electronic state is 2-A.
 Alpha  occ. eigenvalues --  -20.62517 -20.62492 -20.57094 -11.42120 -11.30653
 Alpha  occ. eigenvalues --  -11.26833 -11.26243 -11.23878  -1.49208  -1.39270
 Alpha  occ. eigenvalues --   -1.37975  -1.09099  -1.05007  -0.92481  -0.84243
 Alpha  occ. eigenvalues --   -0.78124  -0.73303  -0.70487  -0.70176  -0.67053
 Alpha  occ. eigenvalues --   -0.65078  -0.61186  -0.60198  -0.56814  -0.55221
 Alpha  occ. eigenvalues --   -0.53475  -0.53217  -0.49300  -0.48262  -0.42991
 Alpha  occ. eigenvalues --   -0.42291
 Alpha virt. eigenvalues --    0.03621   0.04711   0.05670   0.06073   0.06907
 Alpha virt. eigenvalues --    0.08619   0.09329   0.09573   0.11165   0.12296
 Alpha virt. eigenvalues --    0.12478   0.13121   0.15415   0.15622   0.16198

  Beta  occ. eigenvalues --  -20.62505 -20.58408 -20.56845 -11.42313 -11.30647
  Beta  occ. eigenvalues --  -11.27673 -11.25233 -11.23878  -1.49068  -1.38852
  Beta  occ. eigenvalues --   -1.22553  -1.08189  -1.04960  -0.92854  -0.84167
  Beta  occ. eigenvalues --   -0.77984  -0.73174  -0.70432  -0.69828  -0.62715
  Beta  occ. eigenvalues --   -0.60843  -0.59942  -0.56742  -0.53181  -0.53094
  Beta  occ. eigenvalues --   -0.50336  -0.48759  -0.47725  -0.43297  -0.42755
  Beta virt. eigenvalues --    0.03588   0.04680   0.05424   0.06070   0.06839
  Beta virt. eigenvalues --    0.08016   0.08525   0.09319   0.10952   0.12047
  Beta virt. eigenvalues --    0.12257   0.12278   0.13438   0.15210   0.15687

 Mulliken charges and spin densities:
               1          2
     1  C   -0.655737  -0.471585
     2  H    0.231253   0.038329
     3  C    1.247291   0.506107
     4  C   -0.575086  -0.072706
     5  O   -0.289909   0.049557
     6  O   -0.152016  -0.002463
     7  C   -0.014160   0.000953
     8  C   -0.609165  -0.000153
     9  H    0.181620  -0.000008
    10  H    0.181621  -0.000008
    11  H    0.154414   0.000013
    12  H    0.154414   0.000013
    13  H    0.142576   0.000021
    14  O   -0.244373   0.985820
    15  H    0.247259  -0.033889
 Sum of Mulliken charges =  -0.00000   1.00000

 Dipole moment (field-independent basis, Debye):
    X=              1.7670    Y=              1.9690    Z=              0.0000  Tot=              2.6456
 Quadrupole moment (field-independent basis, Debye-Ang):
   XX=            -39.0930   YY=            -56.3795   ZZ=            -47.7102
   XY=              5.1161   XZ=              0.0000   YZ=             -0.0000

 -419.2863151\MP4SDQ=-419.3061604\CCSD=-419.3064686\CCSD(T)=-419.358553
 Normal termination of Gaussian 16 at Tue Apr 22 03:19:06 2025.
