 Gaussian 16, Revision A.03,
 Gaussian 16:  ES64L-G16RevA.03 25-Dec-2016

 -----------------------
 # ccsd(t)/6-311++g** sp
 -----------------------

 -------------------
 Title Card Required
 -------------------
 Symbolic Z-matrix:
 Charge =  0 Multiplicity = 2

                         Standard orientation:
 ---------------------------------------------------------------------
 Center     Atomic      Atomic             Coordinates (Angstroms)
 Number     Number       Type             X           Y           Z
 ---------------------------------------------------------------------
      1          8           0        2.855610    0.770244    0.020528
      2          1           0        2.050898    1.261289   -0.225188
      3          6           0        2.502774   -0.494977    0.279703
      4          1           0        3.346369   -1.116462    0.560660
      5          6           0        1.261302   -0.970474    0.209195
      6          6           0        0.074405   -0.228397   -0.152662
      7          8           0        0.134704    0.957488   -0.438221
      8          8           0       -1.048658   -0.934721   -0.149727
      9          6           0       -2.258483   -0.226118   -0.484808
     10          6           0       -2.776897    0.558727    0.704205
     11          1           0       -2.951568   -1.011541   -0.780897
     12          1           0       -2.059827    0.424395   -1.337068
     13          1           0       -3.731169    1.023352    0.448485
     14          1           0       -2.932203   -0.102426    1.558072
     15          1           0       -2.074346    1.344742    0.981492
 ---------------------------------------------------------------------

 SCF Done:  E(UHF) =  -418.053451048     A.U. after   27 cycles
 E2 =    -0.1264310571D+01 EUMP2 =    -0.41931776161901D+03
 CCSD(T)= -0.41942299300D+03

 The electronic state is 2-A.
 Alpha  occ. eigenvalues --  -20.61571 -20.59911 -20.56308 -11.40649 -11.32334
 Alpha  occ. eigenvalues --  -11.29926 -11.27461 -11.22799  -1.48488  -1.42445
 Alpha  occ. eigenvalues --   -1.38152  -1.09497  -1.04112  -0.92134  -0.86257
 Alpha  occ. eigenvalues --   -0.79300  -0.74301  -0.70830  -0.67720  -0.66864
 Alpha  occ. eigenvalues --   -0.63812  -0.60132  -0.59027  -0.57305  -0.55006
 Alpha  occ. eigenvalues --   -0.54216  -0.51215  -0.50145  -0.47750  -0.44212
 Alpha  occ. eigenvalues --   -0.40428
 Alpha virt. eigenvalues --    0.04072   0.04853   0.05746   0.06322   0.07336
 Alpha virt. eigenvalues --    0.08586   0.09389   0.10202   0.11252   0.12426
 Alpha virt. eigenvalues --    0.12824   0.13902   0.14732   0.15159   0.16015

  Beta  occ. eigenvalues --  -20.61559 -20.59988 -20.55718 -11.40814 -11.33298
  Beta  occ. eigenvalues --  -11.29936 -11.23899 -11.22796  -1.48110  -1.42567
  Beta  occ. eigenvalues --   -1.37119  -1.06031  -1.02550  -0.92239  -0.85288
  Beta  occ. eigenvalues --   -0.78940  -0.73649  -0.69627  -0.66344  -0.65929
  Beta  occ. eigenvalues --   -0.62745  -0.61053  -0.58558  -0.57552  -0.54468
  Beta  occ. eigenvalues --   -0.53992  -0.50573  -0.46975  -0.46316  -0.36283
  Beta virt. eigenvalues --    0.04021   0.04648   0.05624   0.05757   0.06908
  Beta virt. eigenvalues --    0.07335   0.08725   0.09220   0.09945   0.11811
  Beta virt. eigenvalues --    0.12805   0.13397   0.13817   0.14425   0.15470

 Mulliken charges and spin densities:
               1          2
     1  O   -0.283682   0.012881
     2  H    0.320570  -0.000828
     3  C   -0.396522  -0.481407
     4  H    0.221231   0.057947
     5  C    0.635777   1.350737
     6  C   -0.287070  -0.042226
     7  O   -0.389762   0.101241
     8  O   -0.098986   0.007368
     9  C   -0.160435  -0.010121
    10  C   -0.364949   0.002732
    11  H    0.168000   0.000538
    12  H    0.186587   0.001051
    13  H    0.128703   0.000045
    14  H    0.147581   0.000132
    15  H    0.172958  -0.000090
 Sum of Mulliken charges =  -0.00000   1.00000

 Dipole moment (field-independent basis, Debye):
    X=             -1.7292    Y=             -1.0003    Z=              0.1871  Tot=              2.0064
 Quadrupole moment (field-independent basis, Debye-Ang):
   XX=            -42.5379   YY=            -50.2447   ZZ=            -47.5041
   XY=             -4.3584   XZ=              1.8555   YZ=              0.2249

 MP3-0=-419.3506276\MP4SDQ=-419.3687379\CCSD=-419.3700327\CCSD(T)=-419.
 Normal termination of Gaussian 16 at Tue Jun 10 19:57:50 2025.
