 Gaussian 16, Revision A.03,
 Gaussian 16:  ES64L-G16RevA.03 25-Dec-2016

 --------------------------------------------------
 # opt=(calcfc,tight,noeigentest) freq 6-31+g m062x
 --------------------------------------------------

 -------------------
 Title Card Required
 -------------------
 Symbolic Z-matrix:
 Charge =  0 Multiplicity = 2

 SCF Done:  E(UM062X) =  -419.981825345     A.U. after   20 cycles
 SCF Done:  E(UM062X) =  -419.992837922     A.U. after   20 cycles
 SCF Done:  E(UM062X) =  -420.008969117     A.U. after   19 cycles
 SCF Done:  E(UM062X) =  -420.004539259     A.U. after   22 cycles
 SCF Done:  E(UM062X) =  -420.012355878     A.U. after   20 cycles
 SCF Done:  E(UM062X) =  -420.016927478     A.U. after   18 cycles
 SCF Done:  E(UM062X) =  -420.015270628     A.U. after   18 cycles
 SCF Done:  E(UM062X) =  -420.023073592     A.U. after   17 cycles
 SCF Done:  E(UM062X) =  -420.024504816     A.U. after   16 cycles
 SCF Done:  E(UM062X) =  -420.024678200     A.U. after   16 cycles
 SCF Done:  E(UM062X) =  -420.025974587     A.U. after   16 cycles
 SCF Done:  E(UM062X) =  -420.026069004     A.U. after   16 cycles
 SCF Done:  E(UM062X) =  -420.026075045     A.U. after   14 cycles
 SCF Done:  E(UM062X) =  -420.026075974     A.U. after   12 cycles
 SCF Done:  E(UM062X) =  -420.026076375     A.U. after   11 cycles
 SCF Done:  E(UM062X) =  -420.026076501     A.U. after   11 cycles
 SCF Done:  E(UM062X) =  -420.026076508     A.U. after   10 cycles
 SCF Done:  E(UM062X) =  -420.026076509     A.U. after    6 cycles
 SCF Done:  E(UM062X) =  -420.026076510     A.U. after    5 cycles
 Optimization completed.
    -- Stationary point found.
 Normal termination of Gaussian 16 at Sun Jun  8 18:45:27 2025.

 ------------------------------------------------------------------
 #N Geom=AllCheck Guess=TCheck SCRF=Check GenChk UM062X/6-31+G Freq
 ------------------------------------------------------------------

 Structure from the checkpoint file:  "ethyl_propiolate.chk"
 -------------------
 Title Card Required
 -------------------
 Charge =  0 Multiplicity = 2

                         Standard orientation:
 ---------------------------------------------------------------------
 Center     Atomic      Atomic             Coordinates (Angstroms)
 Number     Number       Type             X           Y           Z
 ---------------------------------------------------------------------
      1          8           0        2.878479    0.776721    0.025998
      2          1           0        2.098439    1.327736   -0.222924
      3          6           0        2.521573   -0.518665    0.278903
      4          1           0        3.371859   -1.129458    0.549885
      5          6           0        1.270504   -0.986043    0.202513
      6          6           0        0.092871   -0.238636   -0.148752
      7          8           0        0.157554    0.981558   -0.428540
      8          8           0       -1.059709   -0.934764   -0.159083
      9          6           0       -2.297912   -0.212049   -0.497052
     10          6           0       -2.815016    0.547194    0.711319
     11          1           0       -2.974115   -1.006797   -0.808128
     12          1           0       -2.087518    0.454295   -1.336428
     13          1           0       -3.776695    1.011445    0.473417
     14          1           0       -2.958490   -0.131736    1.555391
     15          1           0       -2.116189    1.335583    1.000200
 ---------------------------------------------------------------------

 SCF Done:  E(UM062X) =  -420.026076510     A.U. after    1 cycles

 The electronic state is 2-A.
 Alpha  occ. eigenvalues --  -19.70847 -19.69352 -19.66656 -10.72539 -10.65568
 Alpha  occ. eigenvalues --  -10.62154 -10.60389 -10.55022  -1.26134  -1.21254
 Alpha  occ. eigenvalues --   -1.16672  -0.91931  -0.88101  -0.78678  -0.73786
 Alpha  occ. eigenvalues --   -0.67126  -0.62971  -0.58877  -0.57026  -0.56134
 Alpha  occ. eigenvalues --   -0.53904  -0.50371  -0.49096  -0.47963  -0.46524
 Alpha  occ. eigenvalues --   -0.45122  -0.42294  -0.39848  -0.38598  -0.34024
 Alpha  occ. eigenvalues --   -0.33341
 Alpha virt. eigenvalues --   -0.02682   0.01809   0.02857   0.03373   0.04285
 Alpha virt. eigenvalues --    0.04964   0.06049   0.06345   0.07842   0.07964
 Alpha virt. eigenvalues --    0.08785   0.09224   0.10182   0.10899   0.11437

  Beta  occ. eigenvalues --  -19.70838 -19.69296 -19.66484 -10.72538 -10.65626
  Beta  occ. eigenvalues --  -10.62154 -10.59344 -10.55022  -1.25934  -1.21009
  Beta  occ. eigenvalues --   -1.16297  -0.90328  -0.87278  -0.78319  -0.73328
  Beta  occ. eigenvalues --   -0.66695  -0.62414  -0.58275  -0.56437  -0.55706
  Beta  occ. eigenvalues --   -0.53416  -0.50161  -0.48469  -0.47205  -0.46453
  Beta  occ. eigenvalues --   -0.45020  -0.42075  -0.38504  -0.37756  -0.31523
  Beta virt. eigenvalues --   -0.07919  -0.02713   0.01672   0.02707   0.03360
  Beta virt. eigenvalues --    0.04227   0.05117   0.06349   0.06365   0.07698
  Beta virt. eigenvalues --    0.07858   0.08906   0.09295   0.09917   0.10623

 Mulliken charges and spin densities:
               1          2
     1  O   -0.550917   0.019108
     2  H    0.491438  -0.000800
     3  C   -0.163412  -0.072094
     4  H    0.238473   0.022725
     5  C    0.193348   0.966363
     6  C    0.204110   0.010976
     7  O   -0.511745   0.050859
     8  O   -0.252150   0.005646
     9  C   -0.201014  -0.004376
    10  C   -0.570891   0.001487
    11  H    0.222099   0.000104
    12  H    0.236752   0.000131
    13  H    0.207391  -0.000006
    14  H    0.221106  -0.000029
    15  H    0.235412  -0.000095
 Sum of Mulliken charges =  -0.00000   1.00000

 Dipole moment (field-independent basis, Debye):
    X=             -1.9524    Y=             -0.6996    Z=              0.1156  Tot=              2.0772
 Quadrupole moment (field-independent basis, Debye-Ang):
   XX=            -42.9050   YY=            -51.1916   ZZ=            -47.9946
   XY=             -4.9363   XZ=              1.8006   YZ=              0.2336

  Exact polarizability:  97.403   2.191  61.940   3.782  -2.912  48.071
 Approx polarizability:  97.614   8.250  80.879   4.811  -6.505  51.512

                      1                      2                      3
                      A                      A                      A
 Frequencies --     70.4878                84.3319               139.0567
 Red. masses --      4.4723                 3.6496                 5.5905
 Frc consts  --      0.0131                 0.0153                 0.0637
 IR Inten    --      1.1702                 1.9641                 1.0559

                      4                      5                      6
                      A                      A                      A
 Frequencies --    164.5466               228.0384               314.5396
 Red. masses --      2.4905                 1.3773                 3.6921
 Frc consts  --      0.0397                 0.0422                 0.2152
 IR Inten    --      0.5274                 2.1688                14.4885

                      7                      8                      9
                      A                      A                      A
 Frequencies --    333.1967               370.6958               454.2928
 Red. masses --      3.1743                 4.0658                 3.9193
 Frc consts  --      0.2076                 0.3292                 0.4766
 IR Inten    --      5.6121                11.8754                 9.9820

                     10                     11                     12
                      A                      A                      A
 Frequencies --    592.6790               730.7661               764.3277
 Red. masses --      4.3893                 1.2439                 3.5260
 Frc consts  --      0.9084                 0.3914                 1.2137
 IR Inten    --      7.2845               115.3506                 2.1237

                     13                     14                     15
                      A                      A                      A
 Frequencies --    777.3433               843.4611               892.3357
 Red. masses --      7.4245                 1.3435                 3.4708
 Frc consts  --      2.6433                 0.5631                 1.6283
 IR Inten    --     89.8867                 4.1366                 8.9346

                     16                     17                     18
                      A                      A                      A
 Frequencies --    953.7763               975.1843              1066.1654
 Red. masses --      3.9597                 1.3918                 3.5931
 Frc consts  --      2.1223                 0.7798                 2.4064
 IR Inten    --      0.3164                41.2952                28.9333

                     19                     20                     21
                      A                      A                      A
 Frequencies --   1133.2187              1146.2762              1220.8795
 Red. masses --      4.4651                 1.9738                 1.6889
 Frc consts  --      3.3783                 1.5280                 1.4832
 IR Inten    --    436.1407                27.8261                21.3102

                     22                     23                     24
                      A                      A                      A
 Frequencies --   1299.3193              1332.7752              1351.7172
 Red. masses --      1.3699                 1.4518                 1.6693
 Frc consts  --      1.3626                 1.5194                 1.7970
 IR Inten    --     65.9082                97.1966               253.1248

                     25                     26                     27
                      A                      A                      A
 Frequencies --   1418.7527              1454.0526              1459.5032
 Red. masses --      1.2427                 1.6374                 1.3943
 Frc consts  --      1.4738                 2.0396                 1.7500
 IR Inten    --     18.3361               162.9091                34.6739

                     28                     29                     30
                      A                      A                      A
 Frequencies --   1527.5558              1532.5851              1545.5358
 Red. masses --      1.0620                 1.1146                 1.0564
 Frc consts  --      1.4601                 1.5425                 1.4868
 IR Inten    --     22.6920                17.1501                18.2347

                     31                     32                     33
                      A                      A                      A
 Frequencies --   1629.2068              1694.6899              3090.0382
 Red. masses --      6.9636                 6.9866                 1.0352
 Frc consts  --     10.8902                11.8221                 5.8240
 IR Inten    --    163.5571               423.2967                13.5887

                     34                     35                     36
                      A                      A                      A
 Frequencies --   3129.3380              3169.1378              3176.4007
 Red. masses --      1.0610                 1.0983                 1.1023
 Frc consts  --      6.1217                 6.4990                 6.5528
 IR Inten    --     16.0691                20.6113                 1.8854

                     37                     38                     39
                      A                      A                      A
 Frequencies --   3204.5301              3278.8213              3535.2562
 Red. masses --      1.1069                 1.0926                 1.0654
 Frc consts  --      6.6972                 6.9204                 7.8450
 IR Inten    --     15.6727                 1.3971                88.9401

 - Thermochemistry -
 -------------------
 Temperature   298.150 Kelvin.  Pressure   1.00000 Atm.
 Atom     1 has atomic number  8 and mass  15.99491

 Molecular mass:   115.03952 amu.
 Principal axes and moments of inertia in atomic units:
                           1         2         3
     Eigenvalues --   308.287201721.347001883.04195
           X            0.99990  -0.01331  -0.00478
           Y            0.01341   0.99970   0.02063
           Z            0.00450  -0.02070   0.99978
 This molecule is an asymmetric top.
 Rotational symmetry number  1.
 Rotational temperatures (Kelvin)      0.28095     0.05032     0.04600
 Rotational constants (GHZ):           5.85409     1.04845     0.95842
 Zero-point vibrational energy     311536.4 (Joules/Mol)
                                   74.45898 (Kcal/Mol)
 Warning -- explicit consideration of  10 degrees of freedom as
           vibrations may cause significant error
 Vibrational temperatures:    101.42   121.33   200.07   236.75   328.10
          (Kelvin)            452.55   479.40   533.35   653.63   852.73
                             1051.41  1099.70  1118.42  1213.55  1283.87
                             1372.27  1403.07  1533.97  1630.45  1649.24
                             1756.57  1869.43  1917.57  1944.82  2041.27
                             2092.06  2099.90  2197.81  2205.05  2223.68
                             2344.07  2438.28  4445.88  4502.42  4559.68
                             4570.13  4610.60  4717.49  5086.45

 Zero-point correction=                           0.118658 (Hartree/Particle)
 Thermal correction to Energy=                    0.127028
 Thermal correction to Enthalpy=                  0.127973
 Thermal correction to Gibbs Free Energy=         0.084454
 Sum of electronic and zero-point Energies=           -419.907419
 Sum of electronic and thermal Energies=              -419.899048
 Sum of electronic and thermal Enthalpies=            -419.898104
 Sum of electronic and thermal Free Energies=         -419.941623

                     E (Thermal)             CV                S
                      KCal/Mol        Cal/Mol-Kelvin    Cal/Mol-Kelvin
 Total                   79.712             28.735             91.593
 Electronic               0.000              0.000              1.377
 Translational            0.889              2.981             40.136
 Rotational               0.889              2.981             28.393
 Vibrational             77.934             22.773             21.687
 Vibration     1          0.598              1.968              4.140
 Vibration     2          0.601              1.960              3.787
 Vibration     3          0.615              1.914              2.817
 Vibration     4          0.623              1.886              2.497
 Vibration     5          0.651              1.798              1.894
 Vibration     6          0.702              1.646              1.338
 Vibration     7          0.715              1.609              1.245
 Vibration     8          0.743              1.532              1.077
 Vibration     9          0.813              1.351              0.783
 Vibration    10          0.950              1.047              0.462

                           ! Non-Optimized Parameters !
 Normal termination of Gaussian 16 at Sun Jun  8 18:46:00 2025.
