 Gaussian 16, Revision A.03,
 Gaussian 16:  ES64L-G16RevA.03 25-Dec-2016

 ---------------------------------------------------------
 # opt=(calcfc,tight,noeigentest) freq 6-311++g(d,p) m062x
 ---------------------------------------------------------

 -------------------
 Title Card Required
 -------------------
 Symbolic Z-matrix:
 Charge =  0 Multiplicity = 2

 SCF Done:  E(UM062X) =  -420.277721587     A.U. after   19 cycles
 SCF Done:  E(UM062X) =  -420.281832622     A.U. after   17 cycles
 SCF Done:  E(UM062X) =  -420.281861051     A.U. after   13 cycles
 SCF Done:  E(UM062X) =  -420.281861914     A.U. after   12 cycles
 SCF Done:  E(UM062X) =  -420.281861905     A.U. after   10 cycles
 Optimization completed.
    -- Stationary point found.

 1\1\GINC-AJ\FOpt\UM062X\6-311++G(d,p)\C5H7O3(2)\AAYUSH\08-Jun-2025\0\\
 # opt=(calcfc,tight,noeigentest) freq 6-311++g(d,p) m062x\\Title Card
 Required\\0,2\O,2.8488097069,0.7774950003,0.0345573439\H,2.0435691441,
 1.2712083809,-0.2039734581\C,2.4976500549,-0.4922243302,0.2731986915\H
 ,3.3419401261,-1.1168656466,0.5449159687\C,1.2569482994,-0.9683722985,
 0.1940514407\C,0.069243966,-0.2223706514,-0.1569225966\O,0.1280076541,
 0.968011047,-0.4234611611\O,-1.0527647447,-0.9303133643,-0.1662205326\
 C,-2.2633685392,-0.2182421811,-0.4909762928\C,-2.7839383927,0.54675030

 Normal termination of Gaussian 16 at Sun Jun  8 23:48:30 2025.

 ----------------------------------------------------------------------
 #N Geom=AllCheck Guess=TCheck SCRF=Check GenChk UM062X/6-311++G(d,p) F
 req
 ----------------------------------------------------------------------

 Structure from the checkpoint file:  "ethyl_propiolate.chk"
 -------------------
 Title Card Required
 -------------------
 Charge =  0 Multiplicity = 2

                         Standard orientation:
 ---------------------------------------------------------------------
 Center     Atomic      Atomic             Coordinates (Angstroms)
 Number     Number       Type             X           Y           Z
 ---------------------------------------------------------------------
      1          8           0        2.855610    0.770244    0.020528
      2          1           0        2.050898    1.261289   -0.225188
      3          6           0        2.502774   -0.494977    0.279703
      4          1           0        3.346369   -1.116462    0.560660
      5          6           0        1.261302   -0.970474    0.209195
      6          6           0        0.074405   -0.228397   -0.152662
      7          8           0        0.134704    0.957488   -0.438221
      8          8           0       -1.048658   -0.934721   -0.149727
      9          6           0       -2.258483   -0.226118   -0.484808
     10          6           0       -2.776897    0.558727    0.704205
     11          1           0       -2.951568   -1.011541   -0.780897
     12          1           0       -2.059827    0.424395   -1.337068
     13          1           0       -3.731169    1.023352    0.448485
     14          1           0       -2.932203   -0.102426    1.558072
     15          1           0       -2.074346    1.344742    0.981492
 ---------------------------------------------------------------------

 SCF Done:  E(UM062X) =  -420.281861905     A.U. after    1 cycles

 The electronic state is 2-A.
 Alpha  occ. eigenvalues --  -19.68245 -19.67080 -19.63288 -10.69767 -10.63456
 Alpha  occ. eigenvalues --  -10.60630 -10.57636 -10.53877  -1.25626  -1.21092
 Alpha  occ. eigenvalues --   -1.16042  -0.90734  -0.87167  -0.78066  -0.73166
 Alpha  occ. eigenvalues --   -0.66678  -0.62889  -0.59232  -0.57108  -0.56406
 Alpha  occ. eigenvalues --   -0.53543  -0.50505  -0.49462  -0.48278  -0.46355
 Alpha  occ. eigenvalues --   -0.45216  -0.42076  -0.40166  -0.38808  -0.33328
 Alpha  occ. eigenvalues --   -0.32844
 Alpha virt. eigenvalues --   -0.01301  -0.00120   0.00969   0.01693   0.02003
 Alpha virt. eigenvalues --    0.02989   0.04297   0.05347   0.06139   0.06931
 Alpha virt. eigenvalues --    0.07307   0.08141   0.08752   0.09432   0.10850

  Beta  occ. eigenvalues --  -19.68238 -19.67036 -19.63126 -10.69749 -10.63495
  Beta  occ. eigenvalues --  -10.60630 -10.56628 -10.53876  -1.25448  -1.20832
  Beta  occ. eigenvalues --   -1.15644  -0.89485  -0.85979  -0.77791  -0.72626
  Beta  occ. eigenvalues --   -0.66368  -0.62325  -0.58710  -0.56438  -0.55853
  Beta  occ. eigenvalues --   -0.52971  -0.50451  -0.48804  -0.47800  -0.46255
  Beta  occ. eigenvalues --   -0.45113  -0.41897  -0.38769  -0.37763  -0.30970
  Beta virt. eigenvalues --   -0.07448  -0.01230  -0.00116   0.01031   0.01666
  Beta virt. eigenvalues --    0.02183   0.03009   0.04572   0.05403   0.06211
  Beta virt. eigenvalues --    0.07099   0.07253   0.08167   0.08738   0.09393

 Mulliken charges and spin densities:
               1          2
     1  O   -0.188849   0.010798
     2  H    0.293788   0.000872
     3  C   -0.453885  -0.047772
     4  H    0.214133   0.019317
     5  C    0.592890   0.915961
     6  C   -0.383135   0.054252
     7  O   -0.311667   0.051601
     8  O    0.000191   0.001759
     9  C   -0.268760  -0.010765
    10  C   -0.403006   0.002643
    11  H    0.197398  -0.000036
    12  H    0.199411   0.001281
    13  H    0.161135   0.000226
    14  H    0.167907   0.000032
    15  H    0.182450  -0.000170
 Sum of Mulliken charges =  -0.00000   1.00000

 Dipole moment (field-independent basis, Debye):
    X=             -1.5951    Y=             -0.6008    Z=              0.1347  Tot=              1.7098
 Quadrupole moment (field-independent basis, Debye-Ang):
   XX=            -41.6531   YY=            -50.0888   ZZ=            -47.6583
   XY=             -3.6697   XZ=              1.6699   YZ=              0.2010

  Exact polarizability:  97.480   1.087  62.999   3.231  -2.182  51.456
 Approx polarizability:  99.098   6.015  82.557   4.214  -5.096  60.672

                      1                      2                      3
                      A                      A                      A
 Frequencies --     67.1780                94.2736               137.8586
 Red. masses --      5.4732                 3.3955                 5.6016
 Frc consts  --      0.0146                 0.0178                 0.0627
 IR Inten    --      1.8804                 1.2200                 0.1626

                      4                      5                      6
                      A                      A                      A
 Frequencies --    167.5770               232.9618               315.2407
 Red. masses --      2.5184                 1.3612                 2.9525
 Frc consts  --      0.0417                 0.0435                 0.1729
 IR Inten    --      0.2973                 2.3199                 3.1775

                      7                      8                      9
                      A                      A                      A
 Frequencies --    322.6336               371.0826               457.7892
 Red. masses --      3.8242                 4.0105                 3.8361
 Frc consts  --      0.2345                 0.3254                 0.4737
 IR Inten    --     10.4158                13.9642                11.0181

                     10                     11                     12
                      A                      A                      A
 Frequencies --    594.8580               721.1782               772.3190
 Red. masses --      4.2961                 1.1834                 2.5628
 Frc consts  --      0.8957                 0.3626                 0.9007
 IR Inten    --      4.9474                90.5653                 6.0501

                     13                     14                     15
                      A                      A                      A
 Frequencies --    779.6796               826.2498               904.9804
 Red. masses --      8.0532                 1.5705                 2.5921
 Frc consts  --      2.8844                 0.6317                 1.2508
 IR Inten    --     47.8743                 4.2913                 5.2152

                     16                     17                     18
                      A                      A                      A
 Frequencies --    958.9581               961.2825              1075.7769
 Red. masses --      4.0702                 1.4031                 4.0588
 Frc consts  --      2.2053                 0.7639                 2.7675
 IR Inten    --      1.5593                30.0023                24.5655

                     19                     20                     21
                      A                      A                      A
 Frequencies --   1128.2664              1188.8335              1207.5788
 Red. masses --      2.0816                 3.6168                 1.8864
 Frc consts  --      1.5612                 3.0117                 1.6208
 IR Inten    --     20.2879               392.1840               122.3702

                     22                     23                     24
                      A                      A                      A
 Frequencies --   1294.9567              1341.1233              1360.1520
 Red. masses --      1.4059                 1.3700                 1.7209
 Frc consts  --      1.3891                 1.4519                 1.8758
 IR Inten    --     95.8087                31.9216               250.8013

                     25                     26                     27
                      A                      A                      A
 Frequencies --   1402.3384              1425.9380              1452.0242
 Red. masses --      1.2692                 1.3394                 1.8876
 Frc consts  --      1.4706                 1.6046                 2.3448
 IR Inten    --     16.7162                63.2384               169.2756

                     28                     29                     30
                      A                      A                      A
 Frequencies --   1492.1096              1504.2731              1516.4882
 Red. masses --      1.0419                 1.0688                 1.1110
 Frc consts  --      1.3667                 1.4250                 1.5053
 IR Inten    --     10.3229                 6.6648                35.5632

                     31                     32                     33
                      A                      A                      A
 Frequencies --   1690.6525              1733.2750              3075.0623
 Red. masses --      5.3337                10.2003                 1.0354
 Frc consts  --      8.9824                18.0550                 5.7687
 IR Inten    --    340.6746               298.4190                10.9507

                     34                     35                     36
                      A                      A                      A
 Frequencies --   3107.9397              3149.5515              3154.8131
 Red. masses --      1.0606                 1.1018                 1.1046
 Frc consts  --      6.0357                 6.4393                 6.4773
 IR Inten    --     19.1735                14.1031                 3.4831

                     37                     38                     39
                      A                      A                      A
 Frequencies --   3174.8489              3207.2085              3672.1211
 Red. masses --      1.1073                 1.0906                 1.0660
 Frc consts  --      6.5758                 6.6098                 8.4689
 IR Inten    --     16.6144                 2.4522               129.3318

 - Thermochemistry -
 -------------------
 Temperature   298.150 Kelvin.  Pressure   1.00000 Atm.
 Atom     1 has atomic number  8 and mass  15.99491

 Molecular mass:   115.03952 amu.
 Principal axes and moments of inertia in atomic units:
                           1         2         3
     Eigenvalues --   301.925921684.801911841.63909
           X            0.99989  -0.01388  -0.00463
           Y            0.01398   0.99966   0.02198
           Z            0.00432  -0.02205   0.99975
 This molecule is an asymmetric top.
 Rotational symmetry number  1.
 Rotational temperatures (Kelvin)      0.28687     0.05141     0.04703
 Rotational constants (GHZ):           5.97743     1.07119     0.97996
 Zero-point vibrational energy     311276.9 (Joules/Mol)
                                   74.39696 (Kcal/Mol)
 Warning -- explicit consideration of  10 degrees of freedom as
           vibrations may cause significant error
 Vibrational temperatures:     96.65   135.64   198.35   241.11   335.18
          (Kelvin)            453.56   464.20   533.91   658.66   855.87
                             1037.61  1111.19  1121.79  1188.79  1302.06
                             1379.73  1383.07  1547.80  1623.32  1710.47
                             1737.44  1863.15  1929.58  1956.96  2017.65
                             2051.61  2089.14  2146.81  2164.31  2181.89
                             2432.47  2493.80  4424.33  4471.63  4531.50
                             4539.07  4567.90  4614.46  5283.36

 Zero-point correction=                           0.118559 (Hartree/Particle)
 Thermal correction to Energy=                    0.126916
 Thermal correction to Enthalpy=                  0.127860
 Thermal correction to Gibbs Free Energy=         0.084438
 Sum of electronic and zero-point Energies=           -420.163303
 Sum of electronic and thermal Energies=              -420.154946
 Sum of electronic and thermal Enthalpies=            -420.154002
 Sum of electronic and thermal Free Energies=         -420.197424

                     E (Thermal)             CV                S
                      KCal/Mol        Cal/Mol-Kelvin    Cal/Mol-Kelvin
 Total                   79.641             28.739             91.389
 Electronic               0.000              0.000              1.377
 Translational            0.889              2.981             40.136
 Rotational               0.889              2.981             28.329
 Vibrational             77.863             22.777             21.547
 Vibration     1          0.598              1.970              4.234
 Vibration     2          0.603              1.953              3.569
 Vibration     3          0.614              1.916              2.833
 Vibration     4          0.624              1.882              2.462
 Vibration     5          0.654              1.791              1.856
 Vibration     6          0.703              1.645              1.335
 Vibration     7          0.708              1.630              1.297
 Vibration     8          0.743              1.532              1.075
 Vibration     9          0.816              1.344              0.773
 Vibration    10          0.953              1.043              0.459

 Optimization completed.
    -- Stationary point found.

 1\1\GINC-AJ\Freq\UM062X\6-311++G(d,p)\C5H7O3(2)\AAYUSH\08-Jun-2025\0\\
 #N Geom=AllCheck Guess=TCheck SCRF=Check GenChk UM062X/6-311++G(d,p) F
 req\\Title Card Required\\0,2\O,2.8488097069,0.7774950003,0.0345573439
 \H,2.0435691441,1.2712083809,-0.2039734581\C,2.4976500549,-0.492224330
 2,0.2731986915\H,3.3419401261,-1.1168656466,0.5449159687\C,1.256948299
 4,-0.9683722985,0.1940514407\C,0.069243966,-0.2223706514,-0.1569225966
 \O,0.1280076541,0.968011047,-0.4234611611\O,-1.0527647447,-0.930313364
 3,-0.1662205326\C,-2.2633685392,-0.2182421811,-0.4909762928\C,-2.78393

 Normal termination of Gaussian 16 at Sun Jun  8 23:50:26 2025.
