 Gaussian 16, Revision A.03,
 Gaussian 16:  ES64L-G16RevA.03 25-Dec-2016

 -----------------------
 # ccsd(t)/6-311++g** sp
 -----------------------

 -------------------
 Title Card Required
 -------------------
 Symbolic Z-matrix:
 Charge =  0 Multiplicity = 2

                         Standard orientation:
 ---------------------------------------------------------------------
 Center     Atomic      Atomic             Coordinates (Angstroms)
 Number     Number       Type             X           Y           Z
 ---------------------------------------------------------------------
      1          8           0        1.850246   -1.444934    0.142543
      2          1           0        1.001314   -1.875273   -0.009799
      3          6           0        2.629954    0.774216    0.252431
      4          1           0        2.676445    1.848790    0.246236
      5          6           0        1.661071   -0.102673    0.089165
      6          6           0        0.265548    0.396022   -0.170395
      7          8           0       -0.058391    1.547329   -0.245166
      8          8           0       -0.578225   -0.641293   -0.314588
      9          6           0       -1.965328   -0.320437   -0.551154
     10          6           0       -2.666868    0.034537    0.744140
     11          1           0       -2.377109   -1.221788   -1.001872
     12          1           0       -2.009029    0.499290   -1.268647
     13          1           0       -3.725878    0.213111    0.548340
     14          1           0       -2.581580   -0.782450    1.462232
     15          1           0       -2.239462    0.939506    1.176082
 ---------------------------------------------------------------------

 SCF Done:  E(UHF) =  -418.046417990     A.U. after   27 cycles
 E2 =    -0.1256716351D+01 EUMP2 =    -0.41930313434099D+03
 CCSD(T)= -0.41941260297D+03

 The electronic state is 2-A.
 Alpha  occ. eigenvalues --  -20.62362 -20.59268 -20.55985 -11.40688 -11.30925
 Alpha  occ. eigenvalues --  -11.30680 -11.27108 -11.23334  -1.48918  -1.41057
 Alpha  occ. eigenvalues --   -1.38154  -1.08060  -1.05329  -0.92903  -0.83729
 Alpha  occ. eigenvalues --   -0.78942  -0.77021  -0.70343  -0.67308  -0.65912
 Alpha  occ. eigenvalues --   -0.64176  -0.59768  -0.59319  -0.57491  -0.54972
 Alpha  occ. eigenvalues --   -0.54197  -0.51373  -0.47665  -0.46941  -0.43822
 Alpha  occ. eigenvalues --   -0.40275
 Alpha virt. eigenvalues --    0.03653   0.05361   0.05555   0.05708   0.07659
 Alpha virt. eigenvalues --    0.08554   0.08809   0.09580   0.11769   0.12186
 Alpha virt. eigenvalues --    0.12515   0.13865   0.14538   0.15253   0.16140

  Beta  occ. eigenvalues --  -20.62299 -20.59488 -20.56562 -11.40190 -11.32305
  Beta  occ. eigenvalues --  -11.30664 -11.23337 -11.23262  -1.49014  -1.41743
  Beta  occ. eigenvalues --   -1.38920  -1.06770  -1.03186  -0.91462  -0.81227
  Beta  occ. eigenvalues --   -0.77725  -0.75644  -0.70449  -0.67848  -0.64709
  Beta  occ. eigenvalues --   -0.63198  -0.61182  -0.59553  -0.58664  -0.55879
  Beta  occ. eigenvalues --   -0.54855  -0.51411  -0.48610  -0.46984  -0.36903
  Beta virt. eigenvalues --    0.03639   0.05159   0.05384   0.05733   0.07425
  Beta virt. eigenvalues --    0.07686   0.08792   0.09184   0.10187   0.12162
  Beta virt. eigenvalues --    0.12537   0.13505   0.14476   0.15991   0.16351

 Mulliken charges and spin densities:
               1          2
     1  O   -0.330899  -0.020093
     2  H    0.332031   0.000977
     3  C   -0.175720   1.755447
     4  H    0.216656  -0.056090
     5  C    0.288441  -0.729214
     6  C   -0.072576   0.171188
     7  O   -0.366024  -0.130199
     8  O   -0.159414   0.002388
     9  C   -0.167921   0.005986
    10  C   -0.364197  -0.000605
    11  H    0.159528   0.000130
    12  H    0.188471   0.000244
    13  H    0.132231  -0.000205
    14  H    0.142951   0.000007
    15  H    0.176442   0.000038
 Sum of Mulliken charges =  -0.00000   1.00000

 Dipole moment (field-independent basis, Debye):
    X=             -2.7582    Y=             -0.9285    Z=             -0.2774  Tot=              2.9235
 Quadrupole moment (field-independent basis, Debye-Ang):
   XX=            -45.9574   YY=            -49.9897   ZZ=            -47.4426
   XY=              5.9843   XZ=              0.3962   YZ=              1.3931

 0=-419.3425226\MP4SDQ=-419.356273\CCSD=-419.3604899\CCSD(T)=-419.41260
 Normal termination of Gaussian 16 at Tue Jun 10 19:16:10 2025.
