 Gaussian 16, Revision A.03,
 Gaussian 16:  ES64L-G16RevA.03 25-Dec-2016

 --------------------------------------------------
 # opt=(calcfc,tight,noeigentest) freq 6-31+g m062x
 --------------------------------------------------

 -------------------
 Title Card Required
 -------------------
 Symbolic Z-matrix:
 Charge =  0 Multiplicity = 2

 SCF Done:  E(UM062X) =  -419.983618350     A.U. after   18 cycles
 SCF Done:  E(UM062X) =  -419.990663489     A.U. after   17 cycles
 SCF Done:  E(UM062X) =  -420.000560187     A.U. after   16 cycles
 SCF Done:  E(UM062X) =  -419.977592006     A.U. after   19 cycles
 SCF Done:  E(UM062X) =  -420.013540308     A.U. after   18 cycles
 SCF Done:  E(UM062X) =  -419.985653225     A.U. after   19 cycles
 SCF Done:  E(UM062X) =  -420.014773907     A.U. after   19 cycles
 SCF Done:  E(UM062X) =  -420.016306053     A.U. after   17 cycles
 SCF Done:  E(UM062X) =  -420.016508755     A.U. after   15 cycles
 SCF Done:  E(UM062X) =  -420.016579446     A.U. after   14 cycles
 SCF Done:  E(UM062X) =  -420.016618660     A.U. after   14 cycles
 SCF Done:  E(UM062X) =  -420.016619321     A.U. after   13 cycles
 SCF Done:  E(UM062X) =  -420.016620078     A.U. after   12 cycles
 SCF Done:  E(UM062X) =  -420.016620093     A.U. after   10 cycles
 SCF Done:  E(UM062X) =  -420.016620093     A.U. after    6 cycles
 Optimization completed.
    -- Stationary point found.
 Normal termination of Gaussian 16 at Sun Jun  8 18:48:42 2025.

 ------------------------------------------------------------------
 #N Geom=AllCheck Guess=TCheck SCRF=Check GenChk UM062X/6-31+G Freq
 ------------------------------------------------------------------

 Structure from the checkpoint file:  "ethyl_propiolate.chk"
 -------------------
 Title Card Required
 -------------------
 Charge =  0 Multiplicity = 2

                         Standard orientation:
 ---------------------------------------------------------------------
 Center     Atomic      Atomic             Coordinates (Angstroms)
 Number     Number       Type             X           Y           Z
 ---------------------------------------------------------------------
      1          8           0        1.830101   -1.471687    0.131518
      2          1           0        0.978853   -1.928176   -0.018352
      3          6           0        2.677884    0.738329    0.261740
      4          1           0        2.792721    1.808981    0.270973
      5          6           0        1.666672   -0.097960    0.087542
      6          6           0        0.290303    0.408824   -0.167479
      7          8           0       -0.039595    1.589138   -0.243078
      8          8           0       -0.583671   -0.630646   -0.315627
      9          6           0       -2.000489   -0.313217   -0.557199
     10          6           0       -2.695117    0.028484    0.748010
     11          1           0       -2.392845   -1.220626   -1.014165
     12          1           0       -2.041283    0.514415   -1.268979
     13          1           0       -3.760879    0.196060    0.566575
     14          1           0       -2.591577   -0.790660    1.463781
     15          1           0       -2.275187    0.938823    1.181973
 ---------------------------------------------------------------------

 SCF Done:  E(UM062X) =  -420.016620093     A.U. after    1 cycles

 The electronic state is 2-A.
 Alpha  occ. eigenvalues --  -19.71978 -19.67733 -19.66798 -10.72747 -10.64602
 Alpha  occ. eigenvalues --  -10.63050 -10.60005 -10.55647  -1.26911  -1.19489
 Alpha  occ. eigenvalues --   -1.17474  -0.91323  -0.88880  -0.78789  -0.71003
 Alpha  occ. eigenvalues --   -0.67597  -0.64680  -0.58845  -0.57200  -0.55735
 Alpha  occ. eigenvalues --   -0.54926  -0.50586  -0.48463  -0.47210  -0.46355
 Alpha  occ. eigenvalues --   -0.45801  -0.43247  -0.39373  -0.37826  -0.33606
 Alpha  occ. eigenvalues --   -0.32611
 Alpha virt. eigenvalues --   -0.03219   0.00966   0.02736   0.03044   0.03733
 Alpha virt. eigenvalues --    0.05405   0.06293   0.07212   0.07487   0.07925
 Alpha virt. eigenvalues --    0.08922   0.09541   0.10198   0.10552   0.11853

  Beta  occ. eigenvalues --  -19.71961 -19.67738 -19.66867 -10.72647 -10.64731
  Beta  occ. eigenvalues --  -10.63045 -10.58957 -10.55648  -1.26890  -1.19483
  Beta  occ. eigenvalues --   -1.17532  -0.90727  -0.87668  -0.78134  -0.69654
  Beta  occ. eigenvalues --   -0.66840  -0.64186  -0.58750  -0.57076  -0.55216
  Beta  occ. eigenvalues --   -0.54077  -0.50649  -0.48497  -0.46979  -0.46440
  Beta  occ. eigenvalues --   -0.45922  -0.43221  -0.39601  -0.37599  -0.30778
  Beta virt. eigenvalues --   -0.06669  -0.02213   0.01048   0.02920   0.03090
  Beta virt. eigenvalues --    0.03690   0.05440   0.06220   0.07373   0.07602
  Beta virt. eigenvalues --    0.07735   0.08803   0.09500   0.09660   0.10776

 Mulliken charges and spin densities:
               1          2
     1  O   -0.608108  -0.009869
     2  H    0.489559   0.004438
     3  C   -0.170045   1.189269
     4  H    0.238240  -0.012260
     5  C    0.362159  -0.176704
     6  C    0.120504   0.041365
     7  O   -0.443618  -0.034679
     8  O   -0.370610  -0.004733
     9  C   -0.176081   0.003855
    10  C   -0.574383  -0.000845
    11  H    0.222015   0.000085
    12  H    0.241255  -0.000252
    13  H    0.211106   0.000188
    14  H    0.219342   0.000032
    15  H    0.238666   0.000112
 Sum of Mulliken charges =  -0.00000   1.00000

 Dipole moment (field-independent basis, Debye):
    X=             -3.2021    Y=             -0.6058    Z=             -0.3013  Tot=              3.2729
 Quadrupole moment (field-independent basis, Debye-Ang):
   XX=            -46.0290   YY=            -50.9531   ZZ=            -48.0488
   XY=              7.1185   XZ=              0.3737   YZ=              1.5565

  Exact polarizability:  84.673   9.824  68.421   3.940   1.068  47.271
 Approx polarizability:  82.796  11.514  87.429   5.699   1.304  50.113

                      1                      2                      3
                      A                      A                      A
 Frequencies --     71.0110                81.7164               116.6307
 Red. masses --      3.0255                 4.9819                 5.0855
 Frc consts  --      0.0090                 0.0196                 0.0408
 IR Inten    --      0.6497                 2.7489                 1.3338

                      4                      5                      6
                      A                      A                      A
 Frequencies --    188.4744               246.6145               328.0676
 Red. masses --      1.6431                 1.7030                 3.2997
 Frc consts  --      0.0344                 0.0610                 0.2092
 IR Inten    --      0.4573                 1.0661                14.2290

                      7                      8                      9
                      A                      A                      A
 Frequencies --    358.3066               412.8179               439.0616
 Red. masses --      3.4598                 1.8122                 1.8545
 Frc consts  --      0.2617                 0.1820                 0.2106
 IR Inten    --      8.5866                89.1900                53.3005

                     10                     11                     12
                      A                      A                      A
 Frequencies --    479.6988               520.0041               636.8276
 Red. masses --      4.6864                 5.3511                 4.1486
 Frc consts  --      0.6354                 0.8525                 0.9913
 IR Inten    --      6.1668                10.0169                 3.8425

                     13                     14                     15
                      A                      A                      A
 Frequencies --    720.2300               791.9515               803.1841
 Red. masses --      1.3852                 3.7781                 1.7763
 Frc consts  --      0.4234                 1.3961                 0.6751
 IR Inten    --    117.4598                 0.3964                12.4700

                     16                     17                     18
                      A                      A                      A
 Frequencies --    836.3071               869.5920               921.5352
 Red. masses --      1.7089                 2.1186                 2.8964
 Frc consts  --      0.7042                 0.9439                 1.4492
 IR Inten    --     55.7506                12.2969                 1.9332

                     19                     20                     21
                      A                      A                      A
 Frequencies --   1067.1113              1147.1890              1174.9303
 Red. masses --      3.6099                 1.9890                 5.2836
 Frc consts  --      2.4219                 1.5423                 4.2974
 IR Inten    --     14.3045                20.1508               166.7364

                     22                     23                     24
                      A                      A                      A
 Frequencies --   1223.1733              1281.3034              1314.1257
 Red. masses --      1.8457                 1.2573                 5.4716
 Frc consts  --      1.6270                 1.2162                 5.5672
 IR Inten    --     63.5771               234.8316               475.4380

                     25                     26                     27
                      A                      A                      A
 Frequencies --   1341.4188              1429.0684              1460.7194
 Red. masses --      1.1458                 1.3181                 1.2376
 Frc consts  --      1.2147                 1.5860                 1.5558
 IR Inten    --     39.4381                12.7806                20.7680

                     28                     29                     30
                      A                      A                      A
 Frequencies --   1528.7731              1532.5027              1544.3401
 Red. masses --      1.0468                 1.0865                 1.0531
 Frc consts  --      1.4415                 1.5035                 1.4798
 IR Inten    --     14.0412                11.0376                15.1987

                     31                     32                     33
                      A                      A                      A
 Frequencies --   1730.0423              1753.8157              3090.0142
 Red. masses --      6.9641                10.8349                 1.0354
 Frc consts  --     12.2809                19.6355                 5.8246
 IR Inten    --     76.9175               102.3766                11.7668

                     34                     35                     36
                      A                      A                      A
 Frequencies --   3128.3456              3169.0516              3176.5708
 Red. masses --      1.0608                 1.0983                 1.1026
 Frc consts  --      6.1167                 6.4988                 6.5551
 IR Inten    --     15.4164                18.9282                 1.5209

                     37                     38                     39
                      A                      A                      A
 Frequencies --   3203.3827              3354.9636              3693.0149
 Red. masses --      1.1070                 1.1021                 1.0651
 Frc consts  --      6.6932                 7.3090                 8.5588
 IR Inten    --     14.1193                17.9781               126.3936

 - Thermochemistry -
 -------------------
 Temperature   298.150 Kelvin.  Pressure   1.00000 Atm.
 Atom     1 has atomic number  8 and mass  15.99491

 Molecular mass:   115.03952 amu.
 Principal axes and moments of inertia in atomic units:
                           1         2         3
     Eigenvalues --   437.951691357.366481644.77944
           X            0.99983   0.01649  -0.00849
           Y           -0.01637   0.99977   0.01393
           Z            0.00872  -0.01379   0.99987
 This molecule is an asymmetric top.
 Rotational symmetry number  1.
 Warning -- assumption of classical behavior for rotation
           may cause significant error
 Rotational temperatures (Kelvin)      0.19777     0.06381     0.05266
 Rotational constants (GHZ):           4.12087     1.32959     1.09725
 Zero-point vibrational energy     306040.0 (Joules/Mol)
                                   73.14531 (Kcal/Mol)
 Warning -- explicit consideration of  11 degrees of freedom as
           vibrations may cause significant error
 Vibrational temperatures:    102.17   117.57   167.81   271.17   354.82
          (Kelvin)            472.02   515.52   593.95   631.71   690.18
                              748.17   916.25  1036.25  1139.44  1155.60
                             1203.26  1251.15  1325.88  1535.34  1650.55
                             1690.46  1759.87  1843.51  1890.73  1930.00
                             2056.11  2101.65  2199.56  2204.93  2221.96
                             2489.15  2523.35  4445.84  4500.99  4559.56
                             4570.38  4608.95  4827.04  5313.42

 Zero-point correction=                           0.116564 (Hartree/Particle)
 Thermal correction to Energy=                    0.125217
 Thermal correction to Enthalpy=                  0.126161
 Thermal correction to Gibbs Free Energy=         0.082264
 Sum of electronic and zero-point Energies=           -419.900056
 Sum of electronic and thermal Energies=              -419.891403
 Sum of electronic and thermal Enthalpies=            -419.890459
 Sum of electronic and thermal Free Energies=         -419.934356

                     E (Thermal)             CV                S
                      KCal/Mol        Cal/Mol-Kelvin    Cal/Mol-Kelvin
 Total                   78.575             30.454             92.388
 Electronic               0.000              0.000              1.377
 Translational            0.889              2.981             40.136
 Rotational               0.889              2.981             28.371
 Vibrational             76.797             24.492             22.504
 Vibration     1          0.598              1.968              4.125
 Vibration     2          0.600              1.962              3.849
 Vibration     3          0.608              1.936              3.155
 Vibration     4          0.633              1.856              2.243
 Vibration     5          0.661              1.768              1.755
 Vibration     6          0.711              1.619              1.270
 Vibration     7          0.733              1.558              1.129
 Vibration     8          0.777              1.442              0.917
 Vibration     9          0.799              1.385              0.830
 Vibration    10          0.836              1.295              0.711
 Vibration    11          0.875              1.206              0.610

 Optimization completed.
    -- Stationary point found.
 Normal termination of Gaussian 16 at Sun Jun  8 18:49:17 2025.
