 Gaussian 16, Revision A.03,
 Gaussian 16:  ES64L-G16RevA.03 25-Dec-2016

 --------------------------------------------------
 # opt=(calcfc,tight,noeigentest) freq 6-31+g m062x
 --------------------------------------------------

 -------------------
 Title Card Required
 -------------------
 Symbolic Z-matrix:
 Charge =  0 Multiplicity = 2

 SCF Done:  E(UM062X) =  -419.981289684     A.U. after   21 cycles
 SCF Done:  E(UM062X) =  -419.990829574     A.U. after   20 cycles
 SCF Done:  E(UM062X) =  -420.005643425     A.U. after   19 cycles
 SCF Done:  E(UM062X) =  -419.981358635     A.U. after   19 cycles
 SCF Done:  E(UM062X) =  -420.016774672     A.U. after   20 cycles
 SCF Done:  E(UM062X) =  -420.014150842     A.U. after   22 cycles
 SCF Done:  E(UM062X) =  -420.018509741     A.U. after   17 cycles
 SCF Done:  E(UM062X) =  -420.018458269     A.U. after   17 cycles
 SCF Done:  E(UM062X) =  -420.018484882     A.U. after   17 cycles
 SCF Done:  E(UM062X) =  -420.018595588     A.U. after   15 cycles
 SCF Done:  E(UM062X) =  -420.018601292     A.U. after   11 cycles
 SCF Done:  E(UM062X) =  -420.018601605     A.U. after   12 cycles
 SCF Done:  E(UM062X) =  -420.018601924     A.U. after   12 cycles
 SCF Done:  E(UM062X) =  -420.018602251     A.U. after   12 cycles
 SCF Done:  E(UM062X) =  -420.018602379     A.U. after   12 cycles
 SCF Done:  E(UM062X) =  -420.018602397     A.U. after   10 cycles
 SCF Done:  E(UM062X) =  -420.018602398     A.U. after    9 cycles
 SCF Done:  E(UM062X) =  -420.018602398     A.U. after    7 cycles
 SCF Done:  E(UM062X) =  -420.018602398     A.U. after    6 cycles
 Optimization completed.
    -- Stationary point found.
 Normal termination of Gaussian 16 at Sun Jun  8 18:53:30 2025.

 ------------------------------------------------------------------
 #N Geom=AllCheck Guess=TCheck SCRF=Check GenChk UM062X/6-31+G Freq
 ------------------------------------------------------------------

 Structure from the checkpoint file:  "ethyl_propiolate.chk"
 -------------------
 Title Card Required
 -------------------
 Charge =  0 Multiplicity = 2

                         Standard orientation:
 ---------------------------------------------------------------------
 Center     Atomic      Atomic             Coordinates (Angstroms)
 Number     Number       Type             X           Y           Z
 ---------------------------------------------------------------------
      1          8           0        3.663289   -0.357123    0.249440
      2          1           0        3.592746   -1.331479    0.231890
      3          6           0        2.456892    0.277911    0.101297
      4          1           0        2.569543    1.357228    0.124345
      5          6           0        1.283354   -0.322533   -0.053010
      6          6           0       -0.054930    0.195350   -0.220171
      7          8           0       -0.332576    1.400955   -0.258197
      8          8           0       -0.984452   -0.788289   -0.337903
      9          6           0       -2.387672   -0.379808   -0.500004
     10          6           0       -2.996009   -0.018948    0.843593
     11          1           0       -2.856774   -1.256607   -0.944333
     12          1           0       -2.423221    0.459705   -1.198135
     13          1           0       -4.059846    0.205845    0.721732
     14          1           0       -2.896691   -0.852731    1.543017
     15          1           0       -2.505664    0.861875    1.264542
 ---------------------------------------------------------------------

 SCF Done:  E(UM062X) =  -420.018602398     A.U. after    1 cycles

 The electronic state is 2-A.
 Alpha  occ. eigenvalues --  -19.70486 -19.69966 -19.65538 -10.71794 -10.65615
 Alpha  occ. eigenvalues --  -10.61550 -10.60431 -10.54573  -1.25163  -1.22039
 Alpha  occ. eigenvalues --   -1.16021  -0.91888  -0.87743  -0.78430  -0.73252
 Alpha  occ. eigenvalues --   -0.67139  -0.62683  -0.58873  -0.56990  -0.55435
 Alpha  occ. eigenvalues --   -0.53739  -0.50256  -0.48642  -0.47471  -0.46319
 Alpha  occ. eigenvalues --   -0.44550  -0.41890  -0.39270  -0.37718  -0.33549
 Alpha  occ. eigenvalues --   -0.33241
 Alpha virt. eigenvalues --   -0.02224   0.01760   0.02498   0.03653   0.04117
 Alpha virt. eigenvalues --    0.05161   0.05851   0.06463   0.07802   0.08175
 Alpha virt. eigenvalues --    0.09058   0.09528   0.10078   0.10561   0.11278

  Beta  occ. eigenvalues --  -19.70463 -19.69950 -19.65370 -10.71807 -10.65702
  Beta  occ. eigenvalues --  -10.61549 -10.59496 -10.54573  -1.24964  -1.21890
  Beta  occ. eigenvalues --   -1.15667  -0.90079  -0.87255  -0.78005  -0.72667
  Beta  occ. eigenvalues --   -0.66565  -0.62292  -0.57373  -0.56684  -0.55019
  Beta  occ. eigenvalues --   -0.53435  -0.50292  -0.48446  -0.46950  -0.46188
  Beta  occ. eigenvalues --   -0.44407  -0.41574  -0.37623  -0.36821  -0.31844
  Beta virt. eigenvalues --   -0.09063  -0.02144   0.02133   0.02500   0.03591
  Beta virt. eigenvalues --    0.03688   0.04822   0.05805   0.06408   0.07240
  Beta virt. eigenvalues --    0.07609   0.08866   0.09350   0.09647   0.10333

 Mulliken charges and spin densities:
               1          2
     1  O   -0.563800  -0.000404
     2  H    0.450861   0.008142
     3  C    0.186692  -0.217308
     4  H    0.262770   0.048690
     5  C   -0.108717   1.076341
     6  C    0.134133   0.021755
     7  O   -0.441776   0.050319
     8  O   -0.255256   0.012266
     9  C   -0.202341  -0.001505
    10  C   -0.575062   0.001559
    11  H    0.218276   0.000079
    12  H    0.235281   0.000146
    13  H    0.205199   0.000042
    14  H    0.217991  -0.000017
    15  H    0.235749  -0.000105
 Sum of Mulliken charges =  -0.00000   1.00000

 Dipole moment (field-independent basis, Debye):
    X=             -0.9875    Y=             -1.9655    Z=              0.0890  Tot=              2.2014
 Quadrupole moment (field-independent basis, Debye-Ang):
   XX=            -42.5852   YY=            -49.6541   ZZ=            -48.2133
   XY=             -2.5956   XZ=              0.3669   YZ=              0.2103

  Exact polarizability: 102.873   0.136  63.010   3.950  -0.218  47.579
 Approx polarizability: 100.680   1.228  80.814   6.217  -0.165  49.823

                      1                      2                      3
                      A                      A                      A
 Frequencies --     64.6118                82.7394               116.4456
 Red. masses --      4.6629                 2.9034                 2.9463
 Frc consts  --      0.0115                 0.0117                 0.0235
 IR Inten    --      1.7728                 1.3504                 1.3430

                      4                      5                      6
                      A                      A                      A
 Frequencies --    125.7037               209.1765               220.3427
 Red. masses --      2.5330                 4.4374                 1.3717
 Frc consts  --      0.0236                 0.1144                 0.0392
 IR Inten    --      1.5291                 0.7221                 2.1272

                      7                      8                      9
                      A                      A                      A
 Frequencies --    312.9962               361.5230               420.2887
 Red. masses --      2.7489                 5.1689                 4.8524
 Frc consts  --      0.1587                 0.3980                 0.5050
 IR Inten    --     12.8170                 3.2041                27.4072

                     10                     11                     12
                      A                      A                      A
 Frequencies --    485.1307               550.4194               734.6923
 Red. masses --      3.7328                 1.3047                 3.9745
 Frc consts  --      0.5176                 0.2329                 1.2640
 IR Inten    --     15.9509               181.5619                 2.6796

                     13                     14                     15
                      A                      A                      A
 Frequencies --    760.6455               836.8940               876.1791
 Red. masses --      9.9855                 1.3518                 2.9510
 Frc consts  --      3.4040                 0.5578                 1.3348
 IR Inten    --     41.4234                 7.1909                 2.3385

                     16                     17                     18
                      A                      A                      A
 Frequencies --    953.0416               973.5525              1060.1706
 Red. masses --      1.5295                 3.4274                 3.3079
 Frc consts  --      0.8185                 1.9140                 2.1905
 IR Inten    --      9.3936                23.0962                42.9937

                     19                     20                     21
                      A                      A                      A
 Frequencies --   1126.3650              1146.3799              1221.2353
 Red. masses --      4.1284                 1.9801                 1.7273
 Frc consts  --      3.0860                 1.5332                 1.5178
 IR Inten    --    634.4717                53.5326                28.7355

                     22                     23                     24
                      A                      A                      A
 Frequencies --   1257.6983              1326.0880              1344.0589
 Red. masses --      1.5645                 1.9842                 1.3163
 Frc consts  --      1.4580                 2.0558                 1.4011
 IR Inten    --     34.2533               122.9074                88.3515

                     25                     26                     27
                      A                      A                      A
 Frequencies --   1378.9161              1432.2592              1456.8166
 Red. masses --      1.4420                 1.4551                 1.2422
 Frc consts  --      1.6154                 1.7586                 1.5532
 IR Inten    --    104.2176                30.8461                21.0819

                     28                     29                     30
                      A                      A                      A
 Frequencies --   1528.0624              1532.0080              1546.0121
 Red. masses --      1.0500                 1.0944                 1.0532
 Frc consts  --      1.4445                 1.5133                 1.4832
 IR Inten    --     17.8644                10.5689                14.1059

                     31                     32                     33
                      A                      A                      A
 Frequencies --   1682.2889              1754.5036              3088.3457
 Red. masses --      9.7585                 9.0023                 1.0352
 Frc consts  --     16.2717                16.3273                 5.8172
 IR Inten    --    189.4692               514.1643                14.9065

                     34                     35                     36
                      A                      A                      A
 Frequencies --   3125.4625              3167.4690              3173.9074
 Red. masses --      1.0609                 1.0984                 1.1024
 Frc consts  --      6.1058                 6.4927                 6.5429
 IR Inten    --     17.5400                22.4411                 1.4532

                     37                     38                     39
                      A                      A                      A
 Frequencies --   3200.4613              3236.1234              3700.1382
 Red. masses --      1.1066                 1.0902                 1.0660
 Frc consts  --      6.6784                 6.7270                 8.5986
 IR Inten    --     17.4684                 1.7497                72.6948

 - Thermochemistry -
 -------------------
 Temperature   298.150 Kelvin.  Pressure   1.00000 Atm.
 Atom     1 has atomic number  8 and mass  15.99491

 Molecular mass:   115.03952 amu.
 Principal axes and moments of inertia in atomic units:
                           1         2         3
     Eigenvalues --   277.729192099.566232212.60962
           X            0.99997   0.00144  -0.00719
           Y           -0.00135   0.99992   0.01267
           Z            0.00721  -0.01266   0.99989
 This molecule is an asymmetric top.
 Rotational symmetry number  1.
 Rotational temperatures (Kelvin)      0.31186     0.04125     0.03915
 Rotational constants (GHZ):           6.49821     0.85958     0.81566
 Zero-point vibrational energy     308452.0 (Joules/Mol)
                                   73.72181 (Kcal/Mol)
 Warning -- explicit consideration of  11 degrees of freedom as
           vibrations may cause significant error
 Vibrational temperatures:     92.96   119.04   167.54   180.86   300.96
          (Kelvin)            317.02   450.33   520.15   604.70   697.99
                              791.93  1057.06  1094.40  1204.10  1260.63
                             1371.21  1400.72  1525.35  1620.59  1649.39
                             1757.09  1809.55  1907.94  1933.80  1983.95
                             2060.70  2096.03  2198.54  2204.22  2224.37
                             2420.44  2524.34  4443.44  4496.84  4557.28
                             4566.54  4604.75  4656.06  5323.67

 Zero-point correction=                           0.117483 (Hartree/Particle)
 Thermal correction to Energy=                    0.126383
 Thermal correction to Enthalpy=                  0.127327
 Thermal correction to Gibbs Free Energy=         0.082421
 Sum of electronic and zero-point Energies=           -419.901119
 Sum of electronic and thermal Energies=              -419.892220
 Sum of electronic and thermal Enthalpies=            -419.891276
 Sum of electronic and thermal Free Energies=         -419.936181

                     E (Thermal)             CV                S
                      KCal/Mol        Cal/Mol-Kelvin    Cal/Mol-Kelvin
 Total                   79.306             29.893             94.512
 Electronic               0.000              0.000              1.377
 Translational            0.889              2.981             40.136
 Rotational               0.889              2.981             28.647
 Vibrational             77.529             23.932             24.352
 Vibration     1          0.597              1.971              4.311
 Vibration     2          0.600              1.961              3.825
 Vibration     3          0.608              1.936              3.159
 Vibration     4          0.611              1.927              3.011
 Vibration     5          0.642              1.827              2.051
 Vibration     6          0.647              1.810              1.956
 Vibration     7          0.701              1.649              1.346
 Vibration     8          0.736              1.552              1.116
 Vibration     9          0.783              1.426              0.891
 Vibration    10          0.841              1.283              0.696
 Vibration    11          0.906              1.139              0.543

 Optimization completed.
    -- Stationary point found.
 Normal termination of Gaussian 16 at Sun Jun  8 18:54:02 2025.
