 Gaussian 16, Revision A.03,
 Gaussian 16:  ES64L-G16RevA.03 25-Dec-2016

 -----------------------
 # ccsd(t)/6-311++g** sp
 -----------------------

 -------------------
 Title Card Required
 -------------------
 Symbolic Z-matrix:
 Charge =  0 Multiplicity = 2

                         Standard orientation:
 ---------------------------------------------------------------------
 Center     Atomic      Atomic             Coordinates (Angstroms)
 Number     Number       Type             X           Y           Z
 ---------------------------------------------------------------------
      1          8           0        3.632162   -0.302450    0.261400
      2          1           0        3.534875   -1.261759    0.268426
      3          6           0        2.426663    0.267730    0.092644
      4          1           0        2.477524    1.354232    0.075137
      5          6           0        1.272976   -0.362669   -0.043041
      6          6           0       -0.070800    0.164669   -0.229256
      7          8           0       -0.317604    1.343659   -0.303367
      8          8           0       -0.985104   -0.806453   -0.312071
      9          6           0       -2.350725   -0.383686   -0.480442
     10          6           0       -2.956588    0.047558    0.841275
     11          1           0       -2.853926   -1.260445   -0.884903
     12          1           0       -2.381594    0.423220   -1.213542
     13          1           0       -4.011143    0.292424    0.699696
     14          1           0       -2.884167   -0.757834    1.573864
     15          1           0       -2.446353    0.930503    1.226545
 ---------------------------------------------------------------------

 SCF Done:  E(UHF) =  -418.049689935     A.U. after   28 cycles
 E2 =    -0.1261526203D+01 EUMP2 =    -0.41931121613873D+03
 CCSD(T)= -0.41941753730D+03

 The electronic state is 2-A.
 Alpha  occ. eigenvalues --  -20.61406 -20.60667 -20.55147 -11.39681 -11.32212
 Alpha  occ. eigenvalues --  -11.29322 -11.27487 -11.22334  -1.47429  -1.43240
 Alpha  occ. eigenvalues --   -1.37469  -1.09534  -1.03686  -0.91726  -0.85568
 Alpha  occ. eigenvalues --   -0.79042  -0.74791  -0.69979  -0.67796  -0.66184
 Alpha  occ. eigenvalues --   -0.63416  -0.59576  -0.59090  -0.57577  -0.54831
 Alpha  occ. eigenvalues --   -0.53677  -0.50709  -0.49459  -0.46849  -0.43177
 Alpha  occ. eigenvalues --   -0.40628
 Alpha virt. eigenvalues --    0.04222   0.04872   0.05912   0.06091   0.07041
 Alpha virt. eigenvalues --    0.08200   0.09215   0.10771   0.11614   0.12439
 Alpha virt. eigenvalues --    0.13272   0.13894   0.14746   0.15011   0.15940

  Beta  occ. eigenvalues --  -20.61603 -20.60658 -20.54540 -11.39912 -11.33288
  Beta  occ. eigenvalues --  -11.29329 -11.24011 -11.22332  -1.47072  -1.43767
  Beta  occ. eigenvalues --   -1.36411  -1.05635  -1.02796  -0.91691  -0.84231
  Beta  occ. eigenvalues --   -0.78446  -0.74312  -0.68380  -0.66714  -0.65495
  Beta  occ. eigenvalues --   -0.62591  -0.62073  -0.58377  -0.57213  -0.53937
  Beta  occ. eigenvalues --   -0.53401  -0.50048  -0.46084  -0.45402  -0.36942
  Beta virt. eigenvalues --    0.03116   0.04436   0.05922   0.06103   0.06916
  Beta virt. eigenvalues --    0.07976   0.08291   0.09064   0.10033   0.11850
  Beta virt. eigenvalues --    0.12823   0.13398   0.13975   0.14697   0.15493

 Mulliken charges and spin densities:
               1          2
     1  O   -0.241896  -0.006429
     2  H    0.292344   0.005645
     3  C   -0.308632  -0.518023
     4  H    0.221644   0.093437
     5  C    0.620642   1.404088
     6  C   -0.415516  -0.094247
     7  O   -0.351810   0.112825
     8  O   -0.099624   0.006080
     9  C   -0.142592  -0.008324
    10  C   -0.358543   0.003327
    11  H    0.159241   0.000646
    12  H    0.183100   0.000889
    13  H    0.126240  -0.000050
    14  H    0.142404   0.000033
    15  H    0.172998   0.000103
 Sum of Mulliken charges =  -0.00000   1.00000

 Dipole moment (field-independent basis, Debye):
    X=             -0.7217    Y=             -2.0445    Z=              0.1491  Tot=              2.1732
 Quadrupole moment (field-independent basis, Debye-Ang):
   XX=            -42.3454   YY=            -48.8004   ZZ=            -47.7003
   XY=             -2.2193   XZ=              0.5585   YZ=              0.2962

 -0=-419.3456535\MP4SDQ=-419.3633098\CCSD=-419.3652599\CCSD(T)=-419.417
 Normal termination of Gaussian 16 at Tue Jun 10 18:33:58 2025.
