 Gaussian 16, Revision A.03,
 Gaussian 16:  ES64L-G16RevA.03 25-Dec-2016

 ---------------------------------------------------------
 # opt=(calcfc,tight,noeigentest) freq 6-311++g(d,p) m062x
 ---------------------------------------------------------

 -------------------
 Title Card Required
 -------------------
 Symbolic Z-matrix:
 Charge =  0 Multiplicity = 2

 SCF Done:  E(UM062X) =  -420.271393088     A.U. after   19 cycles
 SCF Done:  E(UM062X) =  -420.275407859     A.U. after   16 cycles
 SCF Done:  E(UM062X) =  -420.275435249     A.U. after   13 cycles
 SCF Done:  E(UM062X) =  -420.275435940     A.U. after   12 cycles
 SCF Done:  E(UM062X) =  -420.275435961     A.U. after   10 cycles
 SCF Done:  E(UM062X) =  -420.275435961     A.U. after    5 cycles
 SCF Done:  E(UM062X) =  -420.275435961     A.U. after    3 cycles
 SCF Done:  E(UM062X) =  -420.275435962     A.U. after    5 cycles
 Optimization completed.
    -- Stationary point found.

 1\1\GINC-AJ\FOpt\UM062X\6-311++G(d,p)\C5H7O3(2)\AAYUSH\08-Jun-2025\0\\
 # opt=(calcfc,tight,noeigentest) freq 6-311++g(d,p) m062x\\Title Card
 Required\\0,2\O,3.6315253951,-0.3147302092,0.2518265883\H,3.5366274464
 ,-1.2736367174,0.2160379615\C,2.4247281217,0.2594324701,0.1076448241\H
 ,2.4728911206,1.3457577945,0.138588656\C,1.2727136929,-0.3671348078,-0
 .0569297504\C,-0.0722403333,0.1646655546,-0.2205752361\O,-0.3219328069
 ,1.3451754566,-0.2423028536\O,-0.9840601446,-0.8040506106,-0.347311826
 2\C,-2.3506119387,-0.3775659345,-0.4978057121\C,-2.9584869646,-0.00711

 Normal termination of Gaussian 16 at Sun Jun  8 23:58:42 2025.

 ----------------------------------------------------------------------
 #N Geom=AllCheck Guess=TCheck SCRF=Check GenChk UM062X/6-311++G(d,p) F
 req
 ----------------------------------------------------------------------

 Structure from the checkpoint file:  "ethyl_propiolate.chk"
 -------------------
 Title Card Required
 -------------------
 Charge =  0 Multiplicity = 2

                         Standard orientation:
 ---------------------------------------------------------------------
 Center     Atomic      Atomic             Coordinates (Angstroms)
 Number     Number       Type             X           Y           Z
 ---------------------------------------------------------------------
      1          8           0        3.632162   -0.302450    0.261400
      2          1           0        3.534875   -1.261759    0.268426
      3          6           0        2.426663    0.267730    0.092644
      4          1           0        2.477524    1.354232    0.075137
      5          6           0        1.272976   -0.362669   -0.043041
      6          6           0       -0.070800    0.164669   -0.229256
      7          8           0       -0.317604    1.343659   -0.303367
      8          8           0       -0.985104   -0.806453   -0.312071
      9          6           0       -2.350725   -0.383686   -0.480442
     10          6           0       -2.956588    0.047558    0.841275
     11          1           0       -2.853926   -1.260445   -0.884903
     12          1           0       -2.381594    0.423220   -1.213542
     13          1           0       -4.011143    0.292424    0.699696
     14          1           0       -2.884167   -0.757834    1.573864
     15          1           0       -2.446353    0.930503    1.226545
 ---------------------------------------------------------------------

 SCF Done:  E(UM062X) =  -420.275435962     A.U. after    1 cycles

 The electronic state is 2-A.
 Alpha  occ. eigenvalues --  -19.68316 -19.67414 -19.62063 -10.68943 -10.63473
 Alpha  occ. eigenvalues --  -10.60054 -10.57752 -10.53425  -1.24623  -1.21917
 Alpha  occ. eigenvalues --   -1.15308  -0.90655  -0.86963  -0.77718  -0.72660
 Alpha  occ. eigenvalues --   -0.66444  -0.62907  -0.58531  -0.57244  -0.55688
 Alpha  occ. eigenvalues --   -0.53305  -0.50678  -0.49150  -0.48156  -0.46024
 Alpha  occ. eigenvalues --   -0.44659  -0.41611  -0.39393  -0.37928  -0.33079
 Alpha  occ. eigenvalues --   -0.32560
 Alpha virt. eigenvalues --   -0.00862  -0.00043   0.00490   0.01826   0.01954
 Alpha virt. eigenvalues --    0.02936   0.03915   0.05502   0.06343   0.07221
 Alpha virt. eigenvalues --    0.07682   0.08224   0.08897   0.09329   0.09958

  Beta  occ. eigenvalues --  -19.68303 -19.67401 -19.61906 -10.68939 -10.63538
  Beta  occ. eigenvalues --  -10.60053 -10.56860 -10.53425  -1.24456  -1.21777
  Beta  occ. eigenvalues --   -1.14930  -0.89148  -0.86214  -0.77398  -0.71965
  Beta  occ. eigenvalues --   -0.66000  -0.62512  -0.57492  -0.56618  -0.55330
  Beta  occ. eigenvalues --   -0.52873  -0.50840  -0.48642  -0.47728  -0.45864
  Beta  occ. eigenvalues --   -0.44529  -0.41394  -0.37886  -0.36776  -0.31315
  Beta virt. eigenvalues --   -0.08567  -0.00694   0.00232   0.01240   0.01792
  Beta virt. eigenvalues --    0.01936   0.03000   0.03738   0.05495   0.06126
  Beta virt. eigenvalues --    0.06828   0.07585   0.08194   0.08635   0.09167

 Mulliken charges and spin densities:
               1          2
     1  O   -0.183064  -0.007249
     2  H    0.286269   0.007546
     3  C   -0.377798  -0.051743
     4  H    0.202387   0.046181
     5  C    0.550803   0.885241
     6  C   -0.429541   0.066463
     7  O   -0.274781   0.051578
     8  O   -0.005445   0.005624
     9  C   -0.258407  -0.007721
    10  C   -0.401550   0.002515
    11  H    0.189262   0.000051
    12  H    0.197718   0.001326
    13  H    0.157806   0.000059
    14  H    0.164230   0.000050
    15  H    0.182112   0.000079
 Sum of Mulliken charges =   0.00000   1.00000

 Dipole moment (field-independent basis, Debye):
    X=             -0.6243    Y=             -1.7919    Z=              0.1804  Tot=              1.9061
 Quadrupole moment (field-independent basis, Debye-Ang):
   XX=            -41.0018   YY=            -48.5591   ZZ=            -47.8770
   XY=             -2.1477   XZ=              0.5898   YZ=              0.2384

  Exact polarizability: 102.507   0.482  63.651   3.094  -0.256  51.202
 Approx polarizability: 101.184   2.016  83.129   5.115  -0.707  59.340

                      1                      2                      3
                      A                      A                      A
 Frequencies --     59.5074                94.1156               122.3832
 Red. masses --      4.8354                 3.2036                 2.8290
 Frc consts  --      0.0101                 0.0167                 0.0250
 IR Inten    --      1.6456                 1.4759                 0.9165

                      4                      5                      6
                      A                      A                      A
 Frequencies --    136.6368               197.6266               225.1588
 Red. masses --      2.5642                 5.3956                 1.2227
 Frc consts  --      0.0282                 0.1242                 0.0365
 IR Inten    --      0.7946                 0.4202                 1.4984

                      7                      8                      9
                      A                      A                      A
 Frequencies --    331.5715               363.8925               425.2529
 Red. masses --      2.8579                 5.0214                 4.9402
 Frc consts  --      0.1851                 0.3918                 0.5264
 IR Inten    --      9.7209                 2.0889                24.0543

                     10                     11                     12
                      A                      A                      A
 Frequencies --    486.7078               535.4343               747.3166
 Red. masses --      3.6037                 1.3240                 3.0142
 Frc consts  --      0.5030                 0.2236                 0.9918
 IR Inten    --     15.5980               127.0274                 3.5283

                     13                     14                     15
                      A                      A                      A
 Frequencies --    771.1181               818.5213               896.3415
 Red. masses --     10.8746                 1.3664                 2.6023
 Frc consts  --      3.8098                 0.5394                 1.2318
 IR Inten    --     30.8536                 6.8087                 2.6870

                     16                     17                     18
                      A                      A                      A
 Frequencies --    918.9788               982.6252              1073.6825
 Red. masses --      1.5078                 3.6483                 3.9713
 Frc consts  --      0.7503                 2.0755                 2.6973
 IR Inten    --      7.2539                22.2271                 9.7858

                     19                     20                     21
                      A                      A                      A
 Frequencies --   1127.5025              1171.0794              1207.0028
 Red. masses --      2.0853                 3.0601                 1.8466
 Frc consts  --      1.5619                 2.4726                 1.5851
 IR Inten    --      5.1334               712.5287                80.0922

                     22                     23                     24
                      A                      A                      A
 Frequencies --   1250.5322              1329.3177              1349.8431
 Red. masses --      1.5665                 1.9057                 1.3206
 Frc consts  --      1.4433                 1.9841                 1.4177
 IR Inten    --     81.0587                71.9869                91.0243

                     25                     26                     27
                      A                      A                      A
 Frequencies --   1377.7984              1404.0458              1433.6848
 Red. masses --      1.4309                 1.4048                 1.4735
 Frc consts  --      1.6004                 1.6316                 1.7845
 IR Inten    --     78.7645                64.2053                18.3347

                     28                     29                     30
                      A                      A                      A
 Frequencies --   1491.7941              1502.5496              1514.8078
 Red. masses --      1.0412                 1.0692                 1.0834
 Frc consts  --      1.3652                 1.4223                 1.4647
 IR Inten    --     10.1162                 4.8940                17.7372

                     31                     32                     33
                      A                      A                      A
 Frequencies --   1736.8296              1798.6050              3074.1963
 Red. masses --      7.7046                11.9018                 1.0354
 Frc consts  --     13.6936                22.6848                 5.7653
 IR Inten    --    501.6999               291.0029                12.1708

                     34                     35                     36
                      A                      A                      A
 Frequencies --   3105.1094              3147.8359              3152.9962
 Red. masses --      1.0602                 1.1023                 1.1045
 Frc consts  --      6.0227                 6.4353                 6.4694
 IR Inten    --     21.1185                13.7918                 5.6286

                     37                     38                     39
                      A                      A                      A
 Frequencies --   3172.3610              3173.3087              3853.4860
 Red. masses --      1.1066                 1.0887                 1.0657
 Frc consts  --      6.5616                 6.4593                 9.3238
 IR Inten    --     17.7150                 1.5150                80.5857

 - Thermochemistry -
 -------------------
 Temperature   298.150 Kelvin.  Pressure   1.00000 Atm.
 Atom     1 has atomic number  8 and mass  15.99491

 Molecular mass:   115.03952 amu.
 Principal axes and moments of inertia in atomic units:
                           1         2         3
     Eigenvalues --   267.889562054.078982158.15819
           X            0.99997   0.00061  -0.00733
           Y           -0.00048   0.99985   0.01739
           Z            0.00734  -0.01739   0.99982
 This molecule is an asymmetric top.
 Rotational symmetry number  1.
 Rotational temperatures (Kelvin)      0.32332     0.04217     0.04013
 Rotational constants (GHZ):           6.73689     0.87861     0.83624
 Zero-point vibrational energy     308406.6 (Joules/Mol)
                                   73.71095 (Kcal/Mol)
 Warning -- explicit consideration of  11 degrees of freedom as
           vibrations may cause significant error
 Vibrational temperatures:     85.62   135.41   176.08   196.59   284.34
          (Kelvin)            323.95   477.06   523.56   611.84   700.26
                              770.37  1075.22  1109.47  1177.67  1289.64
                             1322.21  1413.78  1544.79  1622.22  1684.92
                             1736.61  1799.24  1912.59  1942.12  1982.34
                             2020.11  2062.75  2146.36  2161.83  2179.47
                             2498.91  2587.79  4423.08  4467.56  4529.03
                             4536.46  4564.32  4565.68  5544.31

 Zero-point correction=                           0.117466 (Hartree/Particle)
 Thermal correction to Energy=                    0.126310
 Thermal correction to Enthalpy=                  0.127255
 Thermal correction to Gibbs Free Energy=         0.082570
 Sum of electronic and zero-point Energies=           -420.157970
 Sum of electronic and thermal Energies=              -420.149126
 Sum of electronic and thermal Enthalpies=            -420.148181
 Sum of electronic and thermal Free Energies=         -420.192866

                     E (Thermal)             CV                S
                      KCal/Mol        Cal/Mol-Kelvin    Cal/Mol-Kelvin
 Total                   79.261             29.858             94.046
 Electronic               0.000              0.000              1.377
 Translational            0.889              2.981             40.136
 Rotational               0.889              2.981             28.564
 Vibrational             77.484             23.896             23.969
 Vibration     1          0.597              1.974              4.473
 Vibration     2          0.603              1.953              3.573
 Vibration     3          0.610              1.930              3.062
 Vibration     4          0.614              1.917              2.850
 Vibration     5          0.637              1.843              2.155
 Vibration     6          0.650              1.803              1.917
 Vibration     7          0.714              1.612              1.252
 Vibration     8          0.737              1.547              1.105
 Vibration     9          0.787              1.415              0.874
 Vibration    10          0.843              1.280              0.692
 Vibration    11          0.890              1.172              0.575

                           ! Non-Optimized Parameters !

 1\1\GINC-AJ\Freq\UM062X\6-311++G(d,p)\C5H7O3(2)\AAYUSH\09-Jun-2025\0\\
 #N Geom=AllCheck Guess=TCheck SCRF=Check GenChk UM062X/6-311++G(d,p) F
 req\\Title Card Required\\0,2\O,3.6315253951,-0.3147302092,0.251826588
 3\H,3.5366274464,-1.2736367174,0.2160379615\C,2.4247281217,0.259432470
 1,0.1076448241\H,2.4728911206,1.3457577945,0.138588656\C,1.2727136929,
 -0.3671348078,-0.0569297504\C,-0.0722403333,0.1646655546,-0.2205752361
 \O,-0.3219328069,1.3451754566,-0.2423028536\O,-0.9840601446,-0.8040506
 106,-0.3473118262\C,-2.3506119387,-0.3775659345,-0.4978057121\C,-2.958

 Normal termination of Gaussian 16 at Mon Jun  9 00:00:34 2025.
