 Gaussian 16, Revision A.03,
 Gaussian 16:  ES64L-G16RevA.03 25-Dec-2016

 ---------------------------------------------------------
 # opt=(calcfc,tight,noeigentest) freq 6-311++g(d,p) m062x
 ---------------------------------------------------------

 -------------------
 Title Card Required
 -------------------
 Symbolic Z-matrix:
 Charge =  0 Multiplicity = 2

 SCF Done:  E(UM062X) =  -420.266989475     A.U. after   18 cycles
 SCF Done:  E(UM062X) =  -420.270654332     A.U. after   14 cycles
 SCF Done:  E(UM062X) =  -420.270677802     A.U. after   13 cycles
 SCF Done:  E(UM062X) =  -420.270678262     A.U. after   12 cycles
 SCF Done:  E(UM062X) =  -420.270678274     A.U. after    7 cycles
 Optimization completed.
    -- Stationary point found.

 1\1\GINC-AJ\FOpt\UM062X\6-311++G(d,p)\C5H7O3(2)\AAYUSH\09-Jun-2025\0\\
 # opt=(calcfc,tight,noeigentest) freq 6-311++g(d,p) m062x\\Title Card
 Required\\0,2\C,2.6345173426,0.7403134105,0.2603828801\H,2.6898054209,
 1.8144834971,0.2639025688\C,1.6584463833,-0.1270980537,0.0894831065\C,
 0.2669937888,0.3853357573,-0.1651210591\O,-0.0475230655,1.5398864908,-
 0.2293659895\O,-0.5852800224,-0.6436873902,-0.3184396051\C,-1.96976436
 8,-0.3093564628,-0.5516633253\C,-2.6680703247,0.0396052463,0.747007704
 2\H,-2.3890188704,-1.2031872938,-1.0103965092\H,-2.006917921,0.5171645

 Normal termination of Gaussian 16 at Mon Jun  9 00:08:40 2025.

 ----------------------------------------------------------------------
 #N Geom=AllCheck Guess=TCheck SCRF=Check GenChk UM062X/6-311++G(d,p) F
 req
 ----------------------------------------------------------------------

 Structure from the checkpoint file:  "ethyl_propiolate_non_planar.chk"
 -------------------
 Title Card Required
 -------------------
 Charge =  0 Multiplicity = 2

                         Standard orientation:
 ---------------------------------------------------------------------
 Center     Atomic      Atomic             Coordinates (Angstroms)
 Number     Number       Type             X           Y           Z
 ---------------------------------------------------------------------
      1          6           0        2.629954    0.774216    0.252431
      2          1           0        2.676445    1.848790    0.246236
      3          6           0        1.661071   -0.102673    0.089165
      4          6           0        0.265548    0.396022   -0.170395
      5          8           0       -0.058391    1.547329   -0.245166
      6          8           0       -0.578225   -0.641293   -0.314588
      7          6           0       -1.965328   -0.320437   -0.551154
      8          6           0       -2.666868    0.034537    0.744140
      9          1           0       -2.377109   -1.221788   -1.001872
     10          1           0       -2.009029    0.499290   -1.268647
     11          1           0       -3.725878    0.213111    0.548340
     12          1           0       -2.581580   -0.782450    1.462232
     13          1           0       -2.239462    0.939506    1.176082
     14          8           0        1.850246   -1.444934    0.142543
     15          1           0        1.001314   -1.875273   -0.009799
 ---------------------------------------------------------------------

 SCF Done:  E(UM062X) =  -420.270678274     A.U. after    1 cycles

 The electronic state is 2-A.
 Alpha  occ. eigenvalues --  -19.69382 -19.65976 -19.63257 -10.69891 -10.62507
 Alpha  occ. eigenvalues --  -10.61540 -10.57610 -10.54522  -1.26412  -1.19625
 Alpha  occ. eigenvalues --   -1.16724  -0.90439  -0.88029  -0.78355  -0.69823
 Alpha  occ. eigenvalues --   -0.67584  -0.64924  -0.59241  -0.57309  -0.55330
 Alpha  occ. eigenvalues --   -0.54356  -0.50622  -0.49055  -0.48572  -0.46466
 Alpha  occ. eigenvalues --   -0.46150  -0.42906  -0.39592  -0.37789  -0.33100
 Alpha  occ. eigenvalues --   -0.32414
 Alpha virt. eigenvalues --   -0.01865  -0.00746   0.01095   0.01353   0.01632
 Alpha virt. eigenvalues --    0.03401   0.04340   0.05071   0.06257   0.06597
 Alpha virt. eigenvalues --    0.07395   0.08422   0.09212   0.09588   0.10640

  Beta  occ. eigenvalues --  -19.69364 -19.65984 -19.63303 -10.69797 -10.62611
  Beta  occ. eigenvalues --  -10.61535 -10.56609 -10.54523  -1.26360  -1.19584
  Beta  occ. eigenvalues --   -1.16770  -0.90001  -0.86576  -0.77771  -0.68524
  Beta  occ. eigenvalues --   -0.66873  -0.64301  -0.59131  -0.57281  -0.54842
  Beta  occ. eigenvalues --   -0.53404  -0.50687  -0.49008  -0.48361  -0.46652
  Beta  occ. eigenvalues --   -0.46087  -0.42891  -0.39735  -0.37484  -0.30483
  Beta virt. eigenvalues --   -0.06719  -0.01067  -0.00557   0.01219   0.01414
  Beta virt. eigenvalues --    0.01803   0.03514   0.04529   0.05123   0.06291
  Beta virt. eigenvalues --    0.06660   0.07739   0.08146   0.09179   0.10012

 Mulliken charges and spin densities:
               1          2
     1  C   -0.241393   1.100467
     2  H    0.196545  -0.004519
     3  C    0.209062  -0.099149
     4  C   -0.118940   0.046157
     5  O   -0.284675  -0.024040
     6  O   -0.079946  -0.003551
     7  C   -0.271450   0.004955
     8  C   -0.404160  -0.000410
     9  H    0.189479   0.000474
    10  H    0.202946  -0.000084
    11  H    0.165268   0.000080
    12  H    0.163260   0.000032
    13  H    0.186988  -0.000024
    14  O   -0.228728  -0.020898
    15  H    0.315743   0.000510
 Sum of Mulliken charges =  -0.00000   1.00000

 Dipole moment (field-independent basis, Debye):
    X=             -2.9606    Y=             -0.9276    Z=             -0.2789  Tot=              3.1151
 Quadrupole moment (field-independent basis, Debye-Ang):
   XX=            -46.2749   YY=            -49.2522   ZZ=            -47.7110
   XY=              5.5816   XZ=              0.2699   YZ=              1.3151

  Exact polarizability:  85.881   9.105  69.084   3.049   1.193  50.709
 Approx polarizability:  85.789  10.476  88.924   4.510   1.292  59.414

                      1                      2                      3
                      A                      A                      A
 Frequencies --     68.5261                80.4980               121.1418
 Red. masses --      3.8180                 4.4595                 4.2885
 Frc consts  --      0.0106                 0.0170                 0.0371
 IR Inten    --      1.0093                 1.0921                 0.6613

                      4                      5                      6
                      A                      A                      A
 Frequencies --    194.6445               251.9670               339.2597
 Red. masses --      1.5889                 1.7691                 2.1037
 Frc consts  --      0.0355                 0.0662                 0.1427
 IR Inten    --      0.2823                 1.1133                25.6798

                      7                      8                      9
                      A                      A                      A
 Frequencies --    347.7224               358.3886               434.1774
 Red. masses --      1.4433                 3.2688                 3.8415
 Frc consts  --      0.1028                 0.2474                 0.4267
 IR Inten    --     71.0248                12.4767                 3.2457

                     10                     11                     12
                      A                      A                      A
 Frequencies --    484.9724               521.0910               635.3349
 Red. masses --      5.2558                 5.6419                 3.7834
 Frc consts  --      0.7283                 0.9026                 0.8998
 IR Inten    --      5.7056                 8.2552                 2.4416

                     13                     14                     15
                      A                      A                      A
 Frequencies --    690.0529               789.9349               796.8080
 Red. masses --      1.1411                 3.5298                 1.6431
 Frc consts  --      0.3202                 1.2977                 0.6146
 IR Inten    --     83.1838                 8.9539                 5.8530

                     16                     17                     18
                      A                      A                      A
 Frequencies --    831.3778               888.0531               917.3164
 Red. masses --      1.6929                 3.7169                 2.4430
 Frc consts  --      0.6894                 1.7271                 1.2112
 IR Inten    --     47.7466                25.6393                 0.9580

                     19                     20                     21
                      A                      A                      A
 Frequencies --   1071.5064              1127.6551              1181.6292
 Red. masses --      4.0121                 2.0693                 3.1399
 Frc consts  --      2.7140                 1.5503                 2.5830
 IR Inten    --     14.7649                16.1432               121.8329

                     22                     23                     24
                      A                      A                      A
 Frequencies --   1212.2464              1287.6811              1343.6923
 Red. masses --      2.3278                 2.0931                 1.1784
 Frc consts  --      2.0155                 2.0449                 1.2535
 IR Inten    --    107.2140               400.6319                15.2100

                     25                     26                     27
                      A                      A                      A
 Frequencies --   1356.3638              1402.6175              1432.7208
 Red. masses --      2.0299                 1.2647                 1.3652
 Frc consts  --      2.2002                 1.4660                 1.6510
 IR Inten    --    384.6786                20.5102                 9.9372

                     28                     29                     30
                      A                      A                      A
 Frequencies --   1492.0136              1502.1551              1513.8177
 Red. masses --      1.0411                 1.0668                 1.0777
 Frc consts  --      1.3655                 1.4183                 1.4551
 IR Inten    --      8.3006                 3.9858                16.1306

                     31                     32                     33
                      A                      A                      A
 Frequencies --   1721.4588              1854.6373              3075.7819
 Red. masses --      6.8960                12.1748                 1.0355
 Frc consts  --     12.0403                24.6735                 5.7717
 IR Inten    --     51.5534               188.9930                 9.4952

                     34                     35                     36
                      A                      A                      A
 Frequencies --   3109.9362              3150.0811              3156.2723
 Red. masses --      1.0600                 1.1022                 1.1046
 Frc consts  --      6.0401                 6.4440                 6.4836
 IR Inten    --     18.6983                12.5487                 3.4517

                     37                     38                     39
                      A                      A                      A
 Frequencies --   3175.9055              3321.1159              3860.9687
 Red. masses --      1.1077                 1.1012                 1.0655
 Frc consts  --      6.5829                 7.1561                 9.3579
 IR Inten    --     13.6011                20.4171               165.1890

 - Thermochemistry -
 -------------------
 Temperature   298.150 Kelvin.  Pressure   1.00000 Atm.
 Atom     1 has atomic number  6 and mass  12.00000

 Molecular mass:   115.03952 amu.
 Principal axes and moments of inertia in atomic units:
                           1         2         3
     Eigenvalues --   427.895861331.252341610.14851
           X            0.99983   0.01629  -0.00870
           Y           -0.01617   0.99977   0.01397
           Z            0.00893  -0.01383   0.99986
 This molecule is an asymmetric top.
 Rotational symmetry number  1.
 Rotational temperatures (Kelvin)      0.20242     0.06506     0.05379
 Rotational constants (GHZ):           4.21771     1.35567     1.12085
 Zero-point vibrational energy     305655.0 (Joules/Mol)
                                   73.05330 (Kcal/Mol)
 Warning -- explicit consideration of  11 degrees of freedom as
           vibrations may cause significant error
 Vibrational temperatures:     98.59   115.82   174.30   280.05   362.52
          (Kelvin)            488.12   500.29   515.64   624.68   697.77
                              749.73   914.11   992.83  1136.54  1146.43
                             1196.17  1277.71  1319.81  1541.66  1622.44
                             1700.10  1744.15  1852.69  1933.27  1951.51
                             2018.05  2061.37  2146.67  2161.27  2178.05
                             2476.80  2668.41  4425.36  4474.50  4532.26
                             4541.17  4569.42  4778.35  5555.07

 Zero-point correction=                           0.116418 (Hartree/Particle)
 Thermal correction to Energy=                    0.125120
 Thermal correction to Enthalpy=                  0.126064
 Thermal correction to Gibbs Free Energy=         0.082114
 Sum of electronic and zero-point Energies=           -420.154260
 Sum of electronic and thermal Energies=              -420.145558
 Sum of electronic and thermal Enthalpies=            -420.144614
 Sum of electronic and thermal Free Energies=         -420.188564

                     E (Thermal)             CV                S
                      KCal/Mol        Cal/Mol-Kelvin    Cal/Mol-Kelvin
 Total                   78.514             30.631             92.502
 Electronic               0.000              0.000              1.377
 Translational            0.889              2.981             40.136
 Rotational               0.889              2.981             28.308
 Vibrational             76.737             24.670             22.681
 Vibration     1          0.598              1.969              4.195
 Vibration     2          0.600              1.962              3.879
 Vibration     3          0.609              1.932              3.082
 Vibration     4          0.635              1.847              2.183
 Vibration     5          0.664              1.759              1.717
 Vibration     6          0.719              1.597              1.216
 Vibration     7          0.725              1.580              1.176
 Vibration     8          0.733              1.558              1.129
 Vibration     9          0.795              1.396              0.845
 Vibration    10          0.841              1.283              0.697
 Vibration    11          0.876              1.203              0.607

 Optimization completed.
    -- Stationary point found.

 1\1\GINC-AJ\Freq\UM062X\6-311++G(d,p)\C5H7O3(2)\AAYUSH\09-Jun-2025\0\\
 #N Geom=AllCheck Guess=TCheck SCRF=Check GenChk UM062X/6-311++G(d,p) F
 req\\Title Card Required\\0,2\C,2.6345173426,0.7403134105,0.2603828801
 \H,2.6898054209,1.8144834971,0.2639025688\C,1.6584463833,-0.1270980537
 ,0.0894831065\C,0.2669937888,0.3853357573,-0.1651210591\O,-0.047523065
 5,1.5398864908,-0.2293659895\O,-0.5852800224,-0.6436873902,-0.31843960
 51\C,-1.969764368,-0.3093564628,-0.5516633253\C,-2.6680703247,0.039605
 2463,0.7470077042\H,-2.3890188704,-1.2031872938,-1.0103965092\H,-2.006

 Normal termination of Gaussian 16 at Mon Jun  9 00:10:40 2025.
