 Gaussian 16, Revision A.03,
 Gaussian 16:  ES64L-G16RevA.03 25-Dec-2016

 --------------------------
 # freq 6-311++g(d,p) m062x
 --------------------------

 -------------------
 Title Card Required
 -------------------
 Symbolic Z-matrix:
 Charge =  0 Multiplicity = 2

                         Standard orientation:
 ---------------------------------------------------------------------
 Center     Atomic      Atomic             Coordinates (Angstroms)
 Number     Number       Type             X           Y           Z
 ---------------------------------------------------------------------
      1          6           0        2.514814    1.235657   -0.678243
      2          1           0        3.143007    2.034326   -0.998678
      3          6           0        1.814501    0.331829   -0.317581
      4          6           0        1.034697   -0.815533    0.143280
      5          8           0        1.539176   -1.844103    0.467900
      6          8           0       -0.303285   -0.651158    0.187860
      7          6           0       -0.909554    0.572228   -0.189816
      8          6           0       -1.060922    1.526016    0.961668
      9          1           0       -0.465754    0.983487   -1.097170
     10          1           0       -2.123788    0.144934   -0.552054
     11          1           0       -1.576523    1.039033    1.790233
     12          1           0       -0.073419    1.855290    1.303834
     13          1           0       -1.631972    2.402731    0.654277
     14          8           0       -3.099714   -0.528414   -0.683626
     15          1           0       -2.722171   -1.371584   -0.393365
 ---------------------------------------------------------------------

 SCF Done:  E(UM062X) =  -420.196904838     A.U. after   20 cycles

 The electronic state is 2-A.
 Alpha  occ. eigenvalues --  -19.70559 -19.64699 -19.63538 -10.72624 -10.64755
 Alpha  occ. eigenvalues --  -10.59367 -10.58880 -10.56342  -1.27386  -1.18945
 Alpha  occ. eigenvalues --   -1.11570  -0.91073  -0.90391  -0.79431  -0.75412
 Alpha  occ. eigenvalues --   -0.66583  -0.63252  -0.61376  -0.58896  -0.56859
 Alpha  occ. eigenvalues --   -0.52869  -0.51785  -0.49763  -0.49082  -0.46517
 Alpha  occ. eigenvalues --   -0.41586  -0.41406  -0.39734  -0.39112  -0.38300
 Alpha  occ. eigenvalues --   -0.32780
 Alpha virt. eigenvalues --   -0.03688  -0.01187   0.00471   0.01108   0.01340
 Alpha virt. eigenvalues --    0.02600   0.03254   0.04328   0.05174   0.05933
 Alpha virt. eigenvalues --    0.06485   0.07307   0.08270   0.09020   0.09767

  Beta  occ. eigenvalues --  -19.70521 -19.64688 -19.62672 -10.72591 -10.64115
  Beta  occ. eigenvalues --  -10.59360 -10.58880 -10.56352  -1.27172  -1.18753
  Beta  occ. eigenvalues --   -1.08315  -0.90921  -0.89170  -0.78838  -0.74861
  Beta  occ. eigenvalues --   -0.65654  -0.63105  -0.59028  -0.58394  -0.55189
  Beta  occ. eigenvalues --   -0.51631  -0.51177  -0.48902  -0.47493  -0.43911
  Beta  occ. eigenvalues --   -0.41368  -0.40544  -0.39011  -0.38120  -0.37866
  Beta virt. eigenvalues --   -0.10646  -0.03564  -0.01153   0.00561   0.01173
  Beta virt. eigenvalues --    0.01499   0.02668   0.03337   0.04505   0.05243
  Beta virt. eigenvalues --    0.06038   0.06614   0.07379   0.08391   0.09049

 Mulliken charges and spin densities:
               1          2
     1  C   -1.286659   0.021774
     2  H    0.206242   0.000111
     3  C    1.511282  -0.020411
     4  C   -0.206508   0.012445
     5  O   -0.230208   0.006287
     6  O   -0.045759  -0.016572
     7  C   -0.508591   0.619421
     8  C   -0.371110  -0.023872
     9  H    0.213557  -0.012171
    10  H    0.349282  -0.052612
    11  H    0.215721   0.007160
    12  H    0.151241   0.036936
    13  H    0.178281   0.001485
    14  O   -0.435626   0.425490
    15  H    0.258853  -0.005474
 Sum of Mulliken charges =  -0.00000   1.00000

 Dipole moment (field-independent basis, Debye):
    X=              2.0506    Y=              4.2761    Z=             -0.2262  Tot=              4.7477
 Quadrupole moment (field-independent basis, Debye-Ang):
   XX=            -56.3520   YY=            -45.9110   ZZ=            -47.9150
   XY=              7.8580   XZ=             -6.6800   YZ=              0.1848

  Exact polarizability:  95.372  12.378  80.028   1.210  -3.663  54.255
 Approx polarizability:  97.097  14.623  99.238   0.199 -10.681  63.703

 ******    1 imaginary frequencies (negative Signs) ******

                      1                      2                      3
                      A                      A                      A
 Frequencies --  -1680.6178                54.7381                71.7948
 Red. masses --      1.0799                 5.0538                 5.3940
 Frc consts  --      1.7972                 0.0089                 0.0164
 IR Inten    --    640.5103                 0.3667                 1.6455

                      4                      5                      6
                      A                      A                      A
 Frequencies --    129.4171               151.5032               187.8611
 Red. masses --      4.3361                 4.7872                 1.5195
 Frc consts  --      0.0428                 0.0647                 0.0316
 IR Inten    --      0.9676                 5.6966                 0.6477

                      7                      8                      9
                      A                      A                      A
 Frequencies --    201.0292               242.4447               257.0747
 Red. masses --      1.7217                 1.1816                 3.8440
 Frc consts  --      0.0410                 0.0409                 0.1497
 IR Inten    --      1.6949                94.5597                 5.0644

                     10                     11                     12
                      A                      A                      A
 Frequencies --    305.1579               414.1985               527.3094
 Red. masses --      5.2762                 3.4115                 6.1033
 Frc consts  --      0.2895                 0.3448                 0.9999
 IR Inten    --      1.5998                11.3109                 2.0758

                     13                     14                     15
                      A                      A                      A
 Frequencies --    595.6639               651.7434               738.7565
 Red. masses --      3.9140                 3.8506                 1.3130
 Frc consts  --      0.8182                 0.9637                 0.4222
 IR Inten    --     14.2524                 1.5453                37.2467

                     16                     17                     18
                      A                      A                      A
 Frequencies --    752.4402               757.0404               778.4206
 Red. masses --      2.9819                11.9582                 1.2847
 Frc consts  --      0.9947                 4.0379                 0.4586
 IR Inten    --     23.6315                23.6007                37.9147

                     19                     20                     21
                      A                      A                      A
 Frequencies --    824.3168               845.6949               966.1729
 Red. masses --      1.2335                 1.2366                 2.4651
 Frc consts  --      0.4938                 0.5211                 1.3558
 IR Inten    --     45.3039                87.3394                19.1771

                     22                     23                     24
                      A                      A                      A
 Frequencies --   1089.0603              1122.7279              1141.8438
 Red. masses --      1.3343                 2.4667                 3.2518
 Frc consts  --      0.9324                 1.8320                 2.4979
 IR Inten    --     65.7910                13.8211               120.5489

                     25                     26                     27
                      A                      A                      A
 Frequencies --   1191.5804              1240.6908              1369.3471
 Red. masses --      1.3908                 8.5785                 1.2070
 Frc consts  --      1.1635                 7.7801                 1.3335
 IR Inten    --     17.5304               678.1985                 5.7805

                     28                     29                     30
                      A                      A                      A
 Frequencies --   1411.4592              1477.4264              1479.3356
 Red. masses --      1.3205                 1.0415                 1.0480
 Frc consts  --      1.5499                 1.3394                 1.3513
 IR Inten    --     34.3824                 4.7764                 0.8201

                     31                     32                     33
                      A                      A                      A
 Frequencies --   1591.5718              1877.4581              2254.4548
 Red. masses --      1.0439                12.9805                 5.7226
 Frc consts  --      1.5580                26.9577                17.1365
 IR Inten    --     54.4725               479.7502                68.0051

                     34                     35                     36
                      A                      A                      A
 Frequencies --   3050.1740              3129.9039              3135.4155
 Red. masses --      1.0417                 1.0897                 1.0896
 Frc consts  --      5.7099                 6.2893                 6.3111
 IR Inten    --      1.5732                 5.7117                 5.1682

                     37                     38                     39
                      A                      A                      A
 Frequencies --   3166.3298              3485.2895              3833.0461
 Red. masses --      1.1028                 1.1707                 1.0663
 Frc consts  --      6.5141                 8.3783                 9.2301
 IR Inten    --      4.7166                66.6236                58.9714

 - Thermochemistry -
 -------------------
 Temperature   298.150 Kelvin.  Pressure   1.00000 Atm.
 Atom     1 has atomic number  6 and mass  12.00000

 Molecular mass:   115.03952 amu.
 Principal axes and moments of inertia in atomic units:
                           1         2         3
     Eigenvalues --   643.311751463.810621836.10162
           X            0.99981   0.01494  -0.01273
           Y           -0.01455   0.99943   0.03043
           Z            0.01318  -0.03024   0.99946
 This molecule is an asymmetric top.
 Rotational symmetry number  1.
 Warning -- assumption of classical behavior for rotation
           may cause significant error
 Rotational temperatures (Kelvin)      0.13464     0.05917     0.04717
 Rotational constants (GHZ):           2.80539     1.23291     0.98292
    1 imaginary frequencies ignored.
 Zero-point vibrational energy     278131.1 (Joules/Mol)
                                   66.47494 (Kcal/Mol)
 Warning -- explicit consideration of  12 degrees of freedom as
           vibrations may cause significant error
 Vibrational temperatures:     78.76   103.30   186.20   217.98   270.29
          (Kelvin)            289.24   348.82   369.87   439.05   595.94
                              758.68   857.03   937.71  1062.91  1082.59
                             1089.21  1119.97  1186.01  1216.77  1390.11
                             1566.91  1615.36  1642.86  1714.42  1785.08
                             1970.19  2030.77  2125.69  2128.43  2289.92
                             2701.24  3243.66  4388.52  4503.23  4511.16
                             4555.64  5014.55  5514.90

 Zero-point correction=                           0.105935 (Hartree/Particle)
 Thermal correction to Energy=                    0.115706
 Thermal correction to Enthalpy=                  0.116650
 Thermal correction to Gibbs Free Energy=         0.070022
 Sum of electronic and zero-point Energies=           -419.3445959
 Sum of electronic and thermal Energies=              -420.081199
 Sum of electronic and thermal Enthalpies=            -420.080255
 Sum of electronic and thermal Free Energies=         -420.126883

                     E (Thermal)             CV                S
                      KCal/Mol        Cal/Mol-Kelvin    Cal/Mol-Kelvin
 Total                   72.607             33.360             98.138
 Electronic               0.000              0.000              1.377
 Translational            0.889              2.981             40.136
 Rotational               0.889              2.981             28.938
 Vibrational             70.829             27.399             27.687
 Vibration     1          0.596              1.976              4.638
 Vibration     2          0.598              1.967              4.104
 Vibration     3          0.612              1.924              2.955
 Vibration     4          0.619              1.901              2.653
 Vibration     5          0.633              1.857              2.249
 Vibration     6          0.638              1.838              2.124
 Vibration     7          0.659              1.775              1.785
 Vibration     8          0.667              1.751              1.682
 Vibration     9          0.696              1.664              1.388
 Vibration    10          0.778              1.439              0.912
 Vibration    11          0.882              1.190              0.593
 Vibration    12          0.953              1.041              0.457

 1\1\GINC-AJ\Freq\UM062X\6-311++G(d,p)\C5H7O3(2)\AAYUSH\29-Mar-2025\0\\
 # freq 6-311++g(d,p) m062x\\Title Card Required\\0,2\C,2.468661,1.2947
 2,-0.672409\H,3.097428,2.092845,-0.993074\C,1.767698,0.3915,-0.311486\
 C,0.987069,-0.755164,0.149714\O,1.490815,-1.783968,0.474731\O,-0.35080
 3,-0.589853,0.194135\C,-0.956201,0.633819,-0.184013\C,-1.107,1.588111,
 0.967127\H,-0.512048,1.044456,-1.091477\H,-2.170701,0.207234,-0.546196
 \H,-1.622999,1.101772,1.795822\H,-0.119297,1.916825,1.309254\H,-1.6774
 23,2.465112,0.659387\O,-3.14708,-0.465487,-0.677608\H,-2.77014,-1.3088

 Normal termination of Gaussian 16 at Sat Mar 29 04:22:32 2025.
