 Gaussian 16, Revision A.03,
 Gaussian 16:  ES64L-G16RevA.03 25-Dec-2016

 --------------------------
 # ccsd(t)/6-311++g(d,p) sp
 --------------------------

 -------------------
 Title Card Required
 -------------------
 Symbolic Z-matrix:
 Charge =  0 Multiplicity = 2

                         Standard orientation:
 ---------------------------------------------------------------------
 Center     Atomic      Atomic             Coordinates (Angstroms)
 Number     Number       Type             X           Y           Z
 ---------------------------------------------------------------------
      1          6           0        2.514814    1.235657   -0.678243
      2          1           0        3.143007    2.034326   -0.998678
      3          6           0        1.814501    0.331829   -0.317581
      4          6           0        1.034697   -0.815533    0.143280
      5          8           0        1.539176   -1.844103    0.467900
      6          8           0       -0.303285   -0.651158    0.187860
      7          6           0       -0.909554    0.572228   -0.189816
      8          6           0       -1.060922    1.526016    0.961668
      9          1           0       -0.465754    0.983487   -1.097170
     10          1           0       -2.123788    0.144934   -0.552054
     11          1           0       -1.576523    1.039033    1.790233
     12          1           0       -0.073419    1.855290    1.303834
     13          1           0       -1.631972    2.402731    0.654277
     14          8           0       -3.099714   -0.528414   -0.683626
     15          1           0       -2.722171   -1.371584   -0.393365
 ---------------------------------------------------------------------

 SCF Done:  E(UHF) =  -417.949438309     A.U. after   33 cycles
 E2 =    -0.1296538615D+01 EUMP2 =    -0.41924597692428D+03
 CCSD(T)= -0.41934459594D+03

 The electronic state is 2-A.
 Alpha  occ. eigenvalues --  -20.63459 -20.59286 -20.57538 -11.43509 -11.34481
 Alpha  occ. eigenvalues --  -11.29016 -11.28112 -11.24952  -1.49897  -1.40638
 Alpha  occ. eigenvalues --   -1.35999  -1.09136  -1.07583  -0.93838  -0.89400
 Alpha  occ. eigenvalues --   -0.78131  -0.75003  -0.73834  -0.68985  -0.68734
 Alpha  occ. eigenvalues --   -0.63976  -0.60683  -0.60471  -0.57949  -0.55643
 Alpha  occ. eigenvalues --   -0.52270  -0.50612  -0.49482  -0.45084  -0.44567
 Alpha  occ. eigenvalues --   -0.42627
 Alpha virt. eigenvalues --    0.02772   0.04578   0.05536   0.06393   0.06757
 Alpha virt. eigenvalues --    0.07858   0.08925   0.09216   0.10398   0.11650
 Alpha virt. eigenvalues --    0.12577   0.13137   0.14613   0.15187   0.15515

  Beta  occ. eigenvalues --  -20.63483 -20.57547 -20.56632 -11.43416 -11.32445
  Beta  occ. eigenvalues --  -11.28965 -11.28154 -11.25063  -1.49646  -1.40386
  Beta  occ. eigenvalues --   -1.27269  -1.09055  -1.04891  -0.92882  -0.87903
  Beta  occ. eigenvalues --   -0.76939  -0.74653  -0.69879  -0.68321  -0.65008
  Beta  occ. eigenvalues --   -0.61452  -0.59921  -0.57458  -0.55950  -0.51519
  Beta  occ. eigenvalues --   -0.49672  -0.49193  -0.47908  -0.44671  -0.44465
  Beta virt. eigenvalues --    0.02778   0.04056   0.04953   0.05623   0.06664
  Beta virt. eigenvalues --    0.06856   0.07881   0.09074   0.09380   0.10814
  Beta virt. eigenvalues --    0.11689   0.12656   0.13172   0.14696   0.15247

 Mulliken charges and spin densities:
               1          2
     1  C   -1.654806   0.006808
     2  H    0.232473  -0.001873
     3  C    1.876810  -0.030435
     4  C   -0.070546   0.034469
     5  O   -0.316236  -0.001145
     6  O   -0.127458  -0.047561
     7  C   -0.377818   0.752612
     8  C   -0.396660  -0.069318
     9  H    0.194898  -0.035849
    10  H    0.314119  -0.196245
    11  H    0.195929   0.009530
    12  H    0.135005   0.038919
    13  H    0.147935   0.003348
    14  O   -0.416821   0.554992
    15  H    0.263176  -0.018253
 Sum of Mulliken charges =  -0.00000   1.00000

 Dipole moment (field-independent basis, Debye):
    X=              1.7406    Y=              4.4801    Z=             -0.4922  Tot=              4.8315
 Quadrupole moment (field-independent basis, Debye-Ang):
   XX=            -55.5694   YY=            -46.6012   ZZ=            -47.9813
   XY=              9.2038   XZ=             -6.7043   YZ=              0.2149

 3-0=-419.2673365\MP4SDQ=-419.2904545\CCSD=-419.2887861\CCSD(T)=-419.34
 Normal termination of Gaussian 16 at Thu May  8 00:23:59 2025.
