 Gaussian 16, Revision A.03,
 Gaussian 16:  ES64L-G16RevA.03 25-Dec-2016

 --------------------------
 # freq 6-311++g(d,p) m062x
 --------------------------

 -------------------
 Title Card Required
 -------------------
 Symbolic Z-matrix:
 Charge =  0 Multiplicity = 2

                         Standard orientation:
 ---------------------------------------------------------------------
 Center     Atomic      Atomic             Coordinates (Angstroms)
 Number     Number       Type             X           Y           Z
 ---------------------------------------------------------------------
      1          6           0        2.514339    1.235041   -0.678090
      2          1           0        3.142640    2.033615   -0.998396
      3          6           0        1.813941    0.331283   -0.317495
      4          6           0        1.033340   -0.815811    0.143485
      5          8           0        1.538393   -1.844685    0.467961
      6          8           0       -0.303301   -0.652301    0.187766
      7          6           0       -0.913453    0.571942   -0.191842
      8          6           0       -1.060411    1.526298    0.961927
      9          1           0       -0.455685    0.987424   -1.090881
     10          1           0       -2.052378    0.188735   -0.541724
     11          1           0       -1.577597    1.038769    1.789129
     12          1           0       -0.074641    1.856363    1.305204
     13          1           0       -1.632405    2.402428    0.654035
     14          8           0       -3.104765   -0.531457   -0.684823
     15          1           0       -2.719086   -1.372303   -0.392507
 ---------------------------------------------------------------------

 SCF Done:  E(UM062X) =  -420.192963429     A.U. after   20 cycles

 The electronic state is 2-A.
 Alpha  occ. eigenvalues --  -19.70198 -19.64910 -19.64433 -10.72360 -10.64304
 Alpha  occ. eigenvalues --  -10.59167 -10.58687 -10.56005  -1.27072  -1.18629
 Alpha  occ. eigenvalues --   -1.12156  -0.90880  -0.90201  -0.79173  -0.75214
 Alpha  occ. eigenvalues --   -0.66368  -0.63086  -0.61393  -0.58577  -0.56613
 Alpha  occ. eigenvalues --   -0.53135  -0.51461  -0.50038  -0.48844  -0.46326
 Alpha  occ. eigenvalues --   -0.41402  -0.41170  -0.40714  -0.38902  -0.38119
 Alpha  occ. eigenvalues --   -0.34248
 Alpha virt. eigenvalues --   -0.03471  -0.01097   0.00491   0.01178   0.01334
 Alpha virt. eigenvalues --    0.02678   0.03320   0.04343   0.05250   0.05951
 Alpha virt. eigenvalues --    0.06537   0.07351   0.08350   0.09122   0.09813

  Beta  occ. eigenvalues --  -19.70174 -19.64425 -19.63793 -10.72337 -10.63800
  Beta  occ. eigenvalues --  -10.59162 -10.58687 -10.56011  -1.26915  -1.18478
  Beta  occ. eigenvalues --   -1.07939  -0.90734  -0.89194  -0.78686  -0.74761
  Beta  occ. eigenvalues --   -0.65584  -0.62939  -0.59020  -0.58204  -0.54898
  Beta  occ. eigenvalues --   -0.51562  -0.51029  -0.48708  -0.47301  -0.43544
  Beta  occ. eigenvalues --   -0.41147  -0.40139  -0.38805  -0.38239  -0.37809
  Beta virt. eigenvalues --   -0.11256  -0.03386  -0.01065   0.00596   0.01259
  Beta virt. eigenvalues --    0.01490   0.02751   0.03405   0.04512   0.05309
  Beta virt. eigenvalues --    0.06073   0.06647   0.07443   0.08473   0.09158

 Mulliken charges and spin densities:
               1          2
     1  C   -1.293756   0.021212
     2  H    0.205386   0.000087
     3  C    1.513744  -0.016133
     4  C   -0.202283   0.005766
     5  O   -0.234020   0.004755
     6  O   -0.051657  -0.009965
     7  C   -0.509310   0.463819
     8  C   -0.374953  -0.012732
     9  H    0.208593  -0.007310
    10  H    0.330889  -0.050689
    11  H    0.211568   0.005116
    12  H    0.149427   0.027152
    13  H    0.175950   0.000816
    14  O   -0.388025   0.578630
    15  H    0.258446  -0.010524
 Sum of Mulliken charges =  -0.00000   1.00000

 Dipole moment (field-independent basis, Debye):
    X=              1.6550    Y=              4.1158    Z=             -0.3322  Tot=              4.4485
 Quadrupole moment (field-independent basis, Debye-Ang):
   XX=            -54.9641   YY=            -46.0579   ZZ=            -47.9567
   XY=              8.3596   XZ=             -6.3092   YZ=              0.2502

  Exact polarizability:  98.396  13.991  80.521   2.101  -3.345  54.374
 Approx polarizability:  98.403  15.394  99.192   0.548 -10.579  63.636

 ******    1 imaginary frequencies (negative Signs) ******

                      1                      2                      3
                      A                      A                      A
 Frequencies --  -1731.2708                62.8809                71.3345
 Red. masses --      1.0826                 4.7984                 6.1621
 Frc consts  --      1.9118                 0.0112                 0.0185
 IR Inten    --   1615.2742                 0.2942                 2.0971

                      4                      5                      6
                      A                      A                      A
 Frequencies --    125.4576               134.4023               181.2750
 Red. masses --      4.7233                 4.1203                 2.2845
 Frc consts  --      0.0438                 0.0439                 0.0442
 IR Inten    --      2.8127                 5.5378                 1.5716

                      7                      8                      9
                      A                      A                      A
 Frequencies --    206.9864               228.2875               257.1889
 Red. masses --      1.1982                 1.1561                 4.6301
 Frc consts  --      0.0302                 0.0355                 0.1804
 IR Inten    --      2.1975               100.4535                 0.7704

                     10                     11                     12
                      A                      A                      A
 Frequencies --    305.1779               409.4979               535.8581
 Red. masses --      4.7466                 3.3616                 6.3396
 Frc consts  --      0.2605                 0.3321                 1.0725
 IR Inten    --      3.0818                11.2221                 1.4362

                     13                     14                     15
                      A                      A                      A
 Frequencies --    602.3805               674.9486               738.3405
 Red. masses --      4.5629                 3.6868                 1.3190
 Frc consts  --      0.9755                 0.9896                 0.4236
 IR Inten    --     15.6035                 9.2231                37.9915

                     16                     17                     18
                      A                      A                      A
 Frequencies --    755.3061               759.5233               777.7874
 Red. masses --      3.8555                10.2698                 1.2848
 Frc consts  --      1.2959                 3.4905                 0.4579
 IR Inten    --     36.0224                26.1630                38.6462

                     19                     20                     21
                      A                      A                      A
 Frequencies --    832.0398               850.3484               966.1905
 Red. masses --      1.0771                 1.3430                 2.4496
 Frc consts  --      0.4393                 0.5722                 1.3473
 IR Inten    --     16.3210               240.5639                24.9244

                     22                     23                     24
                      A                      A                      A
 Frequencies --   1108.1833              1141.9814              1154.3680
 Red. masses --      1.9930                 2.8362                 2.0464
 Frc consts  --      1.4420                 2.1793                 1.6067
 IR Inten    --     58.1428                69.0261                43.8513

                     25                     26                     27
                      A                      A                      A
 Frequencies --   1243.4544              1255.7002              1369.4043
 Red. masses --      2.7346                 1.6286                 1.2013
 Frc consts  --      2.4912                 1.5130                 1.3273
 IR Inten    --    335.4462               305.2311                 9.8861

                     28                     29                     30
                      A                      A                      A
 Frequencies --   1412.8693              1480.7504              1482.0485
 Red. masses --      1.3220                 1.0461                 1.0402
 Frc consts  --      1.5549                 1.3514                 1.3462
 IR Inten    --     35.5005                 1.2629                 4.0609

                     31                     32                     33
                      A                      A                      A
 Frequencies --   1537.8240              1876.5138              2254.5103
 Red. masses --      1.0681                12.9896                 5.7229
 Frc consts  --      1.4883                26.9495                17.1384
 IR Inten    --     24.1588               482.4213                66.7762

                     34                     35                     36
                      A                      A                      A
 Frequencies --   3057.7043              3125.3430              3137.0432
 Red. masses --      1.0393                 1.0862                 1.0958
 Frc consts  --      5.7249                 6.2513                 6.3538
 IR Inten    --      2.3339                 7.0518                 4.0707

                     37                     38                     39
                      A                      A                      A
 Frequencies --   3165.1471              3485.6704              3812.2768
 Red. masses --      1.1029                 1.1706                 1.0667
 Frc consts  --      6.5101                 8.3797                 9.1340
 IR Inten    --      5.2425                66.3041                58.9233

 - Thermochemistry -
 -------------------
 Temperature   298.150 Kelvin.  Pressure   1.00000 Atm.
 Atom     1 has atomic number  6 and mass  12.00000

 Molecular mass:   115.03952 amu.
 Principal axes and moments of inertia in atomic units:
                           1         2         3
     Eigenvalues --   643.772741464.320241836.99351
           X            0.99981   0.01461  -0.01297
           Y           -0.01422   0.99944   0.03024
           Z            0.01341  -0.03005   0.99946
 This molecule is an asymmetric top.
 Rotational symmetry number  1.
 Warning -- assumption of classical behavior for rotation
           may cause significant error
 Rotational temperatures (Kelvin)      0.13454     0.05915     0.04715
 Rotational constants (GHZ):           2.80338     1.23248     0.98244
    1 imaginary frequencies ignored.
 Zero-point vibrational energy     278586.4 (Joules/Mol)
                                   66.58374 (Kcal/Mol)
 Warning -- explicit consideration of  12 degrees of freedom as
           vibrations may cause significant error
 Vibrational temperatures:     90.47   102.63   180.51   193.37   260.81
          (Kelvin)            297.81   328.45   370.04   439.08   589.18
                              770.98   866.69   971.10  1062.31  1086.72
                             1092.78  1119.06  1197.12  1223.46  1390.13
                             1594.43  1643.06  1660.88  1789.05  1806.67
                             1970.27  2032.80  2130.47  2132.34  2212.59
                             2699.88  3243.74  4399.35  4496.67  4513.51
                             4553.94  5015.10  5485.02

 Zero-point correction=                           0.106108 (Hartree/Particle)
 Thermal correction to Energy=                    0.115894
 Thermal correction to Enthalpy=                  0.116839
 Thermal correction to Gibbs Free Energy=         0.070177
 Sum of electronic and zero-point Energies=           -419.341309
 Sum of electronic and thermal Energies=              -420.077069
 Sum of electronic and thermal Enthalpies=            -420.076125
 Sum of electronic and thermal Free Energies=         -420.122786

                     E (Thermal)             CV                S
                      KCal/Mol        Cal/Mol-Kelvin    Cal/Mol-Kelvin
 Total                   72.725             33.233             98.207
 Electronic               0.000              0.000              1.377
 Translational            0.889              2.981             40.136
 Rotational               0.889              2.981             28.939
 Vibrational             70.947             27.271             27.755
 Vibration     1          0.597              1.972              4.365
 Vibration     2          0.598              1.968              4.116
 Vibration     3          0.610              1.928              3.015
 Vibration     4          0.613              1.919              2.882
 Vibration     5          0.630              1.865              2.315
 Vibration     6          0.641              1.830              2.070
 Vibration     7          0.651              1.798              1.892
 Vibration     8          0.667              1.751              1.681
 Vibration     9          0.696              1.664              1.388
 Vibration    10          0.774              1.450              0.928
 Vibration    11          0.891              1.171              0.574
 Vibration    12          0.961              1.027              0.446

 1\1\GINC-AJ\Freq\UM062X\6-311++G(d,p)\C5H7O3(2)\AAYUSH\29-Mar-2025\0\\
 # freq 6-311++g(d,p) m062x\\Title Card Required\\0,2\C,2.468698,1.2947
 12,-0.672411\H,3.097467,2.092795,-0.993022\C,1.767769,0.391503,-0.3114
 71\C,0.986496,-0.754959,0.149942\O,1.49094,-1.784028,0.474743\O,-0.350
 043,-0.590622,0.194236\C,-0.959471,0.633862,-0.185759\C,-1.10579,1.588
 702,0.967691\H,-0.501498,1.048759,-1.084964\H,-2.098647,0.251228,-0.53
 5451\H,-1.623229,1.10177,1.795087\H,-0.119801,1.918285,1.310804\H,-1.6
 77267,2.465074,0.659529\O,-3.151479,-0.468374,-0.67825\H,-2.766295,-1.

 Normal termination of Gaussian 16 at Sat Mar 29 04:15:42 2025.
