 Gaussian 16, Revision A.03,
 Gaussian 16:  ES64L-G16RevA.03 25-Dec-2016

 --------------------------
 # freq 6-311++g(d,p) m062x
 --------------------------

 -------------------
 Title Card Required
 -------------------
 Symbolic Z-matrix:
 Charge =  0 Multiplicity = 2

                         Standard orientation:
 ---------------------------------------------------------------------
 Center     Atomic      Atomic             Coordinates (Angstroms)
 Number     Number       Type             X           Y           Z
 ---------------------------------------------------------------------
      1          6           0        2.514626    1.235533   -0.678153
      2          1           0        3.142835    2.034196   -0.998528
      3          6           0        1.814306    0.331703   -0.317534
      4          6           0        1.034279   -0.815597    0.143337
      5          8           0        1.538955   -1.844258    0.467903
      6          8           0       -0.303278   -0.651538    0.187820
      7          6           0       -0.910978    0.572027   -0.190494
      8          6           0       -1.060833    1.526056    0.961753
      9          1           0       -0.462670    0.984716   -1.095184
     10          1           0       -2.099777    0.159286   -0.548346
     11          1           0       -1.576916    1.038874    1.789870
     12          1           0       -0.073867    1.855572    1.304228
     13          1           0       -1.632197    2.402571    0.654210
     14          8           0       -3.101276   -0.529418   -0.684047
     15          1           0       -2.721012   -1.371828   -0.393114
 ---------------------------------------------------------------------

 SCF Done:  E(UM062X) =  -420.195212130     A.U. after   20 cycles

 The electronic state is 2-A.
 Alpha  occ. eigenvalues --  -19.70454 -19.64622 -19.63966 -10.72548 -10.64653
 Alpha  occ. eigenvalues --  -10.59311 -10.58826 -10.56248  -1.27296  -1.18853
 Alpha  occ. eigenvalues --   -1.11696  -0.91020  -0.90340  -0.79359  -0.75357
 Alpha  occ. eigenvalues --   -0.66522  -0.63204  -0.61377  -0.58803  -0.56767
 Alpha  occ. eigenvalues --   -0.52905  -0.51693  -0.49850  -0.49038  -0.46469
 Alpha  occ. eigenvalues --   -0.41528  -0.41339  -0.40021  -0.39052  -0.38246
 Alpha  occ. eigenvalues --   -0.33219
 Alpha virt. eigenvalues --   -0.03626  -0.01162   0.00479   0.01130   0.01334
 Alpha virt. eigenvalues --    0.02621   0.03272   0.04332   0.05195   0.05938
 Alpha virt. eigenvalues --    0.06498   0.07318   0.08292   0.09049   0.09779

  Beta  occ. eigenvalues --  -19.70421 -19.64612 -19.63015 -10.72518 -10.64056
  Beta  occ. eigenvalues --  -10.59305 -10.58826 -10.56257  -1.27100  -1.18675
  Beta  occ. eigenvalues --   -1.08133  -0.90869  -0.89191  -0.78801  -0.74840
  Beta  occ. eigenvalues --   -0.65643  -0.63060  -0.59023  -0.58342  -0.55059
  Beta  occ. eigenvalues --   -0.51586  -0.51136  -0.48848  -0.47439  -0.43774
  Beta  occ. eigenvalues --   -0.41305  -0.40407  -0.38953  -0.38085  -0.37891
  Beta virt. eigenvalues --   -0.10891  -0.03515  -0.01129   0.00572   0.01198
  Beta virt. eigenvalues --    0.01497   0.02692   0.03356   0.04507   0.05262
  Beta virt. eigenvalues --    0.06050   0.06622   0.07397   0.08414   0.09081

 Mulliken charges and spin densities:
               1          2
     1  C   -1.288526   0.021922
     2  H    0.206008   0.000106
     3  C    1.512027  -0.019129
     4  C   -0.205434   0.010075
     5  O   -0.231324   0.005818
     6  O   -0.047326  -0.014323
     7  C   -0.509560   0.569237
     8  C   -0.372197  -0.020149
     9  H    0.212245  -0.010568
    10  H    0.343797  -0.053767
    11  H    0.214557   0.006509
    12  H    0.150679   0.033757
    13  H    0.177626   0.001260
    14  O   -0.421162   0.476296
    15  H    0.258591  -0.007045
 Sum of Mulliken charges =  -0.00000   1.00000

 Dipole moment (field-independent basis, Debye):
    X=              1.9382    Y=              4.2313    Z=             -0.2557  Tot=              4.6611
 Quadrupole moment (field-independent basis, Debye-Ang):
   XX=            -55.9505   YY=            -45.9525   ZZ=            -47.9291
   XY=              8.0054   XZ=             -6.5745   YZ=              0.2051

  Exact polarizability:  96.489  12.953  80.219   1.534  -3.543  54.304
 Approx polarizability:  97.926  15.049  99.333   0.422 -10.596  63.720

 ******    1 imaginary frequencies (negative Signs) ******

                      1                      2                      3
                      A                      A                      A
 Frequencies --  -1762.7300                59.5782                71.9802
 Red. masses --      1.0756                 5.0222                 5.4483
 Frc consts  --      1.9691                 0.0105                 0.0166
 IR Inten    --    871.3160                 0.3413                 1.7252

                      4                      5                      6
                      A                      A                      A
 Frequencies --    129.4577               149.0133               188.2494
 Red. masses --      4.3736                 4.7069                 1.7708
 Frc consts  --      0.0432                 0.0616                 0.0370
 IR Inten    --      1.0892                 6.0616                 0.8892

                      7                      8                      9
                      A                      A                      A
 Frequencies --    202.6191               237.8993               256.9766
 Red. masses --      1.4615                 1.1592                 4.2539
 Frc consts  --      0.0354                 0.0387                 0.1655
 IR Inten    --      1.6621                98.0290                 2.4920

                     10                     11                     12
                      A                      A                      A
 Frequencies --    304.3424               413.0587               528.8329
 Red. masses --      5.1220                 3.3978                 6.1900
 Frc consts  --      0.2795                 0.3416                 1.0199
 IR Inten    --      2.0394                11.3950                 1.4621

                     13                     14                     15
                      A                      A                      A
 Frequencies --    595.2685               656.1861               738.6715
 Red. masses --      4.1195                 3.9258                 1.3147
 Frc consts  --      0.8600                 0.9959                 0.4227
 IR Inten    --     16.3784                 2.9588                37.3711

                     16                     17                     18
                      A                      A                      A
 Frequencies --    753.4160               757.7015               778.2232
 Red. masses --      3.2586                11.8103                 1.2847
 Frc consts  --      1.0898                 3.9949                 0.4584
 IR Inten    --     23.5186                23.5178                38.1479

                     19                     20                     21
                      A                      A                      A
 Frequencies --    828.5493               850.6804               966.3083
 Red. masses --      1.1663                 1.2594                 2.4781
 Frc consts  --      0.4717                 0.5370                 1.3633
 IR Inten    --     35.2114               126.7798                20.9593

                     22                     23                     24
                      A                      A                      A
 Frequencies --   1099.6779              1130.7121              1144.5480
 Red. masses --      1.6167                 2.2320                 2.9037
 Frc consts  --      1.1519                 1.6813                 2.2411
 IR Inten    --     67.5151                23.6205               103.7361

                     25                     26                     27
                      A                      A                      A
 Frequencies --   1207.1968              1243.4093              1369.5630
 Red. masses --      1.2948                 8.1195                 1.2061
 Frc consts  --      1.1118                 7.3962                 1.3329
 IR Inten    --     15.2826               667.4197                 6.5913

                     28                     29                     30
                      A                      A                      A
 Frequencies --   1411.8786              1478.7059              1480.0860
 Red. masses --      1.3207                 1.0419                 1.0467
 Frc consts  --      1.5511                 1.3423                 1.3510
 IR Inten    --     34.9425                 4.6879                 0.6845

                     31                     32                     33
                      A                      A                      A
 Frequencies --   1568.4930              1877.1122              2254.4749
 Red. masses --      1.0476                12.9920                 5.7226
 Frc consts  --      1.5185                26.9717                17.1370
 IR Inten    --     46.4472               481.0409                67.7466

                     34                     35                     36
                      A                      A                      A
 Frequencies --   3052.7733              3129.0587              3135.3554
 Red. masses --      1.0409                 1.0880                 1.0923
 Frc consts  --      5.7152                 6.2761                 6.3263
 IR Inten    --      1.7409                 6.6798                 4.2600

                     37                     38                     39
                      A                      A                      A
 Frequencies --   3166.0461              3485.4060              3826.0969
 Red. masses --      1.1029                 1.1706                 1.0664
 Frc consts  --      6.5134                 8.3788                 9.1982
 IR Inten    --      4.8218                66.5715                60.0015

 - Thermochemistry -
 -------------------
 Temperature   298.150 Kelvin.  Pressure   1.00000 Atm.
 Atom     1 has atomic number  6 and mass  12.00000

 Molecular mass:   115.03952 amu.
 Principal axes and moments of inertia in atomic units:
                           1         2         3
     Eigenvalues --   643.445721463.943631836.34933
           X            0.99981   0.01483  -0.01282
           Y           -0.01444   0.99943   0.03036
           Z            0.01326  -0.03017   0.99946
 This molecule is an asymmetric top.
 Rotational symmetry number  1.
 Warning -- assumption of classical behavior for rotation
           may cause significant error
 Rotational temperatures (Kelvin)      0.13461     0.05916     0.04717
 Rotational constants (GHZ):           2.80481     1.23279     0.98279
    1 imaginary frequencies ignored.
 Zero-point vibrational energy     278296.9 (Joules/Mol)
                                   66.51455 (Kcal/Mol)
 Warning -- explicit consideration of  12 degrees of freedom as
           vibrations may cause significant error
 Vibrational temperatures:     85.72   103.56   186.26   214.40   270.85
          (Kelvin)            291.52   342.28   369.73   437.88   594.30
                              760.87   856.46   944.11  1062.78  1084.00
                             1090.16  1119.69  1192.10  1223.94  1390.30
                             1582.19  1626.84  1646.75  1736.89  1788.99
                             1970.50  2031.38  2127.53  2129.51  2256.71
                             2700.75  3243.69  4392.26  4502.02  4511.08
                             4555.23  5014.72  5504.90

 Zero-point correction=                           0.105998 (Hartree/Particle)
 Thermal correction to Energy=                    0.115760
 Thermal correction to Enthalpy=                  0.116704
 Thermal correction to Gibbs Free Energy=         0.070143
 Sum of electronic and zero-point Energies=           -419.3429898
 Sum of electronic and thermal Energies=              -420.079452
 Sum of electronic and thermal Enthalpies=            -420.078508
 Sum of electronic and thermal Free Energies=         -420.125070

                     E (Thermal)             CV                S
                      KCal/Mol        Cal/Mol-Kelvin    Cal/Mol-Kelvin
 Total                   72.640             33.316             97.997
 Electronic               0.000              0.000              1.377
 Translational            0.889              2.981             40.136
 Rotational               0.889              2.981             28.938
 Vibrational             70.863             27.354             27.546
 Vibration     1          0.597              1.974              4.471
 Vibration     2          0.598              1.967              4.098
 Vibration     3          0.612              1.924              2.954
 Vibration     4          0.618              1.904              2.685
 Vibration     5          0.633              1.856              2.245
 Vibration     6          0.639              1.836              2.109
 Vibration     7          0.656              1.783              1.819
 Vibration     8          0.667              1.751              1.682
 Vibration     9          0.695              1.665              1.393
 Vibration    10          0.777              1.442              0.916
 Vibration    11          0.884              1.186              0.590
 Vibration    12          0.953              1.042              0.458

 1\1\GINC-AJ\Freq\UM062X\6-311++G(d,p)\C5H7O3(2)\AAYUSH\29-Mar-2025\0\\
 # freq 6-311++g(d,p) m062x\\Title Card Required\\0,2\C,2.468671,1.2947
 19,-0.672411\H,3.097437,2.092833,-0.993059\C,1.76772,0.391501,-0.31148
 3\C,0.986892,-0.755095,0.149783\O,1.490852,-1.783985,0.474734\O,-0.350
 553,-0.5901,0.194173\C,-0.957401,0.633746,-0.184599\C,-1.106629,1.5882
 95,0.967299\H,-0.508787,1.0458,-1.089427\H,-2.146475,0.221694,-0.54233
 2\H,-1.623067,1.101768,1.795579\H,-0.119445,1.917256,1.30968\H,-1.6773
 82,2.465092,0.659425\O,-3.148444,-0.46637,-0.677809\H,-2.768767,-1.308

 Normal termination of Gaussian 16 at Sat Mar 29 04:20:14 2025.
