 Gaussian 16, Revision A.03,
 Gaussian 16:  ES64L-G16RevA.03 25-Dec-2016

 --------------------------
 # freq 6-311++g(d,p) m062x
 --------------------------

 -------------------
 Title Card Required
 -------------------
 Symbolic Z-matrix:
 Charge =  0 Multiplicity = 2

                         Standard orientation:
 ---------------------------------------------------------------------
 Center     Atomic      Atomic             Coordinates (Angstroms)
 Number     Number       Type             X           Y           Z
 ---------------------------------------------------------------------
      1          6           0        2.520447    1.211969   -0.687053
      2          1           0        3.153820    2.004515   -1.011742
      3          6           0        1.814652    0.314732   -0.320645
      4          6           0        1.021965   -0.824300    0.147326
      5          8           0        1.524480   -1.855464    0.473989
      6          8           0       -0.309484   -0.652414    0.188057
      7          6           0       -0.891184    0.599227   -0.200345
      8          6           0       -1.039078    1.542617    0.965241
      9          1           0       -0.339366    1.028655   -1.037765
     10          1           0       -1.887688    0.349350   -0.595912
     11          1           0       -1.573853    1.053612    1.780679
     12          1           0       -0.062938    1.873637    1.326825
     13          1           0       -1.609196    2.419519    0.653077
     14          8           0       -3.155529   -0.546524   -0.683034
     15          1           0       -2.717332   -1.359546   -0.374394
 ---------------------------------------------------------------------

 SCF Done:  E(UM062X) =  -420.194213806     A.U. after   22 cycles

 The electronic state is 2-A.
 Alpha  occ. eigenvalues --  -19.69216 -19.68685 -19.63621 -10.71546 -10.61851
 Alpha  occ. eigenvalues --  -10.58462 -10.58052 -10.54844  -1.26049  -1.17607
 Alpha  occ. eigenvalues --   -1.14740  -0.90105  -0.89382  -0.78030  -0.74500
 Alpha  occ. eigenvalues --   -0.65517  -0.62453  -0.60569  -0.57638  -0.56743
 Alpha  occ. eigenvalues --   -0.54681  -0.50455  -0.50143  -0.47890  -0.45734
 Alpha  occ. eigenvalues --   -0.43874  -0.41387  -0.40479  -0.38701  -0.38050
 Alpha  occ. eigenvalues --   -0.36787
 Alpha virt. eigenvalues --   -0.02763  -0.00833   0.00365   0.01245   0.01521
 Alpha virt. eigenvalues --    0.02950   0.03588   0.04412   0.05447   0.06054
 Alpha virt. eigenvalues --    0.06731   0.07491   0.08616   0.09438   0.09992

  Beta  occ. eigenvalues --  -19.69221 -19.67173 -19.63619 -10.71541 -10.61654
  Beta  occ. eigenvalues --  -10.58460 -10.58052 -10.54847  -1.26016  -1.17541
  Beta  occ. eigenvalues --   -1.07614  -0.90056  -0.88933  -0.77841  -0.74296
  Beta  occ. eigenvalues --   -0.65123  -0.62342  -0.58940  -0.57434  -0.54656
  Beta  occ. eigenvalues --   -0.52706  -0.50163  -0.48022  -0.46571  -0.42927
  Beta  occ. eigenvalues --   -0.40557  -0.40388  -0.39370  -0.38111  -0.37026
  Beta virt. eigenvalues --   -0.10841  -0.02744  -0.00794   0.00592   0.01382
  Beta virt. eigenvalues --    0.01573   0.03008   0.03692   0.04564   0.05487
  Beta virt. eigenvalues --    0.06134   0.06789   0.07638   0.08739   0.09464

 Mulliken charges and spin densities:
               1          2
     1  C   -1.310832   0.014122
     2  H    0.202290   0.000027
     3  C    1.510512  -0.008318
     4  C   -0.185811  -0.003059
     5  O   -0.247154   0.001055
     6  O   -0.061474  -0.002366
     7  C   -0.498795   0.155243
     8  C   -0.375859   0.003789
     9  H    0.186208  -0.000084
    10  H    0.263444  -0.035214
    11  H    0.197813   0.000432
    12  H    0.143904   0.006810
    13  H    0.167393  -0.000213
    14  O   -0.258051   0.885586
    15  H    0.266413  -0.017810
 Sum of Mulliken charges =  -0.00000   1.00000

 Dipole moment (field-independent basis, Debye):
    X=              0.4064    Y=              3.5810    Z=             -0.7108  Tot=              3.6734
 Quadrupole moment (field-independent basis, Debye-Ang):
   XX=            -50.7849   YY=            -46.6814   ZZ=            -48.0966
   XY=              9.8135   XZ=             -5.1358   YZ=              0.3761

  Exact polarizability:  87.744   9.423  77.825  -1.022  -4.963  53.377
 Approx polarizability:  88.618  10.992  95.609  -2.478 -12.256  62.471

 ******    2 imaginary frequencies (negative Signs) ******

                      1                      2                      3
                      A                      A                      A
 Frequencies --   -166.5520              -108.1389                35.2655
 Red. masses --      2.7983                 4.2392                 3.6359
 Frc consts  --      0.0457                 0.0292                 0.0027
 IR Inten    --      4.4015                 0.7549                 1.0891

                      4                      5                      6
                      A                      A                      A
 Frequencies --     65.4313               104.7047               165.4726
 Red. masses --      5.7941                 7.1089                 2.8993
 Frc consts  --      0.0146                 0.0459                 0.0468
 IR Inten    --     10.2621                17.1473                 4.4159

                      7                      8                      9
                      A                      A                      A
 Frequencies --    222.3541               231.9363               260.4002
 Red. masses --      1.1941                 1.1259                 4.5784
 Frc consts  --      0.0348                 0.0357                 0.1829
 IR Inten    --      2.1470               108.6211                 1.1124

                     10                     11                     12
                      A                      A                      A
 Frequencies --    339.7507               402.5618               553.5561
 Red. masses --      2.7840                 3.5022                 4.9586
 Frc consts  --      0.1893                 0.3344                 0.8952
 IR Inten    --      8.0021                 7.2326                 5.9994

                     13                     14                     15
                      A                      A                      A
 Frequencies --    599.5483               643.1478               734.2920
 Red. masses --      1.6508                 2.2927                 1.3188
 Frc consts  --      0.3496                 0.5587                 0.4190
 IR Inten    --    104.8513               123.2479                35.4044

                     16                     17                     18
                      A                      A                      A
 Frequencies --    754.5347               765.7256               777.1470
 Red. masses --      2.1405                10.6776                 1.2963
 Frc consts  --      0.7180                 3.6887                 0.4613
 IR Inten    --     18.4871                17.2755                42.5567

                     19                     20                     21
                      A                      A                      A
 Frequencies --    781.7422               961.0171              1115.4901
 Red. masses --      1.8368                 2.2353                 3.3475
 Frc consts  --      0.6614                 1.2163                 2.4541
 IR Inten    --      4.5625                17.8474                34.8666

                     22                     23                     24
                      A                      A                      A
 Frequencies --   1127.6609              1161.7372              1245.3870
 Red. masses --      2.1141                 2.1593                 3.1676
 Frc consts  --      1.5839                 1.7170                 2.8946
 IR Inten    --     35.0446                46.2007               419.3039

                     25                     26                     27
                      A                      A                      A
 Frequencies --   1321.2695              1381.5925              1421.8538
 Red. masses --      1.3701                 1.2335                 1.3515
 Frc consts  --      1.4092                 1.3873                 1.6099
 IR Inten    --    236.8140                 7.0313                23.2246

                     28                     29                     30
                      A                      A                      A
 Frequencies --   1479.6507              1488.3546              1504.6676
 Red. masses --      1.0782                 1.0388                 1.0796
 Frc consts  --      1.3908                 1.3558                 1.4401
 IR Inten    --     22.1378                11.6277                19.5201

                     31                     32                     33
                      A                      A                      A
 Frequencies --   1871.9628              2252.7939              2648.5292
 Red. masses --     12.9273                 5.7251                 1.0939
 Frc consts  --     26.6903                17.1189                 4.5211
 IR Inten    --    491.8118                61.1501               649.3130

                     34                     35                     36
                      A                      A                      A
 Frequencies --   3068.5726              3120.4670              3145.3940
 Red. masses --      1.0354                 1.0852                 1.1024
 Frc consts  --      5.7443                 6.2256                 6.4260
 IR Inten    --      6.6318                 7.3463                11.4150

                     37                     38                     39
                      A                      A                      A
 Frequencies --   3157.8056              3486.8056              3767.5380
 Red. masses --      1.1024                 1.1702                 1.0670
 Frc consts  --      6.4767                 8.3823                 8.9234
 IR Inten    --      9.6280                63.6723                38.3551

 - Thermochemistry -
 -------------------
 Temperature   298.150 Kelvin.  Pressure   1.00000 Atm.
 Atom     1 has atomic number  6 and mass  12.00000

 Molecular mass:   115.03952 amu.
 Principal axes and moments of inertia in atomic units:
                           1         2         3
     Eigenvalues --   650.046071475.581781852.10412
           X            0.99982   0.01352  -0.01344
           Y           -0.01312   0.99947   0.02965
           Z            0.01384  -0.02947   0.99947
 This molecule is an asymmetric top.
 Rotational symmetry number  1.
 Warning -- assumption of classical behavior for rotation
           may cause significant error
 Rotational temperatures (Kelvin)      0.13324     0.05870     0.04677
 Rotational constants (GHZ):           2.77633     1.22307     0.97443
    2 imaginary frequencies ignored.
 Zero-point vibrational energy     288097.4 (Joules/Mol)
                                   68.85693 (Kcal/Mol)
 Warning -- explicit consideration of  11 degrees of freedom as
           vibrations may cause significant error
 Vibrational temperatures:     50.74    94.14   150.65   238.08   319.92
          (Kelvin)            333.70   374.66   488.83   579.20   796.44
                              862.62   925.35  1056.48  1085.61  1101.71
                             1118.14  1124.75  1382.69  1604.94  1622.45
                             1671.48  1791.83  1901.01  1987.80  2045.73
                             2128.89  2141.41  2164.88  2693.34  3241.27
                             3810.64  4414.99  4489.66  4525.52  4543.38
                             5016.74  5420.65

 Zero-point correction=                           0.109730 (Hartree/Particle)
 Thermal correction to Energy=                    0.118864
 Thermal correction to Enthalpy=                  0.119809
 Thermal correction to Gibbs Free Energy=         0.073849
 Sum of electronic and zero-point Energies=           -419.3449201
 Sum of electronic and thermal Energies=              -420.075349
 Sum of electronic and thermal Enthalpies=            -420.074405
 Sum of electronic and thermal Free Energies=         -420.120365

                     E (Thermal)             CV                S
                      KCal/Mol        Cal/Mol-Kelvin    Cal/Mol-Kelvin
 Total                   74.589             30.790             96.730
 Electronic               0.000              0.000              1.377
 Translational            0.889              2.981             40.136
 Rotational               0.889              2.981             28.965
 Vibrational             72.811             24.828             26.253
 Vibration     1          0.594              1.982              5.509
 Vibration     2          0.597              1.971              4.286
 Vibration     3          0.605              1.945              3.365
 Vibration     4          0.624              1.885              2.486
 Vibration     5          0.648              1.807              1.940
 Vibration     6          0.653              1.792              1.864
 Vibration     7          0.668              1.745              1.659
 Vibration     8          0.720              1.596              1.213
 Vibration     9          0.768              1.465              0.953
 Vibration    10          0.909              1.132              0.537
 Vibration    11          0.958              1.033              0.450

 1\1\GINC-AJ\Freq\UM062X\6-311++G(d,p)\C5H7O3(2)\AAYUSH\29-Mar-2025\0\\
 # freq 6-311++g(d,p) m062x\\Title Card Required\\0,2\C,2.469634,1.2940
 69,-0.672002\H,3.098345,2.091991,-0.992558\C,1.769118,0.390823,-0.3102
 57\C,0.983127,-0.755187,0.151937\O,1.491809,-1.784445,0.475049\O,-0.34
 9451,-0.592012,0.191541\C,-0.938648,0.657462,-0.192512\C,-1.094167,1.5
 95074,0.976737\H,-0.388468,1.093866,-1.0274\H,-1.932993,0.402831,-0.59
 0474\H,-1.626893,1.099295,1.789421\H,-0.120661,1.930855,1.341022\H,-1.
 66948,2.469581,0.667396\O,-3.194939,-0.500788,-0.683023\H,-2.75195,-1.

 Normal termination of Gaussian 16 at Sat Mar 29 01:50:07 2025.
