 Gaussian 16, Revision A.03,
 Gaussian 16:  ES64L-G16RevA.03 25-Dec-2016

 --------------------------
 # ccsd(t)/6-311++g(d,p) sp
 --------------------------

 -------------------
 Title Card Required
 -------------------
 Symbolic Z-matrix:
 Charge =  0 Multiplicity = 2

                         Standard orientation:
 ---------------------------------------------------------------------
 Center     Atomic      Atomic             Coordinates (Angstroms)
 Number     Number       Type             X           Y           Z
 ---------------------------------------------------------------------
      1          6           0        2.514441    1.232780   -0.678783
      2          1           0        3.143333    2.030682   -0.999334
      3          6           0        1.813539    0.329599   -0.317788
      4          6           0        1.031312   -0.816657    0.143949
      5          8           0        1.536821   -1.846008    0.468393
      6          8           0       -0.303569   -0.653535    0.187874
      7          6           0       -0.914576    0.573986   -0.193864
      8          6           0       -1.058154    1.527792    0.962327
      9          1           0       -0.438065    0.993893   -1.081343
     10          1           0       -1.989196    0.235815   -0.538765
     11          1           0       -1.578015    1.040015    1.787800
     12          1           0       -0.074769    1.859128    1.307985
     13          1           0       -1.631061    2.403344    0.653533
     14          8           0       -3.112552   -0.534920   -0.685559
     15          1           0       -2.717196   -1.372179   -0.390579
 ---------------------------------------------------------------------

 SCF Done:  E(UHF) =  -417.960145298     A.U. after   36 cycles
 E2 =    -0.1279102693D+01 EUMP2 =    -0.41923924799112D+03
 CCSD(T)= -0.41934159927D+03

 The electronic state is 2-A.
 Alpha  occ. eigenvalues --  -20.63733 -20.62122 -20.56578 -11.42477 -11.31339
 Alpha  occ. eigenvalues --  -11.28151 -11.27349 -11.23585  -1.48659  -1.40420
 Alpha  occ. eigenvalues --   -1.39167  -1.08267  -1.05902  -0.92586  -0.88288
 Alpha  occ. eigenvalues --   -0.77131  -0.74677  -0.73466  -0.69101  -0.67842
 Alpha  occ. eigenvalues --   -0.66897  -0.61110  -0.59232  -0.56659  -0.56356
 Alpha  occ. eigenvalues --   -0.54537  -0.49894  -0.48496  -0.45172  -0.43800
 Alpha  occ. eigenvalues --   -0.43387
 Alpha virt. eigenvalues --    0.03121   0.04735   0.05688   0.06164   0.07286
 Alpha virt. eigenvalues --    0.08143   0.08974   0.09477   0.10366   0.11991
 Alpha virt. eigenvalues --    0.12805   0.13387   0.14921   0.15633   0.15712

  Beta  occ. eigenvalues --  -20.62165 -20.59922 -20.56584 -11.42444 -11.30359
  Beta  occ. eigenvalues --  -11.28124 -11.27373 -11.23641  -1.48592  -1.39323
  Beta  occ. eigenvalues --   -1.26353  -1.08239  -1.04577  -0.92135  -0.87504
  Beta  occ. eigenvalues --   -0.76230  -0.73849  -0.69659  -0.67379  -0.66079
  Beta  occ. eigenvalues --   -0.62010  -0.59070  -0.56377  -0.54997  -0.51902
  Beta  occ. eigenvalues --   -0.50718  -0.48731  -0.46729  -0.43854  -0.43618
  Beta virt. eigenvalues --    0.03123   0.04341   0.05249   0.05891   0.07022
  Beta virt. eigenvalues --    0.07361   0.08188   0.09253   0.09514   0.10914
  Beta virt. eigenvalues --    0.12007   0.12824   0.13542   0.15051   0.15658

 Mulliken charges and spin densities:
               1          2
     1  C   -1.698691   0.008827
     2  H    0.228513  -0.001073
     3  C    1.900087  -0.016891
     4  C   -0.051467   0.011710
     5  O   -0.329885  -0.000995
     6  O   -0.150577  -0.018773
     7  C   -0.390092   0.326676
     8  C   -0.401693  -0.023902
     9  H    0.170977  -0.015374
    10  H    0.272323  -0.128630
    11  H    0.179672   0.004305
    12  H    0.127147   0.013797
    13  H    0.138052   0.001406
    14  O   -0.265134   0.868783
    15  H    0.270768  -0.029867
 Sum of Mulliken charges =  -0.00000   1.00000

 Dipole moment (field-independent basis, Debye):
    X=              0.1430    Y=              3.7371    Z=             -0.9044  Tot=              3.8476
 Quadrupole moment (field-independent basis, Debye-Ang):
   XX=            -50.0548   YY=            -47.1791   ZZ=            -48.1463
   XY=             11.1771   XZ=             -5.2103   YZ=              0.4878

 419.2871831\CCSD(T)=-419.3415993\S2=0.774403\S2-1=0.758211\S2A=0.75028
 Normal termination of Gaussian 16 at Wed May  7 08:22:54 2025.
