 Gaussian 16, Revision A.03,
 Gaussian 16:  ES64L-G16RevA.03 25-Dec-2016

 --------------------------
 # freq 6-311++g(d,p) m062x
 --------------------------

 -------------------
 Title Card Required
 -------------------
 Symbolic Z-matrix:
 Charge =  0 Multiplicity = 2

                         Standard orientation:
 ---------------------------------------------------------------------
 Center     Atomic      Atomic             Coordinates (Angstroms)
 Number     Number       Type             X           Y           Z
 ---------------------------------------------------------------------
      1          6           0        1.347286    2.236465   -0.067890
      2          1           0        1.272152    3.299004   -0.083188
      3          6           0        1.438783    1.041076   -0.050523
      4          6           0        1.631320   -0.410094    0.000178
      5          8           0        2.681062   -0.896692    0.291803
      6          8           0        0.572883   -1.173058   -0.308516
      7          6           0       -0.712945   -0.583565   -0.571263
      8          6           0       -1.430125   -0.274954    0.721213
      9          1           0       -0.600292    0.307674   -1.190123
     10          1           0       -1.246590   -1.340434   -1.142388
     11          1           0       -1.598811   -1.158950    1.334898
     12          1           0       -0.989565    0.541794    1.292780
     13          1           0       -2.537161    0.145442    0.377677
     14          8           0       -3.719278    0.375712   -0.125741
     15          1           0       -4.222974   -0.295796    0.359690
 ---------------------------------------------------------------------

 SCF Done:  E(UM062X) =  -420.188739379     A.U. after   21 cycles

 The electronic state is 2-A.
 Alpha  occ. eigenvalues --  -19.69003 -19.66556 -19.63406 -10.71307 -10.62366
 Alpha  occ. eigenvalues --  -10.58359 -10.57922 -10.57869  -1.25871  -1.17331
 Alpha  occ. eigenvalues --   -1.13675  -0.90211  -0.89834  -0.78567  -0.74505
 Alpha  occ. eigenvalues --   -0.65161  -0.62307  -0.60255  -0.58988  -0.56974
 Alpha  occ. eigenvalues --   -0.54423  -0.52546  -0.49716  -0.49016  -0.44066
 Alpha  occ. eigenvalues --   -0.42271  -0.40905  -0.39737  -0.38327  -0.37007
 Alpha  occ. eigenvalues --   -0.35988
 Alpha virt. eigenvalues --   -0.02666  -0.01244  -0.00014   0.01169   0.01969
 Alpha virt. eigenvalues --    0.02330   0.03792   0.04175   0.05131   0.06607
 Alpha virt. eigenvalues --    0.06899   0.07257   0.08034   0.09019   0.10306

  Beta  occ. eigenvalues --  -19.68930 -19.65366 -19.63399 -10.71309 -10.62381
  Beta  occ. eigenvalues --  -10.58359 -10.57922 -10.57467  -1.25729  -1.17220
  Beta  occ. eigenvalues --   -1.09110  -0.89948  -0.89114  -0.77755  -0.74097
  Beta  occ. eigenvalues --   -0.64910  -0.62179  -0.59038  -0.57541  -0.55010
  Beta  occ. eigenvalues --   -0.54054  -0.49692  -0.48529  -0.46141  -0.43589
  Beta  occ. eigenvalues --   -0.40375  -0.39724  -0.39215  -0.37978  -0.36873
  Beta virt. eigenvalues --   -0.12319  -0.02633  -0.00970   0.00083   0.01230
  Beta virt. eigenvalues --    0.02125   0.02610   0.03839   0.04234   0.05232
  Beta virt. eigenvalues --    0.06736   0.06981   0.07263   0.08162   0.09068

 Mulliken charges and spin densities:
               1          2
     1  C   -1.334374  -0.010443
     2  H    0.201417  -0.000273
     3  C    1.552735   0.001719
     4  C   -0.214811   0.008834
     5  O   -0.242843   0.003299
     6  O   -0.032833   0.015198
     7  C   -0.294869  -0.003371
     8  C   -0.511565   0.460217
     9  H    0.183457   0.000082
    10  H    0.203132  -0.001254
    11  H    0.216487  -0.015800
    12  H    0.166169  -0.006410
    13  H    0.233715  -0.061277
    14  O   -0.372424   0.619884
    15  H    0.246608  -0.010404
 Sum of Mulliken charges =  -0.00000   1.00000

 Dipole moment (field-independent basis, Debye):
    X=             -2.9812    Y=              1.5998    Z=              0.5204  Tot=              3.4232
 Quadrupole moment (field-independent basis, Debye-Ang):
   XX=            -57.6380   YY=            -43.3209   ZZ=            -46.9361
   XY=             12.5965   XZ=             -5.6479   YZ=             -0.1092

  Exact polarizability: 102.023  -5.930  78.802   7.765  -2.043  51.399
 Approx polarizability:  97.928 -11.017 100.362  10.069  -3.718  60.890

 ******    1 imaginary frequencies (negative Signs) ******

                      1                      2                      3
                      A                      A                      A
 Frequencies --  -1474.7838                56.9060                70.2403
 Red. masses --      1.0969                 5.9806                 6.6759
 Frc consts  --      1.4056                 0.0114                 0.0194
 IR Inten    --   1454.9207                 5.3496                 3.2795

                      4                      5                      6
                      A                      A                      A
 Frequencies --    108.7197               122.9943               159.8992
 Red. masses --      2.7342                 4.2757                 1.1769
 Frc consts  --      0.0190                 0.0381                 0.0177
 IR Inten    --      2.3301                 0.8355               112.3800

                      7                      8                      9
                      A                      A                      A
 Frequencies --    179.8595               258.8666               315.0115
 Red. masses --      3.3428                 5.0299                 2.8154
 Frc consts  --      0.0637                 0.1986                 0.1646
 IR Inten    --      7.3147                 0.6138                 5.5947

                     10                     11                     12
                      A                      A                      A
 Frequencies --    372.2086               423.1985               557.2525
 Red. masses --      4.1399                 1.3014                 6.2857
 Frc consts  --      0.3379                 0.1373                 1.1500
 IR Inten    --      1.7226                 7.0620                30.3166

                     13                     14                     15
                      A                      A                      A
 Frequencies --    630.6072               688.7292               736.8622
 Red. masses --      5.8609                 2.0142                 1.3198
 Frc consts  --      1.3732                 0.5629                 0.4222
 IR Inten    --      1.5620                45.7735                39.2802

                     16                     17                     18
                      A                      A                      A
 Frequencies --    759.2079               769.2270               778.0353
 Red. masses --      4.6028                 9.3126                 1.2893
 Frc consts  --      1.5631                 3.2466                 0.4599
 IR Inten    --     17.2803                18.8052                43.6465

                     19                     20                     21
                      A                      A                      A
 Frequencies --    806.7044               856.2757              1012.5038
 Red. masses --      1.3872                 1.3310                 1.8955
 Frc consts  --      0.5319                 0.5750                 1.1449
 IR Inten    --     97.5012                61.2573                35.7696

                     22                     23                     24
                      A                      A                      A
 Frequencies --   1097.6884              1122.1249              1176.4907
 Red. masses --      3.1410                 2.1316                 1.9166
 Frc consts  --      2.2299                 1.5814                 1.5630
 IR Inten    --     45.8344                63.6187               126.4947

                     25                     26                     27
                      A                      A                      A
 Frequencies --   1246.2235              1271.1968              1340.8081
 Red. masses --      1.9237                 1.5281                 1.2218
 Frc consts  --      1.7603                 1.4549                 1.2941
 IR Inten    --    292.1425               114.3963               109.9338

                     28                     29                     30
                      A                      A                      A
 Frequencies --   1374.0635              1413.7339              1472.8563
 Red. masses --      1.0340                 1.3225                 1.1565
 Frc consts  --      1.1503                 1.5573                 1.4781
 IR Inten    --     25.0064                23.2265                 7.7741

                     31                     32                     33
                      A                      A                      A
 Frequencies --   1516.7048              1869.0185              2252.0795
 Red. masses --      1.0924                13.0086                 5.7252
 Frc consts  --      1.4806                26.7737                17.1083
 IR Inten    --     19.3672               528.9697                55.9289

                     34                     35                     36
                      A                      A                      A
 Frequencies --   3106.7241              3115.0391              3165.8066
 Red. masses --      1.0588                 1.0572                 1.1065
 Frc consts  --      6.0211                 6.0444                 6.5339
 IR Inten    --      1.1374                10.0834                 2.8204

                     37                     38                     39
                      A                      A                      A
 Frequencies --   3193.8513              3487.3315              3813.7424
 Red. masses --      1.1101                 1.1701                 1.0670
 Frc consts  --      6.6719                 8.3844                 9.1440
 IR Inten    --      6.3037                60.6674                70.1862

 - Thermochemistry -
 -------------------
 Temperature   298.150 Kelvin.  Pressure   1.00000 Atm.
 Atom     1 has atomic number  6 and mass  12.00000

 Molecular mass:   115.03952 amu.
 Principal axes and moments of inertia in atomic units:
                           1         2         3
     Eigenvalues --   540.870611790.772872189.91170
           X            0.99972   0.02191  -0.00846
           Y           -0.02192   0.99976  -0.00054
           Z            0.00845   0.00072   0.99996
 This molecule is an asymmetric top.
 Rotational symmetry number  1.
 Warning -- assumption of classical behavior for rotation
           may cause significant error
 Rotational temperatures (Kelvin)      0.16014     0.04837     0.03955
 Rotational constants (GHZ):           3.33673     1.00780     0.82412
    1 imaginary frequencies ignored.
 Zero-point vibrational energy     279320.8 (Joules/Mol)
                                   66.75928 (Kcal/Mol)
 Warning -- explicit consideration of  11 degrees of freedom as
           vibrations may cause significant error
 Vibrational temperatures:     81.88   101.06   156.42   176.96   230.06
          (Kelvin)            258.78   372.45   453.23   535.53   608.89
                              801.76   907.30   990.93  1060.18  1092.33
                             1106.75  1119.42  1160.67  1231.99  1456.77
                             1579.33  1614.49  1692.71  1793.04  1828.97
                             1929.12  1976.97  2034.05  2119.11  2182.20
                             2689.10  3240.24  4469.88  4481.85  4554.89
                             4595.24  5017.49  5487.12

 Zero-point correction=                           0.106388 (Hartree/Particle)
 Thermal correction to Energy=                    0.116076
 Thermal correction to Enthalpy=                  0.117021
 Thermal correction to Gibbs Free Energy=         0.070203
 Sum of electronic and zero-point Energies=           -419.3377843
 Sum of electronic and thermal Energies=              -420.072663
 Sum of electronic and thermal Enthalpies=            -420.071719
 Sum of electronic and thermal Free Energies=         -420.118536

                     E (Thermal)             CV                S
                      KCal/Mol        Cal/Mol-Kelvin    Cal/Mol-Kelvin
 Total                   72.839             32.883             98.536
 Electronic               0.000              0.000              1.377
 Translational            0.889              2.981             40.136
 Rotational               0.889              2.981             29.141
 Vibrational             71.062             26.922             27.882
 Vibration     1          0.596              1.975              4.562
 Vibration     2          0.598              1.968              4.147
 Vibration     3          0.606              1.942              3.292
 Vibration     4          0.610              1.930              3.053
 Vibration     5          0.622              1.891              2.551
 Vibration     6          0.629              1.867              2.330
 Vibration     7          0.668              1.748              1.669
 Vibration     8          0.702              1.645              1.336
 Vibration     9          0.744              1.529              1.071
 Vibration    10          0.785              1.420              0.881
 Vibration    11          0.913              1.124              0.529

 1\1\GINC-AJ\Freq\UM062X\6-311++G(d,p)\C5H7O3(2)\AAYUSH\02-Apr-2025\0\\
 # freq 6-311++g(d,p) m062x\\Title Card Required\\0,2\C,1.261296,2.2495
 42,-0.059297\H,1.185984,3.312073,-0.07427\C,1.352994,1.054163,-0.04229
 7\C,1.54578,-0.39699,0.007943\O,2.595659,-0.8835,0.299222\O,0.487409,-
 1.160038,-0.300769\C,-0.798567,-0.570681,-0.563094\C,-1.515547,-0.2625
 66,0.729611\H,-0.686181,0.320757,-1.181716\H,-1.332198,-1.327471,-1.13
 4337\H,-1.683968,-1.146769,1.343071\H,-1.075011,0.554088,1.301331\H,-2
 .622719,0.157748,0.386413\O,-3.804972,0.38797,-0.116709\H,-4.308463,-0

 Normal termination of Gaussian 16 at Wed Apr  2 04:50:30 2025.
