 Gaussian 16, Revision A.03,
 Gaussian 16:  ES64L-G16RevA.03 25-Dec-2016

 --------------------------
 # freq 6-311++g(d,p) m062x
 --------------------------

 -------------------
 Title Card Required
 -------------------
 Symbolic Z-matrix:
 Charge =  0 Multiplicity = 2

                         Standard orientation:
 ---------------------------------------------------------------------
 Center     Atomic      Atomic             Coordinates (Angstroms)
 Number     Number       Type             X           Y           Z
 ---------------------------------------------------------------------
      1          6           0        1.346387    2.236842   -0.067738
      2          1           0        1.271060    3.299333   -0.082596
      3          6           0        1.438086    1.041461   -0.050743
      4          6           0        1.630617   -0.409968   -0.000589
      5          8           0        2.680837   -0.896142    0.290853
      6          8           0        0.572885   -1.172733   -0.309517
      7          6           0       -0.712731   -0.583690   -0.570952
      8          6           0       -1.429812   -0.275057    0.721990
      9          1           0       -0.600785    0.307764   -1.189949
     10          1           0       -1.246672   -1.340202   -1.142565
     11          1           0       -1.589949   -1.161269    1.335176
     12          1           0       -0.975848    0.533367    1.295470
     13          1           0       -2.493394    0.140980    0.401800
     14          8           0       -3.725623    0.376434   -0.127560
     15          1           0       -4.224493   -0.297973    0.360657
 ---------------------------------------------------------------------

 SCF Done:  E(UM062X) =  -420.188408580     A.U. after   22 cycles

 The electronic state is 2-A.
 Alpha  occ. eigenvalues --  -19.68773 -19.67468 -19.63230 -10.71144 -10.62112
 Alpha  occ. eigenvalues --  -10.58219 -10.57791 -10.57167  -1.25681  -1.17139
 Alpha  occ. eigenvalues --   -1.14269  -0.90006  -0.89676  -0.78434  -0.74354
 Alpha  occ. eigenvalues --   -0.64937  -0.62174  -0.60153  -0.58787  -0.56854
 Alpha  occ. eigenvalues --   -0.54258  -0.53160  -0.49450  -0.48676  -0.43842
 Alpha  occ. eigenvalues --   -0.42970  -0.40895  -0.39568  -0.38395  -0.37056
 Alpha  occ. eigenvalues --   -0.36554
 Alpha virt. eigenvalues --   -0.02521  -0.01305   0.00012   0.01209   0.01984
 Alpha virt. eigenvalues --    0.02344   0.03870   0.04219   0.05192   0.06590
 Alpha virt. eigenvalues --    0.06967   0.07307   0.08105   0.09080   0.10330

  Beta  occ. eigenvalues --  -19.68716 -19.66158 -19.63224 -10.71145 -10.62124
  Beta  occ. eigenvalues --  -10.58218 -10.57791 -10.56830  -1.25570  -1.17053
  Beta  occ. eigenvalues --   -1.09042  -0.89807  -0.89025  -0.77712  -0.74004
  Beta  occ. eigenvalues --   -0.64742  -0.62054  -0.58859  -0.57419  -0.55010
  Beta  occ. eigenvalues --   -0.53837  -0.49578  -0.48307  -0.46198  -0.43369
  Beta  occ. eigenvalues --   -0.40286  -0.39950  -0.39138  -0.37809  -0.36727
  Beta virt. eigenvalues --   -0.12359  -0.02494  -0.01000   0.00101   0.01269
  Beta virt. eigenvalues --    0.02166   0.02586   0.03907   0.04273   0.05291
  Beta virt. eigenvalues --    0.06727   0.07060   0.07337   0.08230   0.09132

 Mulliken charges and spin densities:
               1          2
     1  C   -1.329716  -0.007736
     2  H    0.200917  -0.000223
     3  C    1.551035   0.000795
     4  C   -0.218557   0.006935
     5  O   -0.244509   0.002624
     6  O   -0.033794   0.011771
     7  C   -0.296179  -0.001519
     8  C   -0.507432   0.369464
     9  H    0.180843  -0.000456
    10  H    0.201735  -0.001200
    11  H    0.212810  -0.013257
    12  H    0.161329  -0.003234
    13  H    0.213102  -0.053092
    14  O   -0.338972   0.702590
    15  H    0.247387  -0.013462
 Sum of Mulliken charges =  -0.00000   1.00000

 Dipole moment (field-independent basis, Debye):
    X=             -3.3161    Y=              1.6570    Z=              0.4504  Tot=              3.7343
 Quadrupole moment (field-independent basis, Debye-Ang):
   XX=            -56.1117   YY=            -43.3812   ZZ=            -46.9991
   XY=             12.3530   XZ=             -5.4334   YZ=             -0.1305

  Exact polarizability: 102.263  -5.952  78.827   7.947  -2.062  51.395
 Approx polarizability:  96.095 -10.465 100.215   9.712  -3.618  60.696

 ******    1 imaginary frequencies (negative Signs) ******

                      1                      2                      3
                      A                      A                      A
 Frequencies --  -1008.0971                39.5473                53.4770
 Red. masses --      1.2771                 5.6629                 6.3648
 Frc consts  --      0.7647                 0.0052                 0.0107
 IR Inten    --   1504.3687                 6.5034                 3.1931

                      4                      5                      6
                      A                      A                      A
 Frequencies --     89.2406               108.6666               152.8853
 Red. masses --      3.5018                 3.5974                 1.1551
 Frc consts  --      0.0164                 0.0250                 0.0159
 IR Inten    --      2.1434                 0.4214               114.0455

                      7                      8                      9
                      A                      A                      A
 Frequencies --    180.2504               259.2523               300.8419
 Red. masses --      3.3419                 5.0293                 1.8555
 Frc consts  --      0.0640                 0.1992                 0.0989
 IR Inten    --      5.8178                 0.5539                 5.0580

                     10                     11                     12
                      A                      A                      A
 Frequencies --    369.1973               394.1339               555.8140
 Red. masses --      2.3058                 2.2694                 5.7169
 Frc consts  --      0.1852                 0.2077                 1.0406
 IR Inten    --      0.8701                 9.3619                28.8438

                     13                     14                     15
                      A                      A                      A
 Frequencies --    631.1988               736.1147               751.8175
 Red. masses --      5.6954                 1.3184                 2.4752
 Frc consts  --      1.3369                 0.4209                 0.8243
 IR Inten    --      1.4847                36.0875                19.4827

                     16                     17                     18
                      A                      A                      A
 Frequencies --    768.5424               769.3373               777.3731
 Red. masses --      1.7187                 4.2364                 1.2913
 Frc consts  --      0.5981                 1.4774                 0.4598
 IR Inten    --      6.5470                14.0687                44.4537

                     19                     20                     21
                      A                      A                      A
 Frequencies --    841.4049               906.6640              1023.1199
 Red. masses --      1.4278                 2.2497                 2.8540
 Frc consts  --      0.5956                 1.0896                 1.7602
 IR Inten    --     91.3346               247.5625               189.8050

                     22                     23                     24
                      A                      A                      A
 Frequencies --   1104.5097              1176.0305              1186.0869
 Red. masses --      4.1725                 1.9201                 1.3549
 Frc consts  --      2.9991                 1.5646                 1.1230
 IR Inten    --     52.2744               200.9764               317.4262

                     25                     26                     27
                      A                      A                      A
 Frequencies --   1253.2099              1300.7770              1341.3381
 Red. masses --      2.7210                 1.2646                 1.2402
 Frc consts  --      2.5178                 1.2607                 1.3147
 IR Inten    --    420.8686                17.1411                97.1988

                     28                     29                     30
                      A                      A                      A
 Frequencies --   1380.7499              1416.1239              1476.6623
 Red. masses --      1.0330                 1.3291                 1.1422
 Frc consts  --      1.1603                 1.5705                 1.4674
 IR Inten    --     13.5759                20.7157                 7.9009

                     31                     32                     33
                      A                      A                      A
 Frequencies --   1517.8331              1868.4228              2251.9804
 Red. masses --      1.0945                12.9649                 5.7264
 Frc consts  --      1.4857                26.6668                17.1105
 IR Inten    --     14.4861               512.5098                54.9902

                     34                     35                     36
                      A                      A                      A
 Frequencies --   3104.5684              3113.1687              3162.9886
 Red. masses --      1.0589                 1.0579                 1.1062
 Frc consts  --      6.0135                 6.0408                 6.5203
 IR Inten    --      0.4801                12.3646                 2.8261

                     37                     38                     39
                      A                      A                      A
 Frequencies --   3188.6601              3487.6478              3802.8282
 Red. masses --      1.1091                 1.1701                 1.0671
 Frc consts  --      6.6440                 8.3854                 9.0923
 IR Inten    --      8.1781                60.3406                62.4081

 - Thermochemistry -
 -------------------
 Temperature   298.150 Kelvin.  Pressure   1.00000 Atm.
 Atom     1 has atomic number  6 and mass  12.00000

 Molecular mass:   115.03952 amu.
 Principal axes and moments of inertia in atomic units:
                           1         2         3
     Eigenvalues --   541.059521792.312432191.32517
           X            0.99972   0.02198  -0.00851
           Y           -0.02199   0.99976  -0.00063
           Z            0.00849   0.00082   0.99996
 This molecule is an asymmetric top.
 Rotational symmetry number  1.
 Warning -- assumption of classical behavior for rotation
           may cause significant error
 Rotational temperatures (Kelvin)      0.16008     0.04833     0.03953
 Rotational constants (GHZ):           3.33557     1.00693     0.82358
    1 imaginary frequencies ignored.
 Zero-point vibrational energy     280180.2 (Joules/Mol)
                                   66.96467 (Kcal/Mol)
 Warning -- explicit consideration of  11 degrees of freedom as
           vibrations may cause significant error
 Vibrational temperatures:     56.90    76.94   128.40   156.35   219.97
          (Kelvin)            259.34   373.01   432.84   531.19   567.07
                              799.69   908.15  1059.10  1081.70  1105.76
                             1106.90  1118.47  1210.59  1304.49  1472.04
                             1589.14  1692.05  1706.51  1803.09  1871.53
                             1929.89  1986.59  2037.49  2124.59  2183.82
                             2688.24  3240.10  4466.78  4479.16  4550.84
                             4587.77  5017.95  5471.42

 Zero-point correction=                           0.106715 (Hartree/Particle)
 Thermal correction to Energy=                    0.116542
 Thermal correction to Enthalpy=                  0.117486
 Thermal correction to Gibbs Free Energy=         0.069718
 Sum of electronic and zero-point Energies=           -419.3381325
 Sum of electronic and thermal Energies=              -420.071866
 Sum of electronic and thermal Enthalpies=            -420.070922
 Sum of electronic and thermal Free Energies=         -420.118690

                     E (Thermal)             CV                S
                      KCal/Mol        Cal/Mol-Kelvin    Cal/Mol-Kelvin
 Total                   73.131             32.684            100.536
 Electronic               0.000              0.000              1.377
 Translational            0.889              2.981             40.136
 Rotational               0.889              2.981             29.143
 Vibrational             71.354             26.722             29.881
 Vibration     1          0.594              1.981              5.282
 Vibration     2          0.596              1.976              4.684
 Vibration     3          0.602              1.957              3.677
 Vibration     4          0.606              1.942              3.293
 Vibration     5          0.619              1.899              2.636
 Vibration     6          0.629              1.867              2.326
 Vibration     7          0.668              1.747              1.667
 Vibration     8          0.693              1.672              1.412
 Vibration     9          0.741              1.536              1.083
 Vibration    10          0.761              1.483              0.984
 Vibration    11          0.911              1.127              0.532

 1\1\GINC-AJ\Freq\UM062X\6-311++G(d,p)\C5H7O3(2)\AAYUSH\02-Apr-2025\0\\
 # freq 6-311++g(d,p) m062x\\Title Card Required\\0,2\C,1.26132657,2.24
 954891,-0.05930978\H,1.18599957,3.31203991,-0.07416778\C,1.35302557,1.
 05416791,-0.04231478\C,1.54555657,-0.39726109,0.00783922\O,2.59577657,
 -0.88343509,0.29928122\O,0.48782457,-1.16002609,-0.30108878\C,-0.79779
 143,-0.57098309,-0.56252378\C,-1.51487243,-0.26235009,0.73041822\H,-0.
 68584543,0.32047091,-1.18152078\H,-1.33173243,-1.32749509,-1.13413678\
 H,-1.67500943,-1.14856209,1.34360422\H,-1.06090843,0.54607391,1.303898

 Normal termination of Gaussian 16 at Wed Apr  2 08:06:15 2025.
