 Gaussian 16, Revision A.03,
 Gaussian 16:  ES64L-G16RevA.03 25-Dec-2016

 --------------------------
 # freq 6-311++g(d,p) m062x
 --------------------------

 -------------------
 Title Card Required
 -------------------
 Symbolic Z-matrix:
 Charge =  0 Multiplicity = 2

                         Standard orientation:
 ---------------------------------------------------------------------
 Center     Atomic      Atomic             Coordinates (Angstroms)
 Number     Number       Type             X           Y           Z
 ---------------------------------------------------------------------
      1          6           0        1.343276    2.238315   -0.067328
      2          1           0        1.267106    3.300681   -0.080890
      3          6           0        1.436059    1.042983   -0.051633
      4          6           0        1.629534   -0.408996   -0.003331
      5          8           0        2.681215   -0.893479    0.287292
      6          8           0        0.574223   -1.172053   -0.313216
      7          6           0       -0.711718   -0.584433   -0.569845
      8          6           0       -1.420053   -0.277869    0.728308
      9          1           0       -0.602207    0.307781   -1.188700
     10          1           0       -1.246733   -1.340080   -1.142057
     11          1           0       -1.566792   -1.170944    1.335546
     12          1           0       -0.926394    0.504314    1.306797
     13          1           0       -2.423045    0.151678    0.460322
     14          8           0       -3.747025    0.376960   -0.132798
     15          1           0       -4.231831   -0.304860    0.361745
 ---------------------------------------------------------------------

 SCF Done:  E(UM062X) =  -420.189195442     A.U. after   22 cycles

 The electronic state is 2-A.
 Alpha  occ. eigenvalues --  -19.68983 -19.68382 -19.62916 -10.70856 -10.61653
 Alpha  occ. eigenvalues --  -10.57969 -10.57560 -10.55864  -1.25374  -1.16813
 Alpha  occ. eigenvalues --   -1.15345  -0.89635  -0.89347  -0.78138  -0.74063
 Alpha  occ. eigenvalues --   -0.64554  -0.61925  -0.59833  -0.58459  -0.56874
 Alpha  occ. eigenvalues --   -0.54497  -0.53361  -0.49006  -0.48072  -0.44319
 Alpha  occ. eigenvalues --   -0.43371  -0.41355  -0.39452  -0.38752  -0.37295
 Alpha  occ. eigenvalues --   -0.36456
 Alpha virt. eigenvalues --   -0.02268  -0.01442   0.00060   0.01275   0.01997
 Alpha virt. eigenvalues --    0.02395   0.04003   0.04300   0.05302   0.06514
 Alpha virt. eigenvalues --    0.07112   0.07420   0.08247   0.09187   0.10344

  Beta  occ. eigenvalues --  -19.68348 -19.67524 -19.62913 -10.70856 -10.61662
  Beta  occ. eigenvalues --  -10.57968 -10.57560 -10.55629  -1.25308  -1.16761
  Beta  occ. eigenvalues --   -1.08899  -0.89554  -0.88832  -0.77604  -0.73811
  Beta  occ. eigenvalues --   -0.64438  -0.61831  -0.58542  -0.57220  -0.55178
  Beta  occ. eigenvalues --   -0.53423  -0.49540  -0.47898  -0.46253  -0.42986
  Beta  occ. eigenvalues --   -0.40964  -0.39852  -0.38868  -0.37510  -0.36464
  Beta virt. eigenvalues --   -0.12043  -0.02246  -0.01094   0.00132   0.01330
  Beta virt. eigenvalues --    0.02214   0.02573   0.04028   0.04347   0.05400
  Beta virt. eigenvalues --    0.06650   0.07205   0.07480   0.08357   0.09244

 Mulliken charges and spin densities:
               1          2
     1  C   -1.315518  -0.003555
     2  H    0.200230  -0.000137
     3  C    1.540542  -0.000277
     4  C   -0.224115   0.003733
     5  O   -0.247405   0.001561
     6  O   -0.034322   0.006653
     7  C   -0.302228  -0.000395
     8  C   -0.491885   0.239472
     9  H    0.176419  -0.001233
    10  H    0.199151  -0.000993
    11  H    0.206824  -0.009948
    12  H    0.150828   0.000772
    13  H    0.177440  -0.041732
    14  O   -0.286144   0.822781
    15  H    0.250183  -0.016700
 Sum of Mulliken charges =  -0.00000   1.00000

 Dipole moment (field-independent basis, Debye):
    X=             -3.9077    Y=              1.7480    Z=              0.3426  Tot=              4.2946
 Quadrupole moment (field-independent basis, Debye-Ang):
   XX=            -53.4714   YY=            -43.4892   ZZ=            -47.1304
   XY=             11.9528   XZ=             -5.0992   YZ=             -0.1643

  Exact polarizability:  96.408  -4.757  78.663   6.851  -1.814  51.133
 Approx polarizability:  90.761  -8.902  99.795   8.432  -3.217  60.191

 ******    3 imaginary frequencies (negative Signs) ******

                      1                      2                      3
                      A                      A                      A
 Frequencies --   -407.3517               -85.4276               -78.4026
 Red. masses --      2.0701                 4.3964                 4.4771
 Frc consts  --      0.2024                 0.0189                 0.0162
 IR Inten    --    222.2957                 4.2346                 7.7008

                      4                      5                      6
                      A                      A                      A
 Frequencies --     66.2526               102.2543               153.6176
 Red. masses --      6.2313                 3.5376                 1.2039
 Frc consts  --      0.0161                 0.0218                 0.0167
 IR Inten    --      3.2459                 0.1756                90.6085

                      7                      8                      9
                      A                      A                      A
 Frequencies --    171.7257               186.9711               260.1024
 Red. masses --      1.2955                 2.5569                 5.0376
 Frc consts  --      0.0225                 0.0527                 0.2008
 IR Inten    --     34.2746                 5.6816                 0.4381

                     10                     11                     12
                      A                      A                      A
 Frequencies --    349.6456               389.1384               548.3013
 Red. masses --      2.8778                 3.8427                 5.2672
 Frc consts  --      0.2073                 0.3428                 0.9330
 IR Inten    --      1.3994                 7.3915                27.3344

                     13                     14                     15
                      A                      A                      A
 Frequencies --    631.5178               696.0305               734.8079
 Red. masses --      5.6451                 1.2021                 1.3211
 Frc consts  --      1.3264                 0.3431                 0.4203
 IR Inten    --      1.6082               113.2012                36.4510

                     16                     17                     18
                      A                      A                      A
 Frequencies --    756.1780               769.5577               776.0730
 Red. masses --      3.3606                 8.9852                 1.3015
 Frc consts  --      1.1322                 3.1352                 0.4619
 IR Inten    --      1.4198                16.4163                46.9696

                     19                     20                     21
                      A                      A                      A
 Frequencies --    819.3833               931.9571              1088.6635
 Red. masses --      1.2586                 1.9320                 2.9108
 Frc consts  --      0.4979                 0.9886                 2.0326
 IR Inten    --     21.2944                15.1411                27.5200

                     22                     23                     24
                      A                      A                      A
 Frequencies --   1113.7062              1175.1148              1255.4558
 Red. masses --      4.8434                 1.9811                 2.8713
 Frc consts  --      3.5395                 1.6118                 2.6664
 IR Inten    --     67.1373                98.7560               373.1215

                     25                     26                     27
                      A                      A                      A
 Frequencies --   1334.3565              1343.2907              1393.7852
 Red. masses --      1.1940                 1.3248                 1.0406
 Frc consts  --      1.2525                 1.4084                 1.1911
 IR Inten    --     17.2736               139.0742                37.1717

                     28                     29                     30
                      A                      A                      A
 Frequencies --   1420.4899              1479.1186              1519.2822
 Red. masses --      1.3383                 1.1172                 1.0926
 Frc consts  --      1.5910                 1.4401                 1.4859
 IR Inten    --     23.3813                12.0820                24.2185

                     31                     32                     33
                      A                      A                      A
 Frequencies --   1866.3440              2126.6940              2251.6202
 Red. masses --     12.7709                 1.1178                 5.7239
 Frc consts  --     26.2092                 2.9787                17.0975
 IR Inten    --    610.5872              1284.8036                54.1513

                     34                     35                     36
                      A                      A                      A
 Frequencies --   3100.4148              3109.6527              3157.0550
 Red. masses --      1.0594                 1.0599                 1.1050
 Frc consts  --      5.9999                 6.0384                 6.4889
 IR Inten    --      0.0290                18.4969                 2.5506

                     37                     38                     39
                      A                      A                      A
 Frequencies --   3178.6042              3488.2878              3787.5592
 Red. masses --      1.1072                 1.1699                 1.0671
 Frc consts  --      6.5908                 8.3872                 9.0196
 IR Inten    --     12.7260                59.8831                50.7791

 - Thermochemistry -
 -------------------
 Temperature   298.150 Kelvin.  Pressure   1.00000 Atm.
 Atom     1 has atomic number  6 and mass  12.00000

 Molecular mass:   115.03952 amu.
 Principal axes and moments of inertia in atomic units:
                           1         2         3
     Eigenvalues --   541.938741798.773902197.25832
           X            0.99972   0.02202  -0.00857
           Y           -0.02203   0.99976  -0.00090
           Z            0.00855   0.00109   0.99996
 This molecule is an asymmetric top.
 Rotational symmetry number  1.
 Warning -- assumption of classical behavior for rotation
           may cause significant error
 Rotational temperatures (Kelvin)      0.15982     0.04815     0.03942
 Rotational constants (GHZ):           3.33016     1.00332     0.82136
    3 imaginary frequencies ignored.
 Zero-point vibrational energy     284310.5 (Joules/Mol)
                                   67.95185 (Kcal/Mol)
 Warning -- explicit consideration of   9 degrees of freedom as
           vibrations may cause significant error
 Vibrational temperatures:     95.32   147.12   221.02   247.08   269.01
          (Kelvin)            374.23   503.06   559.88   788.88   908.61
                             1001.43  1057.22  1087.97  1107.22  1116.60
                             1178.91  1340.88  1566.34  1602.37  1690.73
                             1806.32  1919.84  1932.70  2005.35  2043.77
                             2128.12  2185.91  2685.25  3059.84  3239.58
                             4460.81  4474.10  4542.30  4573.30  5018.87
                             5449.45

 Zero-point correction=                           0.108288 (Hartree/Particle)
 Thermal correction to Energy=                    0.116692
 Thermal correction to Enthalpy=                  0.117636
 Thermal correction to Gibbs Free Energy=         0.073768
 Sum of electronic and zero-point Energies=           -419.3397297
 Sum of electronic and thermal Energies=              -420.072503
 Sum of electronic and thermal Enthalpies=            -420.071559
 Sum of electronic and thermal Free Energies=         -420.115427

                     E (Thermal)             CV                S
                      KCal/Mol        Cal/Mol-Kelvin    Cal/Mol-Kelvin
 Total                   73.225             28.835             92.328
 Electronic               0.000              0.000              1.377
 Translational            0.889              2.981             40.136
 Rotational               0.889              2.981             29.150
 Vibrational             71.448             22.873             21.664
 Vibration     1          0.598              1.970              4.262
 Vibration     2          0.604              1.947              3.411
 Vibration     3          0.619              1.899              2.627
 Vibration     4          0.626              1.877              2.417
 Vibration     5          0.632              1.858              2.258
 Vibration     6          0.668              1.746              1.661
 Vibration     7          0.727              1.576              1.168
 Vibration     8          0.757              1.493              1.003
 Vibration     9          0.904              1.143              0.548

 1\1\GINC-AJ\Freq\UM062X\6-311++G(d,p)\C5H7O3(2)\AAYUSH\02-Apr-2025\0\\
 # freq 6-311++g(d,p) m062x\\Title Card Required\\0,2\C,1.261513,2.2494
 95,-0.059381\H,1.186345,3.311917,-0.074065\C,1.353167,1.054093,-0.0424
 17\C,1.545246,-0.398017,0.007496\O,2.596221,-0.88319,0.299518\O,0.4894
 94,-1.160398,-0.302551\C,-0.795674,-0.571835,-0.560886\C,-1.504854,-0.
 263321,0.736343\H,-0.684792,0.31966,-1.180531\H,-1.330895,-1.327552,-1
 .132814\H,-1.652956,-1.155654,1.34434\H,-1.010971,0.518977,1.314485\H,
 -2.507211,0.166894,0.467055\O,-3.830463,0.39282,-0.127444\H,-4.316336,

 Normal termination of Gaussian 16 at Wed Apr  2 08:17:42 2025.
