 Gaussian 16, Revision A.03,
 Gaussian 16:  ES64L-G16RevA.03 25-Dec-2016

 --------------------------
 # ccsd(t)/6-311++g(d,p) sp
 --------------------------

 -------------------
 Title Card Required
 -------------------
 Symbolic Z-matrix:
 Charge =  0 Multiplicity = 2

                         Standard orientation:
 ---------------------------------------------------------------------
 Center     Atomic      Atomic             Coordinates (Angstroms)
 Number     Number       Type             X           Y           Z
 ---------------------------------------------------------------------
      1          6           0        1.341390    2.239248   -0.067165
      2          1           0        1.264546    3.301552   -0.079889
      3          6           0        1.434952    1.043951   -0.052319
      4          6           0        1.629393   -0.408208   -0.005186
      5          8           0        2.681845   -0.891611    0.284940
      6          8           0        0.575468   -1.171874   -0.315893
      7          6           0       -0.711162   -0.584849   -0.569117
      8          6           0       -1.411132   -0.280035    0.733936
      9          1           0       -0.603274    0.307920   -1.187563
     10          1           0       -1.247291   -1.339993   -1.141033
     11          1           0       -1.556679   -1.177521    1.335203
     12          1           0       -0.894063    0.484918    1.315428
     13          1           0       -2.398396    0.166085    0.492425
     14          8           0       -3.760953    0.376738   -0.136206
     15          1           0       -4.236370   -0.309619    0.361806
 ---------------------------------------------------------------------

 SCF Done:  E(UHF) =  -417.968352189     A.U. after   35 cycles
 E2 =    -0.1271283067D+01 EUMP2 =    -0.41923963525670D+03
 CCSD(T)= -0.41934059189D+03

 The electronic state is 2-A.
 Alpha  occ. eigenvalues --  -20.65502 -20.60982 -20.55513 -11.41476 -11.30361
 Alpha  occ. eigenvalues --  -11.27371 -11.26674 -11.23397  -1.47564  -1.41580
 Alpha  occ. eigenvalues --   -1.38143  -1.07486  -1.05524  -0.92011  -0.87643
 Alpha  occ. eigenvalues --   -0.75647  -0.73598  -0.72645  -0.69883  -0.69239
 Alpha  occ. eigenvalues --   -0.65926  -0.63333  -0.58267  -0.57793  -0.55833
 Alpha  occ. eigenvalues --   -0.52065  -0.50755  -0.47769  -0.46301  -0.43053
 Alpha  occ. eigenvalues --   -0.42857
 Alpha virt. eigenvalues --    0.03157   0.03803   0.05604   0.06579   0.07176
 Alpha virt. eigenvalues --    0.07991   0.09115   0.09578   0.11498   0.12176
 Alpha virt. eigenvalues --    0.12956   0.13570   0.14821   0.15391   0.16414

  Beta  occ. eigenvalues --  -20.61467 -20.60943 -20.55516 -11.41475 -11.30398
  Beta  occ. eigenvalues --  -11.27368 -11.26677 -11.22868  -1.47510  -1.38107
  Beta  occ. eigenvalues --   -1.26529  -1.07485  -1.04670  -0.91408  -0.87147
  Beta  occ. eigenvalues --   -0.75572  -0.73117  -0.69388  -0.67294  -0.65952
  Beta  occ. eigenvalues --   -0.63286  -0.58081  -0.55747  -0.53902  -0.53147
  Beta  occ. eigenvalues --   -0.51134  -0.47921  -0.46325  -0.43066  -0.42871
  Beta virt. eigenvalues --    0.03045   0.03734   0.04955   0.05629   0.07145
  Beta virt. eigenvalues --    0.07902   0.08659   0.09123   0.09592   0.11560
  Beta virt. eigenvalues --    0.12201   0.13017   0.13656   0.14821   0.15443

 Mulliken charges and spin densities:
               1          2
     1  C   -1.727705   0.005838
     2  H    0.224868  -0.000129
     3  C    1.924470  -0.002492
     4  C   -0.064497  -0.002811
     5  O   -0.335013  -0.000662
     6  O   -0.145008   0.002879
     7  C   -0.182411  -0.014146
     8  C   -0.497721   0.192973
     9  H    0.147895  -0.000629
    10  H    0.179724   0.000802
    11  H    0.173935  -0.013133
    12  H    0.127269  -0.005955
    13  H    0.151735  -0.072029
    14  O   -0.234268   0.943165
    15  H    0.256727  -0.033672
 Sum of Mulliken charges =  -0.00000   1.00000

 Dipole moment (field-independent basis, Debye):
    X=             -5.0831    Y=              2.1822    Z=              0.1148  Tot=              5.5329
 Quadrupole moment (field-independent basis, Debye-Ang):
   XX=            -50.6904   YY=            -43.5539   ZZ=            -47.3844
   XY=             12.2812   XZ=             -4.9006   YZ=             -0.1696

 0=-419.2661671\MP4SDQ=-419.2888102\CCSD=-419.2873465\CCSD(T)=-419.3405
 Normal termination of Gaussian 16 at Sat May  3 01:02:36 2025.
