 Gaussian 16, Revision A.03,
 Gaussian 16:  ES64L-G16RevA.03 25-Dec-2016

 --------------------------
 # ccsd(t)/6-311++g(d,p) sp
 --------------------------

 -------------------
 Title Card Required
 -------------------
 Symbolic Z-matrix:
 Charge =  0 Multiplicity = 2

                         Standard orientation:
 ---------------------------------------------------------------------
 Center     Atomic      Atomic             Coordinates (Angstroms)
 Number     Number       Type             X           Y           Z
 ---------------------------------------------------------------------
      1          6           0        1.348208    2.236210   -0.068060
      2          1           0        1.273005    3.298803   -0.083791
      3          6           0        1.439763    1.040826   -0.050294
      4          6           0        1.632714   -0.409973    0.001009
      5          8           0        2.682028   -0.896812    0.292687
      6          8           0        0.573675   -1.173523   -0.307365
      7          6           0       -0.712903   -0.583659   -0.571392
      8          6           0       -1.425793   -0.276622    0.721969
      9          1           0       -0.599382    0.307263   -1.190128
     10          1           0       -1.245763   -1.341244   -1.141978
     11          1           0       -1.610774   -1.157262    1.334737
     12          1           0       -1.005049    0.551828    1.290219
     13          1           0       -2.636907    0.166861    0.333125
     14          8           0       -3.711266    0.373566   -0.122671
     15          1           0       -4.222564   -0.292792    0.357211
 ---------------------------------------------------------------------

 SCF Done:  E(UHF) =  -417.947929784     A.U. after   33 cycles
 E2 =    -0.1295480703D+01 EUMP2 =    -0.41924341048781D+03
 CCSD(T)= -0.41934129597D+03

 The electronic state is 2-A.
 Alpha  occ. eigenvalues --  -20.62445 -20.59922 -20.56553 -11.42475 -11.31995
 Alpha  occ. eigenvalues --  -11.28282 -11.28204 -11.27477  -1.48769  -1.39330
 Alpha  occ. eigenvalues --   -1.36711  -1.08394  -1.07898  -0.93424  -0.88882
 Alpha  occ. eigenvalues --   -0.76988  -0.74313  -0.72542  -0.70620  -0.67493
 Alpha  occ. eigenvalues --   -0.65415  -0.63013  -0.59653  -0.58055  -0.53571
 Alpha  occ. eigenvalues --   -0.52866  -0.49746  -0.48371  -0.44930  -0.43903
 Alpha  occ. eigenvalues --   -0.43514
 Alpha virt. eigenvalues --    0.03240   0.03889   0.05427   0.06756   0.07024
 Alpha virt. eigenvalues --    0.07600   0.08616   0.09289   0.11275   0.12135
 Alpha virt. eigenvalues --    0.12490   0.13141   0.14306   0.15015   0.15983

  Beta  occ. eigenvalues --  -20.62220 -20.57372 -20.56560 -11.42475 -11.32142
  Beta  occ. eigenvalues --  -11.28272 -11.27488 -11.26283  -1.48436  -1.39092
  Beta  occ. eigenvalues --   -1.28361  -1.08376  -1.04814  -0.91613  -0.87133
  Beta  occ. eigenvalues --   -0.76567  -0.73951  -0.70490  -0.67375  -0.65347
  Beta  occ. eigenvalues --   -0.64800  -0.58906  -0.57472  -0.53524  -0.52094
  Beta  occ. eigenvalues --   -0.49998  -0.48958  -0.47581  -0.43987  -0.43767
  Beta virt. eigenvalues --    0.02863   0.03337   0.04111   0.05458   0.06805
  Beta virt. eigenvalues --    0.07586   0.08269   0.08656   0.09495   0.11320
  Beta virt. eigenvalues --    0.12290   0.12531   0.13184   0.14341   0.15039

 Mulliken charges and spin densities:
               1          2
     1  C   -1.750061   0.011860
     2  H    0.228034  -0.000473
     3  C    1.938057  -0.009147
     4  C   -0.056349  -0.000575
     5  O   -0.325633  -0.002457
     6  O   -0.143583   0.021705
     7  C   -0.153022  -0.059383
     8  C   -0.525458   0.820757
     9  H    0.164571   0.004207
    10  H    0.193021   0.000492
    11  H    0.203230  -0.044909
    12  H    0.163562  -0.042864
    13  H    0.249629  -0.216005
    14  O   -0.435836   0.534110
    15  H    0.249838  -0.017318
 Sum of Mulliken charges =  -0.00000   1.00000

 Dipole moment (field-independent basis, Debye):
    X=             -2.9219    Y=              1.8185    Z=              0.5977  Tot=              3.4931
 Quadrupole moment (field-independent basis, Debye-Ang):
   XX=            -60.8097   YY=            -43.1195   ZZ=            -46.8166
   XY=             13.8467   XZ=             -6.2737   YZ=             -0.0671

 \PMP3-0=-419.2645848\MP4SDQ=-419.2879057\CCSD=-419.285842\CCSD(T)=-419
 Normal termination of Gaussian 16 at Sat May  3 02:41:13 2025.
