 Gaussian 16, Revision A.03,
 Gaussian 16:  ES64L-G16RevA.03 25-Dec-2016

 --------------------------
 # freq 6-311++g(d,p) m062x
 --------------------------

 -------------------
 Title Card Required
 -------------------
 Symbolic Z-matrix:
 Charge =  0 Multiplicity = 2

                         Standard orientation:
 ---------------------------------------------------------------------
 Center     Atomic      Atomic             Coordinates (Angstroms)
 Number     Number       Type             X           Y           Z
 ---------------------------------------------------------------------
      1          6           0        1.347573    2.236371   -0.067942
      2          1           0        1.272441    3.298929   -0.083370
      3          6           0        1.439056    1.040981   -0.050452
      4          6           0        1.631678   -0.410086    0.000433
      5          8           0        2.681278   -0.896780    0.292090
      6          8           0        0.573040   -1.173188   -0.308175
      7          6           0       -0.712953   -0.583573   -0.571325
      8          6           0       -1.429317   -0.275267    0.721281
      9          1           0       -0.600057    0.307581   -1.190136
     10          1           0       -1.246413   -1.340617   -1.142280
     11          1           0       -1.602186   -1.158360    1.334830
     12          1           0       -0.994144    0.544702    1.291972
     13          1           0       -2.561808    0.150255    0.366164
     14          8           0       -3.716997    0.375212   -0.124952
     15          1           0       -4.222624   -0.294997    0.359142
 ---------------------------------------------------------------------

 SCF Done:  E(UM062X) =  -420.189264204     A.U. after   20 cycles

 The electronic state is 2-A.
 Alpha  occ. eigenvalues --  -19.69115 -19.66096 -19.63489 -10.71385 -10.62484
 Alpha  occ. eigenvalues --  -10.58425 -10.58184 -10.57983  -1.25966  -1.17423
 Alpha  occ. eigenvalues --   -1.13415  -0.90305  -0.89905  -0.78621  -0.74572
 Alpha  occ. eigenvalues --   -0.65270  -0.62369  -0.60303  -0.59088  -0.57060
 Alpha  occ. eigenvalues --   -0.54531  -0.52186  -0.49841  -0.49179  -0.44182
 Alpha  occ. eigenvalues --   -0.41932  -0.40934  -0.39826  -0.38343  -0.37053
 Alpha  occ. eigenvalues --   -0.35528
 Alpha virt. eigenvalues --   -0.02734  -0.01219  -0.00026   0.01149   0.01959
 Alpha virt. eigenvalues --    0.02329   0.03755   0.04154   0.05104   0.06613
 Alpha virt. eigenvalues --    0.06869   0.07237   0.08002   0.08992   0.10294

  Beta  occ. eigenvalues --  -19.69033 -19.64981 -19.63481 -10.71386 -10.62501
  Beta  occ. eigenvalues --  -10.58425 -10.57983 -10.57745  -1.25806  -1.17299
  Beta  occ. eigenvalues --   -1.09187  -0.90013  -0.89145  -0.77764  -0.74131
  Beta  occ. eigenvalues --   -0.64986  -0.62237  -0.59120  -0.57606  -0.55082
  Beta  occ. eigenvalues --   -0.54151  -0.49759  -0.48630  -0.46132  -0.43697
  Beta  occ. eigenvalues --   -0.40452  -0.39687  -0.39197  -0.38058  -0.36942
  Beta virt. eigenvalues --   -0.12240  -0.02699  -0.00962   0.00074   0.01210
  Beta virt. eigenvalues --    0.02103   0.02627   0.03808   0.04216   0.05203
  Beta virt. eigenvalues --    0.06734   0.06941   0.07228   0.08130   0.09038

 Mulliken charges and spin densities:
               1          2
     1  C   -1.336310  -0.011896
     2  H    0.201664  -0.000300
     3  C    1.552946   0.002351
     4  C   -0.212762   0.009726
     5  O   -0.242052   0.003662
     6  O   -0.032180   0.017110
     7  C   -0.294563  -0.004525
     8  C   -0.513514   0.512045
     9  H    0.184676   0.000388
    10  H    0.203792  -0.001231
    11  H    0.218268  -0.017395
    12  H    0.168403  -0.008314
    13  H    0.245096  -0.065345
    14  O   -0.389976   0.572318
    15  H    0.246512  -0.008596
 Sum of Mulliken charges =  -0.00000   1.00000

 Dipole moment (field-independent basis, Debye):
    X=             -2.8230    Y=              1.5722    Z=              0.5557  Tot=              3.2787
 Quadrupole moment (field-independent basis, Debye-Ang):
   XX=            -58.3746   YY=            -43.2929   ZZ=            -46.9100
   XY=             12.7148   XZ=             -5.7595   YZ=             -0.0968

  Exact polarizability: 101.408  -5.815  78.772   7.556  -2.007  51.382
 Approx polarizability:  98.355 -11.157 100.393  10.099  -3.719  60.944

 ******    1 imaginary frequencies (negative Signs) ******

                      1                      2                      3
                      A                      A                      A
 Frequencies --  -1635.0067                59.2377                73.4851
 Red. masses --      1.0775                 5.8942                 6.6075
 Frc consts  --      1.6971                 0.0122                 0.0210
 IR Inten    --   1152.1202                 4.8945                 3.1071

                      4                      5                      6
                      A                      A                      A
 Frequencies --    111.2733               133.8560               165.7856
 Red. masses --      2.7670                 4.1310                 1.1976
 Frc consts  --      0.0202                 0.0436                 0.0194
 IR Inten    --      2.0086                 1.2257               109.1829

                      7                      8                      9
                      A                      A                      A
 Frequencies --    179.7217               258.6988               316.6193
 Red. masses --      3.2366                 5.0298                 3.1701
 Frc consts  --      0.0616                 0.1983                 0.1872
 IR Inten    --     10.5635                 0.6507                 6.2267

                     10                     11                     12
                      A                      A                      A
 Frequencies --    370.3745               439.4723               556.6303
 Red. masses --      4.5717                 1.2450                 6.5543
 Frc consts  --      0.3695                 0.1417                 1.1965
 IR Inten    --      1.8387                 6.2309                31.4873

                     13                     14                     15
                      A                      A                      A
 Frequencies --    628.9396               645.5618               737.1570
 Red. masses --      5.5843                 2.2475                 1.3188
 Frc consts  --      1.3015                 0.5519                 0.4222
 IR Inten    --      3.5485                25.4434                38.3587

                     16                     17                     18
                      A                      A                      A
 Frequencies --    760.8035               769.3357               778.3452
 Red. masses --      4.7972                 8.7238                 1.2886
 Frc consts  --      1.6360                 3.0422                 0.4599
 IR Inten    --     14.7672                18.6048                43.2908

                     19                     20                     21
                      A                      A                      A
 Frequencies --    799.9568               858.5744              1014.1907
 Red. masses --      1.2715                 1.3217                 1.7922
 Frc consts  --      0.4794                 0.5740                 1.0861
 IR Inten    --     57.5669                59.8390                23.3630

                     22                     23                     24
                      A                      A                      A
 Frequencies --   1093.5575              1112.5792              1175.6603
 Red. masses --      2.7120                 2.6972                 1.8982
 Frc consts  --      1.9109                 1.9671                 1.5458
 IR Inten    --     41.5963                52.4439               121.4321

                     25                     26                     27
                      A                      A                      A
 Frequencies --   1232.8994              1261.4410              1340.7248
 Red. masses --      1.3980                 2.1815                 1.2140
 Frc consts  --      1.2520                 2.0452                 1.2858
 IR Inten    --    143.0697               268.1451               107.7875

                     28                     29                     30
                      A                      A                      A
 Frequencies --   1385.1499              1412.8410              1471.5922
 Red. masses --      1.0385                 1.3179                 1.1614
 Frc consts  --      1.1739                 1.5500                 1.4818
 IR Inten    --     35.2960                24.8482                 8.3370

                     31                     32                     33
                      A                      A                      A
 Frequencies --   1516.3239              1869.2437              2252.0933
 Red. masses --      1.0920                13.0186                 5.7245
 Frc consts  --      1.4794                26.8007                17.1066
 IR Inten    --     20.4053               532.0156                56.3742

                     34                     35                     36
                      A                      A                      A
 Frequencies --   3107.8607              3116.1066              3166.9805
 Red. masses --      1.0590                 1.0567                 1.1066
 Frc consts  --      6.0265                 6.0454                 6.5394
 IR Inten    --      1.7068                 9.1525                 2.8419

                     37                     38                     39
                      A                      A                      A
 Frequencies --   3196.7198              3487.1627              3820.3336
 Red. masses --      1.1106                 1.1702                 1.0670
 Frc consts  --      6.6869                 8.3838                 9.1751
 IR Inten    --      5.5114                60.8380                73.1070

 - Thermochemistry -
 -------------------
 Temperature   298.150 Kelvin.  Pressure   1.00000 Atm.
 Atom     1 has atomic number  6 and mass  12.00000

 Molecular mass:   115.03952 amu.
 Principal axes and moments of inertia in atomic units:
                           1         2         3
     Eigenvalues --   540.822481790.342802189.52560
           X            0.99973   0.02186  -0.00844
           Y           -0.02186   0.99976  -0.00049
           Z            0.00842   0.00068   0.99996
 This molecule is an asymmetric top.
 Rotational symmetry number  1.
 Warning -- assumption of classical behavior for rotation
           may cause significant error
 Rotational temperatures (Kelvin)      0.16015     0.04838     0.03956
 Rotational constants (GHZ):           3.33703     1.00804     0.82426
    1 imaginary frequencies ignored.
 Zero-point vibrational energy     279192.2 (Joules/Mol)
                                   66.72854 (Kcal/Mol)
 Warning -- explicit consideration of  11 degrees of freedom as
           vibrations may cause significant error
 Vibrational temperatures:     85.23   105.73   160.10   192.59   238.53
          (Kelvin)            258.58   372.21   455.54   532.89   632.30
                              800.87   904.90   928.82  1060.60  1094.63
                             1106.90  1119.87  1150.96  1235.30  1459.19
                             1573.39  1600.75  1691.51  1773.87  1814.93
                             1929.00  1992.92  2032.76  2117.29  2181.65
                             2689.42  3240.26  4471.52  4483.38  4556.58
                             4599.37  5017.25  5496.61

 Zero-point correction=                           0.106339 (Hartree/Particle)
 Thermal correction to Energy=                    0.115991
 Thermal correction to Enthalpy=                  0.116935
 Thermal correction to Gibbs Free Energy=         0.070320
 Sum of electronic and zero-point Energies=           -419.3379937
 Sum of electronic and thermal Energies=              -420.073273
 Sum of electronic and thermal Enthalpies=            -420.072329
 Sum of electronic and thermal Free Energies=         -420.118944

                     E (Thermal)             CV                S
                      KCal/Mol        Cal/Mol-Kelvin    Cal/Mol-Kelvin
 Total                   72.785             32.941             98.109
 Electronic               0.000              0.000              1.377
 Translational            0.889              2.981             40.136
 Rotational               0.889              2.981             29.140
 Vibrational             71.008             26.979             27.456
 Vibration     1          0.597              1.974              4.482
 Vibration     2          0.599              1.967              4.058
 Vibration     3          0.607              1.940              3.247
 Vibration     4          0.613              1.920              2.890
 Vibration     5          0.624              1.885              2.483
 Vibration     6          0.629              1.867              2.331
 Vibration     7          0.668              1.748              1.671
 Vibration     8          0.703              1.642              1.328
 Vibration     9          0.742              1.533              1.078
 Vibration    10          0.800              1.384              0.828
 Vibration    11          0.912              1.125              0.531

 1\1\GINC-AJ\Freq\UM062X\6-311++G(d,p)\C5H7O3(2)\AAYUSH\02-Apr-2025\0\\
 # freq 6-311++g(d,p) m062x\\Title Card Required\\0,2\C,1.261288,2.2495
 4,-0.059296\H,1.185969,3.312091,-0.074293\C,1.352983,1.054159,-0.04229
 3\C,1.545868,-0.396894,0.007982\O,2.595621,-0.883519,0.299203\O,0.4872
 89,-1.160059,-0.300673\C,-0.798868,-0.570565,-0.563292\C,-1.514981,-0.
 262886,0.729603\H,-0.686271,0.320849,-1.181782\H,-1.332331,-1.327479,-
 1.134416\H,-1.687552,-1.146247,1.342849\H,-1.079816,0.556937,1.30051\H
 ,-2.647629,0.162578,0.374918\O,-3.802972,0.387526,-0.115839\H,-4.30836

 Normal termination of Gaussian 16 at Wed Apr  2 04:47:32 2025.
