 Gaussian 16, Revision A.03,
 Gaussian 16:  ES64L-G16RevA.03 25-Dec-2016

 --------------------------
 # ccsd(t)/6-311++g(d,p) sp
 --------------------------

 -------------------
 Title Card Required
 -------------------
 Symbolic Z-matrix:
 Charge =  0 Multiplicity = 2

                         Standard orientation:
 ---------------------------------------------------------------------
 Center     Atomic      Atomic             Coordinates (Angstroms)
 Number     Number       Type             X           Y           Z
 ---------------------------------------------------------------------
      1          6           0        1.340203    2.239831   -0.067076
      2          1           0        1.262908    3.302099   -0.079247
      3          6           0        1.434278    1.044559   -0.052812
      4          6           0        1.629400   -0.407686   -0.006465
      5          8           0        2.682316   -0.890394    0.283374
      6          8           0        0.576316   -1.171814   -0.317819
      7          6           0       -0.710879   -0.585032   -0.568563
      8          6           0       -1.404917   -0.281372    0.738043
      9          1           0       -0.604104    0.308122   -1.186683
     10          1           0       -1.247960   -1.339813   -1.140083
     11          1           0       -1.551491   -1.181836    1.334769
     12          1           0       -0.872542    0.471524    1.321668
     13          1           0       -2.383759    0.176673    0.512958
     14          8           0       -3.770208    0.376505   -0.138553
     15          1           0       -4.238958   -0.312936    0.361849
 ---------------------------------------------------------------------

 SCF Done:  E(UHF) =  -417.970164855     A.U. after   36 cycles
 E2 =    -0.1270220247D+01 EUMP2 =    -0.41924038510199D+03
 CCSD(T)= -0.41934115101D+03

 The electronic state is 2-A.
 Alpha  occ. eigenvalues --  -20.65563 -20.60975 -20.55504 -11.41469 -11.30348
 Alpha  occ. eigenvalues --  -11.27361 -11.26667 -11.23308  -1.47564  -1.41561
 Alpha  occ. eigenvalues --   -1.38135  -1.07477  -1.05482  -0.91993  -0.87626
 Alpha  occ. eigenvalues --   -0.75634  -0.73486  -0.72511  -0.69931  -0.69244
 Alpha  occ. eigenvalues --   -0.65937  -0.63304  -0.58301  -0.57798  -0.55803
 Alpha  occ. eigenvalues --   -0.52215  -0.50874  -0.47794  -0.46324  -0.43043
 Alpha  occ. eigenvalues --   -0.42850
 Alpha virt. eigenvalues --    0.03155   0.03804   0.05602   0.06568   0.07176
 Alpha virt. eigenvalues --    0.07999   0.09117   0.09576   0.11482   0.12169
 Alpha virt. eigenvalues --    0.12980   0.13587   0.14831   0.15389   0.16418

  Beta  occ. eigenvalues --  -20.61509 -20.60942 -20.55507 -11.41468 -11.30381
  Beta  occ. eigenvalues --  -11.27359 -11.26670 -11.22830  -1.47517  -1.38105
  Beta  occ. eigenvalues --   -1.26378  -1.07476  -1.04708  -0.91441  -0.87177
  Beta  occ. eigenvalues --   -0.75568  -0.73111  -0.69385  -0.67232  -0.65956
  Beta  occ. eigenvalues --   -0.63261  -0.58138  -0.55726  -0.54026  -0.53142
  Beta  occ. eigenvalues --   -0.51131  -0.47919  -0.46330  -0.43054  -0.42861
  Beta virt. eigenvalues --    0.03057   0.03739   0.04993   0.05629   0.07147
  Beta virt. eigenvalues --    0.07902   0.08668   0.09124   0.09588   0.11536
  Beta virt. eigenvalues --    0.12199   0.13037   0.13678   0.14831   0.15445

 Mulliken charges and spin densities:
               1          2
     1  C   -1.722346   0.005795
     2  H    0.225006  -0.000114
     3  C    1.917637  -0.002347
     4  C   -0.062916  -0.002920
     5  O   -0.335138  -0.000604
     6  O   -0.144593   0.002473
     7  C   -0.185429  -0.012977
     8  C   -0.492568   0.172593
     9  H    0.147873  -0.000901
    10  H    0.179658   0.000986
    11  H    0.173591  -0.012154
    12  H    0.125536  -0.004588
    13  H    0.148304  -0.063454
    14  O   -0.230855   0.952303
    15  H    0.256241  -0.034091
 Sum of Mulliken charges =  -0.00000   1.00000

 Dipole moment (field-independent basis, Debye):
    X=             -5.1016    Y=              2.1783    Z=              0.1201  Tot=              5.5485
 Quadrupole moment (field-independent basis, Debye-Ang):
   XX=            -50.6280   YY=            -43.5495   ZZ=            -47.3903
   XY=             12.2790   XZ=             -4.8918   YZ=             -0.1765

 578\PMP3-0=-419.267042\MP4SDQ=-419.289639\CCSD=-419.2880647\CCSD(T)=-4
 Normal termination of Gaussian 16 at Wed May 14 21:49:18 2025.
