 Gaussian 16, Revision A.03,
 Gaussian 16:  ES64L-G16RevA.03 25-Dec-2016

 --------------------------
 # ccsd(t)/6-311++g(d,p) sp
 --------------------------

 -------------------
 Title Card Required
 -------------------
 Symbolic Z-matrix:
 Charge =  0 Multiplicity = 2

                         Standard orientation:
 ---------------------------------------------------------------------
 Center     Atomic      Atomic             Coordinates (Angstroms)
 Number     Number       Type             X           Y           Z
 ---------------------------------------------------------------------
      1          6           0        1.348609    2.236178   -0.068139
      2          1           0        1.273231    3.298787   -0.084077
      3          6           0        1.440361    1.040810   -0.050193
      4          6           0        1.633749   -0.409750    0.001395
      5          8           0        2.682918   -0.896595    0.292988
      6          8           0        0.574488   -1.173806   -0.306754
      7          6           0       -0.712810   -0.583801   -0.571331
      8          6           0       -1.420806   -0.278543    0.723268
      9          1           0       -0.598789    0.306935   -1.190065
     10          1           0       -1.245013   -1.341966   -1.141690
     11          1           0       -1.618733   -1.156585    1.334660
     12          1           0       -1.014401    0.557910    1.288840
     13          1           0       -2.712350    0.185712    0.301150
     14          8           0       -3.706728    0.371708   -0.120436
     15          1           0       -4.223982   -0.290609    0.354799
 ---------------------------------------------------------------------

 SCF Done:  E(UHF) =  -417.956614609     A.U. after   32 cycles
 E2 =    -0.1296525786D+01 EUMP2 =    -0.41925314039475D+03
 CCSD(T)= -0.41934812524D+03

 The electronic state is 2-A.
 Alpha  occ. eigenvalues --  -20.62818 -20.57651 -20.56800 -11.42718 -11.32389
 Alpha  occ. eigenvalues --  -11.28764 -11.28501 -11.27674  -1.49091  -1.39625
 Alpha  occ. eigenvalues --   -1.35307  -1.08653  -1.08438  -0.93768  -0.89179
 Alpha  occ. eigenvalues --   -0.77343  -0.74517  -0.72472  -0.70922  -0.67809
 Alpha  occ. eigenvalues --   -0.65812  -0.61225  -0.60094  -0.58545  -0.53912
 Alpha  occ. eigenvalues --   -0.51231  -0.49902  -0.48677  -0.44562  -0.44095
 Alpha  occ. eigenvalues --   -0.43266
 Alpha virt. eigenvalues --    0.03191   0.03902   0.05363   0.06663   0.07108
 Alpha virt. eigenvalues --    0.07511   0.08487   0.09218   0.11186   0.12126
 Alpha virt. eigenvalues --    0.12379   0.13037   0.14169   0.14910   0.15871

  Beta  occ. eigenvalues --  -20.62534 -20.56809 -20.55992 -11.42718 -11.32565
  Beta  occ. eigenvalues --  -11.28489 -11.27687 -11.26527  -1.48667  -1.39324
  Beta  occ. eigenvalues --   -1.30051  -1.08590  -1.04855  -0.91684  -0.87025
  Beta  occ. eigenvalues --   -0.76802  -0.74150  -0.70761  -0.67684  -0.65905
  Beta  occ. eigenvalues --   -0.65134  -0.59208  -0.57872  -0.54785  -0.53263
  Beta  occ. eigenvalues --   -0.49517  -0.49155  -0.47949  -0.44210  -0.43984
  Beta virt. eigenvalues --    0.03117   0.03361   0.04125   0.05397   0.06688
  Beta virt. eigenvalues --    0.07505   0.08350   0.08539   0.09535   0.11220
  Beta virt. eigenvalues --    0.12297   0.12482   0.13118   0.14229   0.14945

 Mulliken charges and spin densities:
               1          2
     1  C   -1.749641   0.013646
     2  H    0.228899  -0.000567
     3  C    1.934786  -0.011123
     4  C   -0.053930   0.000553
     5  O   -0.323410  -0.003031
     6  O   -0.141521   0.028310
     7  C   -0.152500  -0.075863
     8  C   -0.538603   0.975791
     9  H    0.167932   0.004614
    10  H    0.196648   0.002286
    11  H    0.208479  -0.055448
    12  H    0.171156  -0.052486
    13  H    0.322060  -0.142067
    14  O   -0.517301   0.324939
    15  H    0.246946  -0.009555
 Sum of Mulliken charges =  -0.00000   1.00000

 Dipole moment (field-independent basis, Debye):
    X=             -2.3770    Y=              1.7258    Z=              0.7465  Tot=              3.0308
 Quadrupole moment (field-independent basis, Debye-Ang):
   XX=            -63.6141   YY=            -42.9953   ZZ=            -46.6894
   XY=             14.2662   XZ=             -6.7509   YZ=             -0.0237

 Normal termination of Gaussian 16 at Sun May  4 12:11:39 2025.
