 Gaussian 16, Revision A.03,
 Gaussian 16:  ES64L-G16RevA.03 25-Dec-2016

 --------------------------
 # ccsd(t)/6-311++g(d,p) sp
 --------------------------

 -------------------
 Title Card Required
 -------------------
 Symbolic Z-matrix:
 Charge =  0 Multiplicity = 2

                         Standard orientation:
 ---------------------------------------------------------------------
 Center     Atomic      Atomic             Coordinates (Angstroms)
 Number     Number       Type             X           Y           Z
 ---------------------------------------------------------------------
      1          6           0        1.348499    2.236176   -0.068115
      2          1           0        1.273190    3.298782   -0.083993
      3          6           0        1.440171    1.040802   -0.050221
      4          6           0        1.633402   -0.409837    0.001285
      5          8           0        2.682606   -0.896693    0.292917
      6          8           0        0.574199   -1.173715   -0.306940
      7          6           0       -0.712838   -0.583751   -0.571364
      8          6           0       -1.422652   -0.277830    0.722768
      9          1           0       -0.598976    0.307042   -1.190089
     10          1           0       -1.245270   -1.341712   -1.141784
     11          1           0       -1.616045   -1.156796    1.334694
     12          1           0       -1.011302    0.555920    1.289293
     13          1           0       -2.687274    0.179177    0.311680
     14          8           0       -3.708118    0.372354   -0.121176
     15          1           0       -4.223313   -0.291350    0.355671
 ---------------------------------------------------------------------

 SCF Done:  E(UHF) =  -417.953004310     A.U. after   32 cycles
 E2 =    -0.1296915751D+01 EUMP2 =    -0.41924992006119D+03
 CCSD(T)= -0.41934563226D+03

 The electronic state is 2-A.
 Alpha  occ. eigenvalues --  -20.62755 -20.58234 -20.56758 -11.42678 -11.32321
 Alpha  occ. eigenvalues --  -11.28725 -11.28463 -11.27639  -1.49036  -1.39573
 Alpha  occ. eigenvalues --   -1.35512  -1.08602  -1.08360  -0.93724  -0.89134
 Alpha  occ. eigenvalues --   -0.77277  -0.74476  -0.72416  -0.70854  -0.67725
 Alpha  occ. eigenvalues --   -0.65733  -0.61645  -0.60014  -0.58455  -0.53838
 Alpha  occ. eigenvalues --   -0.51594  -0.49882  -0.48623  -0.44640  -0.44063
 Alpha  occ. eigenvalues --   -0.43406
 Alpha virt. eigenvalues --    0.03202   0.03902   0.05376   0.06685   0.07088
 Alpha virt. eigenvalues --    0.07527   0.08513   0.09230   0.11202   0.12130
 Alpha virt. eigenvalues --    0.12400   0.13060   0.14195   0.14928   0.15893

  Beta  occ. eigenvalues --  -20.62486 -20.56766 -20.56299 -11.42678 -11.32488
  Beta  occ. eigenvalues --  -11.28451 -11.27652 -11.26573  -1.48636  -1.39290
  Beta  occ. eigenvalues --   -1.29351  -1.08553  -1.04891  -0.91697  -0.87105
  Beta  occ. eigenvalues --   -0.76769  -0.74119  -0.70718  -0.67585  -0.65538
  Beta  occ. eigenvalues --   -0.65081  -0.59159  -0.57800  -0.54228  -0.53008
  Beta  occ. eigenvalues --   -0.49514  -0.49140  -0.47884  -0.44170  -0.43946
  Beta virt. eigenvalues --    0.03022   0.03308   0.04104   0.05409   0.06712
  Beta virt. eigenvalues --    0.07520   0.08322   0.08561   0.09503   0.11239
  Beta virt. eigenvalues --    0.12305   0.12475   0.13126   0.14247   0.14959

 Mulliken charges and spin densities:
               1          2
     1  C   -1.749037   0.013088
     2  H    0.228788  -0.000536
     3  C    1.934965  -0.010536
     4  C   -0.054535   0.000171
     5  O   -0.323819  -0.002818
     6  O   -0.142059   0.026513
     7  C   -0.152256  -0.070723
     8  C   -0.534456   0.933118
     9  H    0.167379   0.004495
    10  H    0.195893   0.001656
    11  H    0.207740  -0.052231
    12  H    0.169470  -0.049569
    13  H    0.301398  -0.168293
    14  O   -0.496783   0.387530
    15  H    0.247311  -0.011864
 Sum of Mulliken charges =  -0.00000   1.00000

 Dipole moment (field-independent basis, Debye):
    X=             -2.4741    Y=              1.7406    Z=              0.7174  Tot=              3.1089
 Quadrupole moment (field-independent basis, Debye-Ang):
   XX=            -63.0745   YY=            -43.0187   ZZ=            -46.7091
   XY=             14.1846   XZ=             -6.6412   YZ=             -0.0387

 17\PMP3-0=-419.2689884\MP4SDQ=-419.293\CCSD=-419.2903787\CCSD(T)=-419.
 Normal termination of Gaussian 16 at Sat May  3 04:12:24 2025.
