 Gaussian 16, Revision A.03,
 Gaussian 16:  ES64L-G16RevA.03 25-Dec-2016

 --------------------------
 # ccsd(t)/6-311++g(d,p) sp
 --------------------------

 -------------------
 Title Card Required
 -------------------
 Symbolic Z-matrix:
 Charge =  0 Multiplicity = 2

                         Standard orientation:
 ---------------------------------------------------------------------
 Center     Atomic      Atomic             Coordinates (Angstroms)
 Number     Number       Type             X           Y           Z
 ---------------------------------------------------------------------
      1          6           0        1.342005    2.238944   -0.067214
      2          1           0        1.265386    3.301268   -0.080217
      3          6           0        1.435307    1.043635   -0.052083
      4          6           0        1.629415   -0.408472   -0.004560
      5          8           0        2.681621   -0.892229    0.285724
      6          8           0        0.575045   -1.171920   -0.314974
      7          6           0       -0.711330   -0.584728   -0.569370
      8          6           0       -1.414170   -0.279335    0.731983
      9          1           0       -0.602895    0.307853   -1.187965
     10          1           0       -1.247044   -1.340043   -1.141429
     11          1           0       -1.559718   -1.175343    1.335357
     12          1           0       -0.904807    0.491455    1.312458
     13          1           0       -2.406219    0.161100    0.481902
     14          8           0       -3.756308    0.376830   -0.135053
     15          1           0       -4.234937   -0.308001    0.361788
 ---------------------------------------------------------------------

 SCF Done:  E(UHF) =  -417.967348011     A.U. after   35 cycles
 E2 =    -0.1271897545D+01 EUMP2 =    -0.41923924555600D+03
 CCSD(T)= -0.41934030773D+03

 The electronic state is 2-A.
 Alpha  occ. eigenvalues --  -20.65463 -20.60987 -20.55521 -11.41481 -11.30372
 Alpha  occ. eigenvalues --  -11.27378 -11.26680 -11.23458  -1.47566  -1.41584
 Alpha  occ. eigenvalues --   -1.38149  -1.07493  -1.05547  -0.92021  -0.87653
 Alpha  occ. eigenvalues --   -0.75656  -0.73664  -0.72704  -0.69853  -0.69235
 Alpha  occ. eigenvalues --   -0.65922  -0.63352  -0.58244  -0.57792  -0.55852
 Alpha  occ. eigenvalues --   -0.52002  -0.50674  -0.47755  -0.46287  -0.43060
 Alpha  occ. eigenvalues --   -0.42863
 Alpha virt. eigenvalues --    0.03158   0.03802   0.05605   0.06585   0.07176
 Alpha virt. eigenvalues --    0.07986   0.09113   0.09579   0.11506   0.12179
 Alpha virt. eigenvalues --    0.12944   0.13560   0.14815   0.15391   0.16412

  Beta  occ. eigenvalues --  -20.61439 -20.60946 -20.55524 -11.41481 -11.30411
  Beta  occ. eigenvalues --  -11.27375 -11.26683 -11.22900  -1.47508  -1.38110
  Beta  occ. eigenvalues --   -1.26611  -1.07492  -1.04648  -0.91389  -0.87130
  Beta  occ. eigenvalues --   -0.75576  -0.73122  -0.69391  -0.67325  -0.65948
  Beta  occ. eigenvalues --   -0.63302  -0.58053  -0.55761  -0.53828  -0.53146
  Beta  occ. eigenvalues --   -0.51136  -0.47924  -0.46324  -0.43074  -0.42877
  Beta virt. eigenvalues --    0.03039   0.03731   0.04933   0.05630   0.07144
  Beta virt. eigenvalues --    0.07901   0.08653   0.09121   0.09594   0.11571
  Beta virt. eigenvalues --    0.12202   0.13007   0.13644   0.14814   0.15440

 Mulliken charges and spin densities:
               1          2
     1  C   -1.730636   0.005862
     2  H    0.224801  -0.000137
     3  C    1.927887  -0.002582
     4  C   -0.065033  -0.002738
     5  O   -0.334926  -0.000697
     6  O   -0.145258   0.003122
     7  C   -0.180767  -0.014834
     8  C   -0.500373   0.204843
     9  H    0.147965  -0.000479
    10  H    0.179778   0.000709
    11  H    0.174185  -0.013706
    12  H    0.128242  -0.006743
    13  H    0.153459  -0.077025
    14  O   -0.236287   0.937835
    15  H    0.256964  -0.033431
 Sum of Mulliken charges =  -0.00000   1.00000

 Dipole moment (field-independent basis, Debye):
    X=             -5.0691    Y=              2.1833    Z=              0.1132  Tot=              5.5205
 Quadrupole moment (field-independent basis, Debye-Ang):
   XX=            -50.7432   YY=            -43.5556   ZZ=            -47.3806
   XY=             12.2864   XZ=             -4.9074   YZ=             -0.1659

 PMP3-0=-419.2657048\MP4SDQ=-419.2883733\CCSD=-419.2869716\CCSD(T)=-419
 Normal termination of Gaussian 16 at Sat May  3 01:53:39 2025.
