 Gaussian 16, Revision A.03,
 Gaussian 16:  ES64L-G16RevA.03 25-Dec-2016

 --------------------------
 # ccsd(t)/6-311++g(d,p) sp
 --------------------------

 -------------------
 Title Card Required
 -------------------
 Symbolic Z-matrix:
 Charge =  0 Multiplicity = 2

                         Standard orientation:
 ---------------------------------------------------------------------
 Center     Atomic      Atomic             Coordinates (Angstroms)
 Number     Number       Type             X           Y           Z
 ---------------------------------------------------------------------
      1          6           0        1.347811    2.236302   -0.067985
      2          1           0        1.272668    3.298875   -0.083527
      3          6           0        1.439305    1.040913   -0.050392
      4          6           0        1.632025   -0.410060    0.000648
      5          8           0        2.681513   -0.896819    0.292324
      6          8           0        0.573229   -1.173306   -0.307879
      7          6           0       -0.712946   -0.583594   -0.571365
      8          6           0       -1.428287   -0.275667    0.721440
      9          1           0       -0.599825    0.307477   -1.190140
     10          1           0       -1.246210   -1.340817   -1.142178
     11          1           0       -1.605186   -1.157923    1.334789
     12          1           0       -0.998064    0.547247    1.291319
     13          1           0       -2.586738    0.155542    0.355045
     14          8           0       -3.714947    0.374686   -0.124186
     15          1           0       -4.222453   -0.294252    0.358547
 ---------------------------------------------------------------------

 SCF Done:  E(UHF) =  -417.947244900     A.U. after   32 cycles
 E2 =    -0.1291004734D+01 EUMP2 =    -0.41923824963435D+03
 CCSD(T)= -0.41933861744D+03

 The electronic state is 2-A.
 Alpha  occ. eigenvalues --  -20.61982 -20.61951 -20.56222 -11.42148 -11.31476
 Alpha  occ. eigenvalues --  -11.27994 -11.27218 -11.27083  -1.48344  -1.38952
 Alpha  occ. eigenvalues --   -1.38572  -1.08100  -1.07093  -0.92912  -0.88461
 Alpha  occ. eigenvalues --   -0.76546  -0.74140  -0.72935  -0.70237  -0.67274
 Alpha  occ. eigenvalues --   -0.65424  -0.64304  -0.59070  -0.57420  -0.54848
 Alpha  occ. eigenvalues --   -0.52892  -0.49521  -0.47982  -0.45286  -0.43636
 Alpha  occ. eigenvalues --   -0.43353
 Alpha virt. eigenvalues --    0.03271   0.03848   0.05499   0.06763   0.07025
 Alpha virt. eigenvalues --    0.07715   0.08776   0.09386   0.11381   0.12143
 Alpha virt. eigenvalues --    0.12626   0.13262   0.14473   0.15150   0.16111

  Beta  occ. eigenvalues --  -20.61778 -20.58853 -20.56229 -11.42147 -11.31596
  Beta  occ. eigenvalues --  -11.27986 -11.27227 -11.25481  -1.48093  -1.38758
  Beta  occ. eigenvalues --   -1.27920  -1.08093  -1.04593  -0.91420  -0.87024
  Beta  occ. eigenvalues --   -0.76227  -0.73674  -0.70116  -0.67194  -0.65721
  Beta  occ. eigenvalues --   -0.64331  -0.58495  -0.56938  -0.53017  -0.51567
  Beta  occ. eigenvalues --   -0.50971  -0.48555  -0.47095  -0.43696  -0.43482
  Beta virt. eigenvalues --    0.02883   0.03445   0.04183   0.05527   0.06931
  Beta virt. eigenvalues --    0.07684   0.08266   0.08808   0.09542   0.11440
  Beta virt. eigenvalues --    0.12255   0.12658   0.13289   0.14491   0.15171

 Mulliken charges and spin densities:
               1          2
     1  C   -1.753018   0.010325
     2  H    0.226732  -0.000402
     3  C    1.943589  -0.007437
     4  C   -0.058798  -0.001232
     5  O   -0.328487  -0.002097
     6  O   -0.145349   0.015884
     7  C   -0.155251  -0.046956
     8  C   -0.521419   0.670664
     9  H    0.159730   0.003563
    10  H    0.188701  -0.000194
    11  H    0.195293  -0.036613
    12  H    0.155098  -0.034555
    13  H    0.201375  -0.228496
    14  O   -0.361913   0.680368
    15  H    0.253715  -0.022822
 Sum of Mulliken charges =  -0.00000   1.00000

 Dipole moment (field-independent basis, Debye):
    X=             -3.6271    Y=              1.9475    Z=              0.4192  Tot=              4.1381
 Quadrupole moment (field-independent basis, Debye-Ang):
   XX=            -57.3987   YY=            -43.2801   ZZ=            -47.0032
   XY=             13.3295   XZ=             -5.7803   YZ=             -0.0916

 MP3-0=-419.2616939\MP4SDQ=-419.2845345\CCSD=-419.2832755\CCSD(T)=-419.
 Normal termination of Gaussian 16 at Sun May  4 12:58:18 2025.
