 Gaussian 16, Revision A.03,
 Gaussian 16:  ES64L-G16RevA.03 25-Dec-2016

 --------------------------
 # freq 6-311++g(d,p) m062x
 --------------------------

 -------------------
 Title Card Required
 -------------------
 Symbolic Z-matrix:
 Charge =  0 Multiplicity = 2

                         Standard orientation:
 ---------------------------------------------------------------------
 Center     Atomic      Atomic             Coordinates (Angstroms)
 Number     Number       Type             X           Y           Z
 ---------------------------------------------------------------------
      1          6           0        1.341390    2.239248   -0.067165
      2          1           0        1.264546    3.301552   -0.079889
      3          6           0        1.434952    1.043951   -0.052319
      4          6           0        1.629393   -0.408208   -0.005186
      5          8           0        2.681845   -0.891611    0.284940
      6          8           0        0.575468   -1.171874   -0.315893
      7          6           0       -0.711162   -0.584849   -0.569117
      8          6           0       -1.411132   -0.280035    0.733936
      9          1           0       -0.603274    0.307920   -1.187563
     10          1           0       -1.247291   -1.339993   -1.141033
     11          1           0       -1.556679   -1.177521    1.335203
     12          1           0       -0.894063    0.484918    1.315428
     13          1           0       -2.398396    0.166085    0.492425
     14          8           0       -3.760953    0.376738   -0.136206
     15          1           0       -4.236370   -0.309619    0.361806
 ---------------------------------------------------------------------

 SCF Done:  E(UM062X) =  -420.189993762     A.U. after   23 cycles

 The electronic state is 2-A.
 Alpha  occ. eigenvalues --  -19.69431 -19.68270 -19.62825 -10.70772 -10.61519
 Alpha  occ. eigenvalues --  -10.57895 -10.57493 -10.55491  -1.25291  -1.16720
 Alpha  occ. eigenvalues --   -1.15647  -0.89526  -0.89214  -0.78022  -0.73966
 Alpha  occ. eigenvalues --   -0.64442  -0.61844  -0.59627  -0.58371  -0.56962
 Alpha  occ. eigenvalues --   -0.54579  -0.53264  -0.48896  -0.47881  -0.44677
 Alpha  occ. eigenvalues --   -0.43344  -0.41696  -0.39484  -0.38763  -0.37279
 Alpha  occ. eigenvalues --   -0.36385
 Alpha virt. eigenvalues --   -0.02196  -0.01492   0.00074   0.01293   0.01996
 Alpha virt. eigenvalues --    0.02412   0.04038   0.04327   0.05335   0.06457
 Alpha virt. eigenvalues --    0.07169   0.07465   0.08300   0.09217   0.10336

  Beta  occ. eigenvalues --  -19.68243 -19.67935 -19.62823 -10.70772 -10.61526
  Beta  occ. eigenvalues --  -10.57895 -10.57493 -10.55290  -1.25238  -1.16679
  Beta  occ. eigenvalues --   -1.08792  -0.89478  -0.88759  -0.77562  -0.73749
  Beta  occ. eigenvalues --   -0.64348  -0.61764  -0.58451  -0.57145  -0.55205
  Beta  occ. eigenvalues --   -0.53293  -0.49595  -0.47768  -0.46224  -0.42877
  Beta  occ. eigenvalues --   -0.41242  -0.39777  -0.38786  -0.37422  -0.36387
  Beta virt. eigenvalues --   -0.11853  -0.02175  -0.01134   0.00142   0.01345
  Beta virt. eigenvalues --    0.02219   0.02574   0.04060   0.04373   0.05435
  Beta virt. eigenvalues --    0.06589   0.07258   0.07533   0.08404   0.09276

 Mulliken charges and spin densities:
               1          2
     1  C   -1.307406  -0.002252
     2  H    0.200161  -0.000108
     3  C    1.532497  -0.000558
     4  C   -0.225053   0.002715
     5  O   -0.248224   0.001245
     6  O   -0.034150   0.005195
     7  C   -0.305307  -0.000741
     8  C   -0.482974   0.201444
     9  H    0.175253  -0.001471
    10  H    0.198421  -0.000917
    11  H    0.205314  -0.008911
    12  H    0.146415   0.001864
    13  H    0.164903  -0.038109
    14  O   -0.271044   0.857835
    15  H    0.251193  -0.017229
 Sum of Mulliken charges =  -0.00000   1.00000

 Dipole moment (field-independent basis, Debye):
    X=             -4.0812    Y=              1.7688    Z=              0.3194  Tot=              4.4594
 Quadrupole moment (field-independent basis, Debye-Ang):
   XX=            -52.7189   YY=            -43.5199   ZZ=            -47.1754
   XY=             11.8531   XZ=             -5.0096   YZ=             -0.1761

  Exact polarizability:  92.827  -4.064  78.577   6.147  -1.672  51.002
 Approx polarizability:  88.668  -8.296  99.646   7.900  -3.037  60.011

 ******    3 imaginary frequencies (negative Signs) ******

                      1                      2                      3
                      A                      A                      A
 Frequencies --   -278.3121              -113.0572               -82.9459
 Red. masses --      1.9609                 2.8229                 5.5327
 Frc consts  --      0.0895                 0.0213                 0.0224
 IR Inten    --     83.1703                14.4375                 7.1264

                      4                      5                      6
                      A                      A                      A
 Frequencies --     63.9436                92.8227               127.1702
 Red. masses --      6.6830                 2.7671                 1.6770
 Frc consts  --      0.0161                 0.0140                 0.0160
 IR Inten    --      3.3927                 0.9805                 9.7906

                      7                      8                      9
                      A                      A                      A
 Frequencies --    159.8719               183.9281               260.6265
 Red. masses --      1.1174                 3.4649                 5.0396
 Frc consts  --      0.0168                 0.0691                 0.2017
 IR Inten    --    113.3005                 6.2791                 0.4158

                     10                     11                     12
                      A                      A                      A
 Frequencies --    349.1211               392.1041               546.3986
 Red. masses --      2.9925                 3.6136                 5.1230
 Frc consts  --      0.2149                 0.3273                 0.9011
 IR Inten    --      1.1781                 6.5336                28.8239

                     13                     14                     15
                      A                      A                      A
 Frequencies --    631.6004               652.6430               734.4007
 Red. masses --      5.5266                 1.1464                 1.3219
 Frc consts  --      1.2990                 0.2877                 0.4201
 IR Inten    --      1.5844               131.0123                36.7752

                     16                     17                     18
                      A                      A                      A
 Frequencies --    753.1091               769.8134               775.6707
 Red. masses --      3.9211                 8.8830                 1.3073
 Frc consts  --      1.3103                 3.1016                 0.4634
 IR Inten    --      0.4525                15.3501                48.0436

                     19                     20                     21
                      A                      A                      A
 Frequencies --    817.8552               924.6863              1093.6273
 Red. masses --      1.2229                 2.0026                 2.8175
 Frc consts  --      0.4819                 1.0089                 1.9854
 IR Inten    --     12.9290                13.7402                17.0155

                     22                     23                     24
                      A                      A                      A
 Frequencies --   1115.2520              1175.0900              1256.2742
 Red. masses --      4.8342                 1.9814                 2.8667
 Frc consts  --      3.5426                 1.6120                 2.6657
 IR Inten    --     71.0218                87.0194               373.3212

                     25                     26                     27
                      A                      A                      A
 Frequencies --   1338.5309              1351.9432              1410.6680
 Red. masses --      1.2258                 1.2984                 1.0961
 Frc consts  --      1.2939                 1.3983                 1.2851
 IR Inten    --     92.2146                57.7167                16.5744

                     28                     29                     30
                      A                      A                      A
 Frequencies --   1424.1493              1482.0630              1520.3426
 Red. masses --      1.2708                 1.1042                 1.0938
 Frc consts  --      1.5186                 1.4290                 1.4896
 IR Inten    --     26.3105                 7.9362                21.1348

                     31                     32                     33
                      A                      A                      A
 Frequencies --   1866.3624              2251.3460              2441.6945
 Red. masses --     12.9765                 5.7286                 1.0953
 Frc consts  --     26.6317                17.1072                 3.8473
 IR Inten    --    554.1627                52.3479               958.4504

                     34                     35                     36
                      A                      A                      A
 Frequencies --   3099.2228              3108.8140              3154.8888
 Red. masses --      1.0600                 1.0608                 1.1044
 Frc consts  --      5.9986                 6.0407                 6.4764
 IR Inten    --      0.1721                21.1167                 2.4399

                     37                     38                     39
                      A                      A                      A
 Frequencies --   3175.4442              3488.4519              3784.2111
 Red. masses --      1.1067                 1.1698                 1.0671
 Frc consts  --      6.5750                 8.3876                 9.0038
 IR Inten    --     14.3756                59.7831                48.3748

 - Thermochemistry -
 -------------------
 Temperature   298.150 Kelvin.  Pressure   1.00000 Atm.
 Atom     1 has atomic number  6 and mass  12.00000

 Molecular mass:   115.03952 amu.
 Principal axes and moments of inertia in atomic units:
                           1         2         3
     Eigenvalues --   542.617061803.497702201.54574
           X            0.99972   0.02200  -0.00860
           Y           -0.02201   0.99976  -0.00105
           Z            0.00857   0.00124   0.99996
 This molecule is an asymmetric top.
 Rotational symmetry number  1.
 Warning -- assumption of classical behavior for rotation
           may cause significant error
 Rotational temperatures (Kelvin)      0.15962     0.04803     0.03934
 Rotational constants (GHZ):           3.32599     1.00069     0.81976
    3 imaginary frequencies ignored.
 Zero-point vibrational energy     285752.8 (Joules/Mol)
                                   68.29656 (Kcal/Mol)
 Warning -- explicit consideration of   9 degrees of freedom as
           vibrations may cause significant error
 Vibrational temperatures:     92.00   133.55   182.97   230.02   264.63
          (Kelvin)            374.98   502.31   564.15   786.15   908.73
                              939.01  1056.64  1083.56  1107.59  1116.02
                             1176.71  1330.42  1573.49  1604.60  1690.69
                             1807.50  1925.85  1945.14  2029.64  2049.03
                             2132.36  2187.43  2685.28  3239.18  3513.05
                             4459.09  4472.89  4539.18  4568.76  5019.10
                             5444.64

 Zero-point correction=                           0.108838 (Hartree/Particle)
 Thermal correction to Energy=                    0.117354
 Thermal correction to Enthalpy=                  0.118298
 Thermal correction to Gibbs Free Energy=         0.074030
 Sum of electronic and zero-point Energies=           -420.081156
 Sum of electronic and thermal Energies=              -420.072640
 Sum of electronic and thermal Enthalpies=            -420.071696
 Sum of electronic and thermal Free Energies=         -420.115964

                     E (Thermal)             CV                S
                      KCal/Mol        Cal/Mol-Kelvin    Cal/Mol-Kelvin
 Total                   73.641             28.965             93.170
 Electronic               0.000              0.000              1.377
 Translational            0.889              2.981             40.136
 Rotational               0.889              2.981             29.156
 Vibrational             71.863             23.004             22.501
 Vibration     1          0.597              1.972              4.332
 Vibration     2          0.602              1.954              3.600
 Vibration     3          0.611              1.926              2.988
 Vibration     4          0.622              1.892              2.551
 Vibration     5          0.631              1.862              2.288
 Vibration     6          0.669              1.745              1.658
 Vibration     7          0.726              1.577              1.170
 Vibration     8          0.760              1.487              0.992
 Vibration     9          0.902              1.148              0.552

 1\1\GINC-AJ\Freq\UM062X\6-311++G(d,p)\C5H7O3(2)\AAYUSH\02-Apr-2025\0\\
 # freq 6-311++g(d,p) m062x\\Title Card Required\\0,2\C,1.261675,2.2494
 19,-0.059425\H,1.186551,3.311823,-0.073968\C,1.3533,1.054,-0.042521\C,
 1.545345,-0.398391,0.007233\O,2.596586,-0.883009,0.299714\O,0.490666,-
 1.160869,-0.303831\C,-0.794642,-0.572195,-0.559927\C,-1.496075,-0.2641
 7,0.741583\H,-0.684398,0.319406,-1.179642\H,-1.331121,-1.327399,-1.131
 435\H,-1.64396,-1.160455,1.344069\H,-0.978654,0.500889,1.322623\H,-2.4
 8226,0.183139,0.497875\O,-3.843535,0.39496,-0.133138\H,-4.320796,-0.28

 Normal termination of Gaussian 16 at Wed Apr  2 01:23:53 2025.
