 Gaussian 16, Revision A.03,
 Gaussian 16:  ES64L-G16RevA.03 25-Dec-2016

 --------------------------
 # freq 6-311++g(d,p) m062x
 --------------------------

 -------------------
 Title Card Required
 -------------------
 Symbolic Z-matrix:
 Charge =  0 Multiplicity = 2

                         Standard orientation:
 ---------------------------------------------------------------------
 Center     Atomic      Atomic             Coordinates (Angstroms)
 Number     Number       Type             X           Y           Z
 ---------------------------------------------------------------------
      1          6           0        1.348023    2.236247   -0.068025
      2          1           0        1.272857    3.298832   -0.083669
      3          6           0        1.439541    1.040861   -0.050340
      4          6           0        1.632371   -0.410023    0.000841
      5          8           0        2.681763   -0.896831    0.292525
      6          8           0        0.573441   -1.173418   -0.307610
      7          6           0       -0.712930   -0.583622   -0.571386
      8          6           0       -1.427121   -0.276112    0.721666
      9          1           0       -0.599600    0.307372   -1.190139
     10          1           0       -1.245994   -1.341025   -1.142077
     11          1           0       -1.608044   -1.157559    1.334759
     12          1           0       -1.001692    0.549621    1.290737
     13          1           0       -2.611774    0.161045    0.344032
     14          8           0       -3.713032    0.374139   -0.123425
     15          1           0       -4.222431   -0.293515    0.357902
 ---------------------------------------------------------------------

 SCF Done:  E(UM062X) =  -420.191289959     A.U. after   19 cycles

 The electronic state is 2-A.
 Alpha  occ. eigenvalues --  -19.69301 -19.65243 -19.63627 -10.71513 -10.62675
 Alpha  occ. eigenvalues --  -10.58667 -10.58533 -10.58085  -1.26125  -1.17577
 Alpha  occ. eigenvalues --   -1.13060  -0.90461  -0.90021  -0.78705  -0.74682
 Alpha  occ. eigenvalues --   -0.65454  -0.62473  -0.60434  -0.59276  -0.57246
 Alpha  occ. eigenvalues --   -0.54729  -0.51523  -0.50023  -0.49447  -0.44380
 Alpha  occ. eigenvalues --   -0.41395  -0.40963  -0.39978  -0.38405  -0.37153
 Alpha  occ. eigenvalues --   -0.34647
 Alpha virt. eigenvalues --   -0.02847  -0.01182  -0.00046   0.01114   0.01939
 Alpha virt. eigenvalues --    0.02340   0.03696   0.04119   0.05058   0.06623
 Alpha virt. eigenvalues --    0.06821   0.07213   0.07950   0.08951   0.10274

  Beta  occ. eigenvalues --  -19.69203 -19.64290 -19.63617 -10.71514 -10.62696
  Beta  occ. eigenvalues --  -10.58533 -10.58156 -10.58085  -1.25930  -1.17427
  Beta  occ. eigenvalues --   -1.09469  -0.90119  -0.89165  -0.77753  -0.74164
  Beta  occ. eigenvalues --   -0.65104  -0.62330  -0.59252  -0.57733  -0.55395
  Beta  occ. eigenvalues --   -0.54304  -0.49881  -0.48794  -0.46191  -0.43894
  Beta  occ. eigenvalues --   -0.40597  -0.39735  -0.39128  -0.38190  -0.37054
  Beta virt. eigenvalues --   -0.11943  -0.02806  -0.00959   0.00057   0.01175
  Beta virt. eigenvalues --    0.02062   0.02663   0.03758   0.04185   0.05154
  Beta virt. eigenvalues --    0.06722   0.06869   0.07171   0.08072   0.08991

 Mulliken charges and spin densities:
               1          2
     1  C   -1.340074  -0.014800
     2  H    0.202054  -0.000356
     3  C    1.553185   0.003848
     4  C   -0.208714   0.011316
     5  O   -0.240724   0.004343
     6  O   -0.030910   0.020873
     7  C   -0.294275  -0.007010
     8  C   -0.516744   0.614380
     9  H    0.186671   0.000988
    10  H    0.204829  -0.001051
    11  H    0.221145  -0.020665
    12  H    0.172165  -0.012096
    13  H    0.267159  -0.069170
    14  O   -0.422483   0.474453
    15  H    0.246715  -0.005053
 Sum of Mulliken charges =  -0.00000   1.00000

 Dipole moment (field-independent basis, Debye):
    X=             -2.5618    Y=              1.5263    Z=              0.6166  Tot=              3.0451
 Quadrupole moment (field-independent basis, Debye-Ang):
   XX=            -59.6146   YY=            -43.2467   ZZ=            -46.8713
   XY=             12.9195   XZ=             -5.9657   YZ=             -0.0698

  Exact polarizability:  99.772  -5.502  78.698   7.062  -1.919  51.333
 Approx polarizability:  97.856 -11.063 100.331   9.769  -3.607  60.915

 ******    1 imaginary frequencies (negative Signs) ******

                      1                      2                      3
                      A                      A                      A
 Frequencies --  -1707.3322                58.5900                72.9324
 Red. masses --      1.0705                 5.7462                 6.1987
 Frc consts  --      1.8385                 0.0116                 0.0194
 IR Inten    --    700.3462                 4.6521                 3.0813

                      4                      5                      6
                      A                      A                      A
 Frequencies --    109.1009               146.6233               177.1742
 Red. masses --      2.8059                 4.5379                 2.3626
 Frc consts  --      0.0197                 0.0575                 0.0437
 IR Inten    --      1.1960                 1.5486                22.3837

                      7                      8                      9
                      A                      A                      A
 Frequencies --    183.1568               258.3958               317.7474
 Red. masses --      1.3485                 5.0297                 3.5995
 Frc consts  --      0.0267                 0.1979                 0.2141
 IR Inten    --     96.4991                 0.7042                 7.2157

                     10                     11                     12
                      A                      A                      A
 Frequencies --    367.7446               460.1556               553.1607
 Red. masses --      4.9330                 1.2222                 6.1513
 Frc consts  --      0.3931                 0.1525                 1.1090
 IR Inten    --      1.9345                 5.6722                32.1944

                     13                     14                     15
                      A                      A                      A
 Frequencies --    599.3185               631.5886               737.6396
 Red. masses --      2.3748                 5.0865                 1.3180
 Frc consts  --      0.5026                 1.1955                 0.4225
 IR Inten    --      8.1458                 2.1622                38.4423

                     16                     17                     18
                      A                      A                      A
 Frequencies --    761.6720               769.4327               778.8189
 Red. masses --      4.6242                 7.9757                 1.2871
 Frc consts  --      1.5806                 2.7820                 0.4600
 IR Inten    --     16.2553                19.5588                42.8735

                     19                     20                     21
                      A                      A                      A
 Frequencies --    791.4619               849.7563              1005.6656
 Red. masses --      1.2608                 1.2756                 1.5362
 Frc consts  --      0.4653                 0.5427                 0.9154
 IR Inten    --     41.7661                44.2920                23.2559

                     22                     23                     24
                      A                      A                      A
 Frequencies --   1082.3391              1100.7680              1171.2510
 Red. masses --      2.4193                 4.6693                 1.7850
 Frc consts  --      1.6698                 3.3334                 1.4427
 IR Inten    --     27.4699                61.1974                91.8756

                     25                     26                     27
                      A                      A                      A
 Frequencies --   1193.2358              1255.7808              1340.2441
 Red. masses --      1.3088                 2.7651                 1.2055
 Frc consts  --      1.0979                 2.5691                 1.2758
 IR Inten    --     77.7706               360.8007               102.7454

                     28                     29                     30
                      A                      A                      A
 Frequencies --   1409.0738              1432.5872              1470.0764
 Red. masses --      1.2886                 1.0623                 1.1650
 Frc consts  --      1.5074                 1.2845                 1.4834
 IR Inten    --     26.7785                43.9881                 9.2724

                     31                     32                     33
                      A                      A                      A
 Frequencies --   1515.6995              1869.6459              2252.1260
 Red. masses --      1.0918                13.0297                 5.7236
 Frc consts  --      1.4778                26.8351                17.1041
 IR Inten    --     21.2179               531.9828                57.1199

                     34                     35                     36
                      A                      A                      A
 Frequencies --   3109.4226              3117.7158              3168.6593
 Red. masses --      1.0591                 1.0558                 1.1068
 Frc consts  --      6.0332                 6.0467                 6.5473
 IR Inten    --      2.5992                 8.0629                 2.8187

                     37                     38                     39
                      A                      A                      A
 Frequencies --   3201.5714              3486.9057              3833.8260
 Red. masses --      1.1114                 1.1702                 1.0668
 Frc consts  --      6.7119                 8.3830                 9.2382
 IR Inten    --      4.4509                61.1463                74.7780

 - Thermochemistry -
 -------------------
 Temperature   298.150 Kelvin.  Pressure   1.00000 Atm.
 Atom     1 has atomic number  6 and mass  12.00000

 Molecular mass:   115.03952 amu.
 Principal axes and moments of inertia in atomic units:
                           1         2         3
     Eigenvalues --   540.756041789.700932188.95836
           X            0.99973   0.02173  -0.00838
           Y           -0.02174   0.99976  -0.00042
           Z            0.00837   0.00060   0.99996
 This molecule is an asymmetric top.
 Rotational symmetry number  1.
 Warning -- assumption of classical behavior for rotation
           may cause significant error
 Rotational temperatures (Kelvin)      0.16017     0.04840     0.03957
 Rotational constants (GHZ):           3.33744     1.00840     0.82447
    1 imaginary frequencies ignored.
 Zero-point vibrational energy     278975.5 (Joules/Mol)
                                   66.67675 (Kcal/Mol)
 Warning -- explicit consideration of  12 degrees of freedom as
           vibrations may cause significant error
 Vibrational temperatures:     84.30   104.93   156.97   210.96   254.91
          (Kelvin)            263.52   371.77   457.17   529.10   662.06
                              795.87   862.29   908.72  1061.30  1095.88
                             1107.04  1120.55  1138.74  1222.61  1446.93
                             1557.24  1583.76  1685.17  1716.80  1806.79
                             1928.31  2027.34  2061.17  2115.11  2180.75
                             2690.00  3240.31  4473.77  4485.70  4558.99
                             4606.35  5016.88  5516.02

 Zero-point correction=                           0.106256 (Hartree/Particle)
 Thermal correction to Energy=                    0.115886
 Thermal correction to Enthalpy=                  0.116830
 Thermal correction to Gibbs Free Energy=         0.070317
 Sum of electronic and zero-point Energies=           -420.085034
 Sum of electronic and thermal Energies=              -420.075404
 Sum of electronic and thermal Enthalpies=            -420.074460
 Sum of electronic and thermal Free Energies=         -420.120973

                     E (Thermal)             CV                S
                      KCal/Mol        Cal/Mol-Kelvin    Cal/Mol-Kelvin
 Total                   72.719             33.037             97.894
 Electronic               0.000              0.000              1.377
 Translational            0.889              2.981             40.136
 Rotational               0.889              2.981             29.139
 Vibrational             70.942             27.076             27.242
 Vibration     1          0.596              1.974              4.504
 Vibration     2          0.599              1.967              4.073
 Vibration     3          0.606              1.942              3.285
 Vibration     4          0.617              1.906              2.716
 Vibration     5          0.628              1.870              2.358
 Vibration     6          0.631              1.863              2.296
 Vibration     7          0.667              1.749              1.673
 Vibration     8          0.704              1.640              1.322
 Vibration     9          0.740              1.539              1.089
 Vibration    10          0.818              1.338              0.766
 Vibration    11          0.909              1.133              0.538
 Vibration    12          0.957              1.033              0.451

 1\1\GINC-AJ\Freq\UM062X\6-311++G(d,p)\C5H7O3(2)\AAYUSH\02-Apr-2025\0\\
 # freq 6-311++g(d,p) m062x\\Title Card Required\\0,2\C,1.261272,2.2495
 36,-0.059292\H,1.185951,3.312118,-0.074334\C,1.352964,1.054153,-0.0422
 85\C,1.546014,-0.396731,0.008049\O,2.595556,-0.883549,0.299176\O,0.487
 107,-1.160108,-0.300525\C,-0.79942,-0.570351,-0.563623\C,-1.513297,-0.
 263649,0.729795\H,-0.686388,0.320997,-1.18192\H,-1.332535,-1.327518,-1
 .13458\H,-1.693925,-1.145456,1.342456\H,-1.087827,0.561834,1.299199\H,
 -2.698116,0.173546,0.352728\O,-3.799534,0.386739,-0.114307\H,-4.308705

 Normal termination of Gaussian 16 at Wed Apr  2 01:28:48 2025.
