 Gaussian 16, Revision A.03,
 Gaussian 16:  ES64L-G16RevA.03 25-Dec-2016

 --------------------------
 # ccsd(t)/6-311++g(d,p) sp
 --------------------------

 -------------------
 Title Card Required
 -------------------
 Symbolic Z-matrix:
 Charge =  0 Multiplicity = 2

                         Standard orientation:
 ---------------------------------------------------------------------
 Center     Atomic      Atomic             Coordinates (Angstroms)
 Number     Number       Type             X           Y           Z
 ---------------------------------------------------------------------
      1          6           0        1.343276    2.238315   -0.067328
      2          1           0        1.267106    3.300681   -0.080890
      3          6           0        1.436059    1.042983   -0.051633
      4          6           0        1.629534   -0.408996   -0.003331
      5          8           0        2.681215   -0.893479    0.287292
      6          8           0        0.574223   -1.172053   -0.313216
      7          6           0       -0.711718   -0.584433   -0.569845
      8          6           0       -1.420053   -0.277869    0.728308
      9          1           0       -0.602207    0.307781   -1.188700
     10          1           0       -1.246733   -1.340080   -1.142057
     11          1           0       -1.566792   -1.170944    1.335546
     12          1           0       -0.926394    0.504314    1.306797
     13          1           0       -2.423045    0.151678    0.460322
     14          8           0       -3.747025    0.376960   -0.132798
     15          1           0       -4.231831   -0.304860    0.361745
 ---------------------------------------------------------------------

 SCF Done:  E(UHF) =  -417.965111779     A.U. after   35 cycles
 E2 =    -0.1273326782D+01 EUMP2 =    -0.41923843856123D+03
 CCSD(T)= -0.41933972969D+03

 The electronic state is 2-A.
 Alpha  occ. eigenvalues --  -20.65358 -20.61006 -20.55542 -11.41498 -11.30405
 Alpha  occ. eigenvalues --  -11.27397 -11.26695 -11.23620  -1.47572  -1.41570
 Alpha  occ. eigenvalues --   -1.38166  -1.07512  -1.05601  -0.92046  -0.87680
 Alpha  occ. eigenvalues --   -0.75681  -0.73816  -0.72804  -0.69777  -0.69217
 Alpha  occ. eigenvalues --   -0.65920  -0.63400  -0.58184  -0.57792  -0.55903
 Alpha  occ. eigenvalues --   -0.51914  -0.50462  -0.47722  -0.46255  -0.43080
 Alpha  occ. eigenvalues --   -0.42879
 Alpha virt. eigenvalues --    0.03163   0.03801   0.05606   0.06599   0.07174
 Alpha virt. eigenvalues --    0.07974   0.09105   0.09577   0.11519   0.12184
 Alpha virt. eigenvalues --    0.12918   0.13540   0.14800   0.15388   0.16391

  Beta  occ. eigenvalues --  -20.61365 -20.60958 -20.55545 -11.41497 -11.30449
  Beta  occ. eigenvalues --  -11.27394 -11.26698 -11.22992  -1.47504  -1.38120
  Beta  occ. eigenvalues --   -1.26788  -1.07511  -1.04598  -0.91351  -0.87094
  Beta  occ. eigenvalues --   -0.75588  -0.73135  -0.69404  -0.67386  -0.65940
  Beta  occ. eigenvalues --   -0.63342  -0.57998  -0.55800  -0.53655  -0.53130
  Beta  occ. eigenvalues --   -0.51147  -0.47934  -0.46327  -0.43095  -0.42896
  Beta virt. eigenvalues --    0.03026   0.03723   0.04878   0.05629   0.07138
  Beta virt. eigenvalues --    0.07896   0.08632   0.09115   0.09599   0.11593
  Beta virt. eigenvalues --    0.12205   0.12983   0.13616   0.14799   0.15432

 Mulliken charges and spin densities:
               1          2
     1  C   -1.736970   0.005925
     2  H    0.224678  -0.000157
     3  C    1.934733  -0.002810
     4  C   -0.065636  -0.002542
     5  O   -0.334692  -0.000783
     6  O   -0.145840   0.003713
     7  C   -0.177226  -0.016488
     8  C   -0.505653   0.232848
     9  H    0.148264  -0.000144
    10  H    0.179950   0.000521
    11  H    0.174882  -0.015066
    12  H    0.130429  -0.008581
    13  H    0.156819  -0.088778
    14  O   -0.241149   0.925212
    15  H    0.257412  -0.032870
 Sum of Mulliken charges =  -0.00000   1.00000

 Dipole moment (field-independent basis, Debye):
    X=             -5.0290    Y=              2.1836    Z=              0.1129  Tot=              5.4837
 Quadrupole moment (field-independent basis, Debye-Ang):
   XX=            -50.9064   YY=            -43.5569   ZZ=            -47.3702
   XY=             12.3079   XZ=             -4.9282   YZ=             -0.1578

 99\PMP3-0=-419.2647281\MP4SDQ=-419.2874514\CCSD=-419.286187\CCSD(T)=-4
 Normal termination of Gaussian 16 at Sat May  3 00:11:41 2025.
