 Gaussian 16, Revision A.03,
 Gaussian 16:  ES64L-G16RevA.03 25-Dec-2016

 --------------------------
 # ccsd(t)/6-311++g(d,p) sp
 --------------------------

 -------------------
 Title Card Required
 -------------------
 Symbolic Z-matrix:
 Charge =  0 Multiplicity = 2

                         Standard orientation:
 ---------------------------------------------------------------------
 Center     Atomic      Atomic             Coordinates (Angstroms)
 Number     Number       Type             X           Y           Z
 ---------------------------------------------------------------------
      1          6           0        1.344592    2.237671   -0.067472
      2          1           0        1.268845    3.300082   -0.081599
      3          6           0        1.436867    1.042316   -0.051221
      4          6           0        1.629799   -0.409485   -0.002140
      5          8           0        2.680900   -0.894707    0.288845
      6          8           0        0.573481   -1.172265   -0.311572
      7          6           0       -0.712161   -0.584096   -0.570308
      8          6           0       -1.425354   -0.276410    0.725077
      9          1           0       -0.601603    0.307776   -1.189333
     10          1           0       -1.246656   -1.340075   -1.142456
     11          1           0       -1.575351   -1.166594    1.335559
     12          1           0       -0.947829    0.516871    1.301597
     13          1           0       -2.443703    0.143858    0.437678
     14          8           0       -3.737832    0.376970   -0.130605
     15          1           0       -4.228555   -0.301871    0.361594
 ---------------------------------------------------------------------

 SCF Done:  E(UHF) =  -417.962333527     A.U. after   35 cycles
 E2 =    -0.1275236858D+01 EUMP2 =    -0.41923757038442D+03
 CCSD(T)= -0.41933913144D+03

 The electronic state is 2-A.
 Alpha  occ. eigenvalues --  -20.65192 -20.61043 -20.55579 -11.41529 -11.30464
 Alpha  occ. eigenvalues --  -11.27430 -11.26722 -11.23883  -1.47591  -1.41502
 Alpha  occ. eigenvalues --   -1.38200  -1.07544  -1.05674  -0.92080  -0.87718
 Alpha  occ. eigenvalues --   -0.75724  -0.73986  -0.72891  -0.69687  -0.69159
 Alpha  occ. eigenvalues --   -0.65931  -0.63474  -0.58109  -0.57778  -0.55985
 Alpha  occ. eigenvalues --   -0.51888  -0.50160  -0.47678  -0.46204  -0.43111
 Alpha  occ. eigenvalues --   -0.42905
 Alpha virt. eigenvalues --    0.03173   0.03799   0.05604   0.06616   0.07168
 Alpha virt. eigenvalues --    0.07956   0.09089   0.09570   0.11528   0.12185
 Alpha virt. eigenvalues --    0.12889   0.13515   0.14779   0.15379   0.16357

  Beta  occ. eigenvalues --  -20.61246 -20.60985 -20.55583 -11.41528 -11.30515
  Beta  occ. eigenvalues --  -11.27427 -11.26726 -11.23162  -1.47510  -1.38143
  Beta  occ. eigenvalues --   -1.26995  -1.07543  -1.04533  -0.91306  -0.87050
  Beta  occ. eigenvalues --   -0.75612  -0.73159  -0.69432  -0.67436  -0.65932
  Beta  occ. eigenvalues --   -0.63404  -0.57951  -0.55863  -0.53423  -0.53078
  Beta  occ. eigenvalues --   -0.51163  -0.47955  -0.46346  -0.43129  -0.42928
  Beta virt. eigenvalues --    0.03013   0.03710   0.04799   0.05627   0.07128
  Beta virt. eigenvalues --    0.07884   0.08595   0.09101   0.09606   0.11609
  Beta virt. eigenvalues --    0.12210   0.12952   0.13580   0.14779   0.15419

 Mulliken charges and spin densities:
               1          2
     1  C   -1.743692   0.006092
     2  H    0.224602  -0.000183
     3  C    1.941277  -0.003159
     4  C   -0.065542  -0.002296
     5  O   -0.334306  -0.000907
     6  O   -0.146484   0.004568
     7  C   -0.173052  -0.018879
     8  C   -0.511115   0.271679
     9  H    0.148906   0.000287
    10  H    0.180319   0.000318
    11  H    0.176130  -0.016953
    12  H    0.133212  -0.011074
    13  H    0.159983  -0.105185
    14  O   -0.248031   0.907797
    15  H    0.257792  -0.032104
 Sum of Mulliken charges =  -0.00000   1.00000

 Dipole moment (field-independent basis, Debye):
    X=             -4.9584    Y=              2.1786    Z=              0.1196  Tot=              5.4172
 Quadrupole moment (field-independent basis, Debye-Ang):
   XX=            -51.2095   YY=            -43.5528   ZZ=            -47.3535
   XY=             12.3545   XZ=             -4.9661   YZ=             -0.1481

 696\PMP3-0=-419.2636353\MP4SDQ=-419.2864191\CCSD=-419.2853216\CCSD(T)=
 Normal termination of Gaussian 16 at Sun May  4 16:19:34 2025.
