 Gaussian 16, Revision A.03,
 Gaussian 16:  ES64L-G16RevA.03 25-Dec-2016

 --------------------------
 # freq 6-311++g(d,p) m062x
 --------------------------

 -------------------
 Title Card Required
 -------------------
 Symbolic Z-matrix:
 Charge =  0 Multiplicity = 2

                         Standard orientation:
 ---------------------------------------------------------------------
 Center     Atomic      Atomic             Coordinates (Angstroms)
 Number     Number       Type             X           Y           Z
 ---------------------------------------------------------------------
      1          6           0        1.343931    2.237993   -0.067396
      2          1           0        1.267978    3.300380   -0.081241
      3          6           0        1.436456    1.042649   -0.051422
      4          6           0        1.629644   -0.409249   -0.002731
      5          8           0        2.681043   -0.894100    0.288073
      6          8           0        0.573836   -1.172148   -0.312378
      7          6           0       -0.711934   -0.584266   -0.570075
      8          6           0       -1.422816   -0.277125    0.726623
      9          1           0       -0.601896    0.307772   -1.189031
     10          1           0       -1.246668   -1.340078   -1.142286
     11          1           0       -1.570878   -1.168747    1.335576
     12          1           0       -0.937172    0.510641    1.304129
     13          1           0       -2.432636    0.147458    0.449163
     14          8           0       -3.742406    0.376986   -0.131695
     15          1           0       -4.230200   -0.303342    0.361692
 ---------------------------------------------------------------------

 SCF Done:  E(UM062X) =  -420.188963376     A.U. after   22 cycles

 The electronic state is 2-A.
 Alpha  occ. eigenvalues --  -19.68788 -19.68431 -19.62957 -10.70893 -10.61713
 Alpha  occ. eigenvalues --  -10.58001 -10.57590 -10.56030  -1.25411  -1.16854
 Alpha  occ. eigenvalues --   -1.15208  -0.89684  -0.89398  -0.78185  -0.74104
 Alpha  occ. eigenvalues --   -0.64603  -0.61960  -0.59901  -0.58499  -0.56848
 Alpha  occ. eigenvalues --   -0.54445  -0.53393  -0.49060  -0.48153  -0.44168
 Alpha  occ. eigenvalues --   -0.43397  -0.41238  -0.39445  -0.38726  -0.37294
 Alpha  occ. eigenvalues --   -0.36486
 Alpha virt. eigenvalues --   -0.02301  -0.01422   0.00053   0.01267   0.01996
 Alpha virt. eigenvalues --    0.02388   0.03987   0.04288   0.05287   0.06533
 Alpha virt. eigenvalues --    0.07089   0.07403   0.08226   0.09173   0.10345

  Beta  occ. eigenvalues --  -19.68394 -19.67345 -19.62954 -10.70893 -10.61722
  Beta  occ. eigenvalues --  -10.58001 -10.57590 -10.55781  -1.25339  -1.16798
  Beta  occ. eigenvalues --   -1.08935  -0.89587  -0.88861  -0.77621  -0.73838
  Beta  occ. eigenvalues --   -0.64477  -0.61860  -0.58583  -0.57249  -0.55160
  Beta  occ. eigenvalues --   -0.53480  -0.49527  -0.47954  -0.46259  -0.43035
  Beta  occ. eigenvalues --   -0.40845  -0.39884  -0.38904  -0.37549  -0.36499
  Beta virt. eigenvalues --   -0.12112  -0.02278  -0.01079   0.00128   0.01323
  Beta virt. eigenvalues --    0.02210   0.02573   0.04013   0.04336   0.05385
  Beta virt. eigenvalues --    0.06670   0.07184   0.07459   0.08339   0.09230

 Mulliken charges and spin densities:
               1          2
     1  C   -1.318466  -0.004127
     2  H    0.200283  -0.000149
     3  C    1.543165  -0.000156
     4  C   -0.223461   0.004192
     5  O   -0.247036   0.001698
     6  O   -0.034373   0.007291
     7  C   -0.301124  -0.000341
     8  C   -0.494978   0.255661
     9  H    0.176975  -0.001137
    10  H    0.199470  -0.001020
    11  H    0.207522  -0.010376
    12  H    0.152514   0.000293
    13  H    0.182560  -0.043048
    14  O   -0.292808   0.807635
    15  H    0.249756  -0.016416
 Sum of Mulliken charges =  -0.00000   1.00000

 Dipole moment (field-independent basis, Debye):
    X=             -3.8312    Y=              1.7376    Z=              0.3544  Tot=              4.2217
 Quadrupole moment (field-independent basis, Debye-Ang):
   XX=            -53.8076   YY=            -43.4756   ZZ=            -47.1116
   XY=             12.0012   XZ=             -5.1398   YZ=             -0.1596

  Exact polarizability:  97.690  -5.011  78.697   7.104  -1.867  51.184
 Approx polarizability:  91.590  -9.144  99.857   8.638  -3.286  60.265

 ******    3 imaginary frequencies (negative Signs) ******

                      1                      2                      3
                      A                      A                      A
 Frequencies --   -458.9964               -76.3878               -68.9706
 Red. masses --      2.0336                 4.7220                 4.5513
 Frc consts  --      0.2524                 0.0162                 0.0128
 IR Inten    --    305.3352                 1.9679                 8.3306

                      4                      5                      6
                      A                      A                      A
 Frequencies --     67.6285               103.1424               155.1481
 Red. masses --      6.0011                 3.5402                 1.1649
 Frc consts  --      0.0162                 0.0222                 0.0165
 IR Inten    --      3.1717                 0.2061               108.1823

                      7                      8                      9
                      A                      A                      A
 Frequencies --    178.8484               200.3943               259.9501
 Red. masses --      2.3061                 1.3944                 5.0359
 Frc consts  --      0.0435                 0.0330                 0.2005
 IR Inten    --     12.6416                 9.3457                 0.4448

                     10                     11                     12
                      A                      A                      A
 Frequencies --    350.3971               388.7475               549.2946
 Red. masses --      2.8014                 3.9026                 5.3070
 Frc consts  --      0.2027                 0.3475                 0.9434
 IR Inten    --      1.4876                 7.6922                27.1534

                     13                     14                     15
                      A                      A                      A
 Frequencies --    631.4755               710.6120               734.9830
 Red. masses --      5.6518                 1.2580                 1.3209
 Frc consts  --      1.3278                 0.3743                 0.4204
 IR Inten    --      1.6081               102.6630                36.2141

                     16                     17                     18
                      A                      A                      A
 Frequencies --    758.1529               769.4756               776.2477
 Red. masses --      3.0051                 8.9269                 1.2997
 Frc consts  --      1.0177                 3.1142                 0.4614
 IR Inten    --      2.8514                16.7601                46.5709

                     19                     20                     21
                      A                      A                      A
 Frequencies --    820.7442               935.7180              1086.1630
 Red. masses --      1.2761                 1.9013                 2.9636
 Frc consts  --      0.5065                 0.9808                 2.0600
 IR Inten    --     26.7239                16.0486                35.1714

                     22                     23                     24
                      A                      A                      A
 Frequencies --   1112.8451              1175.1489              1255.0654
 Red. masses --      4.8511                 1.9796                 2.8650
 Frc consts  --      3.5396                 1.6107                 2.6589
 IR Inten    --     65.3174               104.2053               371.6442

                     25                     26                     27
                      A                      A                      A
 Frequencies --   1330.4780              1342.0864              1386.3992
 Red. masses --      1.2058                 1.3060                 1.0372
 Frc consts  --      1.2576                 1.3860                 1.1746
 IR Inten    --      8.5271               153.1984                50.5431

                     28                     29                     30
                      A                      A                      A
 Frequencies --   1419.6804              1477.8319              1518.8302
 Red. masses --      1.3397                 1.1223                 1.0919
 Frc consts  --      1.5909                 1.4441                 1.4841
 IR Inten    --     22.9270                15.3944                26.3576

                     31                     32                     33
                      A                      A                      A
 Frequencies --   1865.7987              1989.5194              2251.6927
 Red. masses --     11.8402                 1.1370                 5.7275
 Frc consts  --     24.2851                 2.6515                17.1092
 IR Inten    --    716.4489              1278.6263                53.8316

                     34                     35                     36
                      A                      A                      A
 Frequencies --   3100.9468              3110.0724              3157.9153
 Red. masses --      1.0592                 1.0595                 1.1052
 Frc consts  --      6.0012                 6.0380                 6.4938
 IR Inten    --      0.0286                17.5251                 2.6057

                     37                     38                     39
                      A                      A                      A
 Frequencies --   3179.9705              3488.2137              3789.1603
 Red. masses --      1.1074                 1.1699                 1.0671
 Frc consts  --      6.5979                 8.3870                 9.0272
 IR Inten    --     12.0386                59.9329                51.9243

 - Thermochemistry -
 -------------------
 Temperature   298.150 Kelvin.  Pressure   1.00000 Atm.
 Atom     1 has atomic number  6 and mass  12.00000

 Molecular mass:   115.03952 amu.
 Principal axes and moments of inertia in atomic units:
                           1         2         3
     Eigenvalues --   541.725961797.267512195.88051
           X            0.99972   0.02203  -0.00856
           Y           -0.02204   0.99976  -0.00085
           Z            0.00854   0.00104   0.99996
 This molecule is an asymmetric top.
 Rotational symmetry number  1.
 Warning -- assumption of classical behavior for rotation
           may cause significant error
 Rotational temperatures (Kelvin)      0.15989     0.04819     0.03944
 Rotational constants (GHZ):           3.33147     1.00416     0.82188
    3 imaginary frequencies ignored.
 Zero-point vibrational energy     283687.1 (Joules/Mol)
                                   67.80284 (Kcal/Mol)
 Warning -- explicit consideration of   9 degrees of freedom as
           vibrations may cause significant error
 Vibrational temperatures:     97.30   148.40   223.22   257.32   288.32
          (Kelvin)            374.01   504.14   559.32   790.31   908.55
                             1022.41  1057.48  1090.81  1107.10  1116.85
                             1180.87  1346.29  1562.75  1601.14  1690.78
                             1805.76  1914.26  1930.96  1994.72  2042.60
                             2126.27  2185.26  2684.47  2862.47  3239.68
                             4461.57  4474.70  4543.54  4575.27  5018.76
                             5451.76

 Zero-point correction=                           0.108051 (Hartree/Particle)
 Thermal correction to Energy=                    0.116407
 Thermal correction to Enthalpy=                  0.117351
 Thermal correction to Gibbs Free Energy=         0.073628
 Sum of electronic and zero-point Energies=           -420.080913
 Sum of electronic and thermal Energies=              -420.072556
 Sum of electronic and thermal Enthalpies=            -420.071612
 Sum of electronic and thermal Free Energies=         -420.115335

                     E (Thermal)             CV                S
                      KCal/Mol        Cal/Mol-Kelvin    Cal/Mol-Kelvin
 Total                   73.047             28.777             92.024
 Electronic               0.000              0.000              1.377
 Translational            0.889              2.981             40.136
 Rotational               0.889              2.981             29.149
 Vibrational             71.269             22.816             21.362
 Vibration     1          0.598              1.970              4.221
 Vibration     2          0.605              1.947              3.394
 Vibration     3          0.620              1.897              2.608
 Vibration     4          0.629              1.868              2.340
 Vibration     5          0.638              1.839              2.129
 Vibration     6          0.668              1.746              1.662
 Vibration     7          0.727              1.574              1.164
 Vibration     8          0.757              1.494              1.005
 Vibration     9          0.905              1.141              0.546

 1\1\GINC-AJ\Freq\UM062X\6-311++G(d,p)\C5H7O3(2)\AAYUSH\02-Apr-2025\0\\
 # freq 6-311++g(d,p) m062x\\Title Card Required\\0,2\C,1.261466,2.2495
 13,-0.059366\H,1.186277,3.311943,-0.074097\C,1.353131,1.054117,-0.0423
 9\C,1.545255,-0.397879,0.007572\O,2.596114,-0.883248,0.299461\O,0.4891
 13,-1.160272,-0.302183\C,-0.796067,-0.571681,-0.561203\C,-1.507598,-0.
 263015,0.734776\H,-0.684981,0.319792,-1.180786\H,-1.330954,-1.327563,-
 1.133178\H,-1.656701,-1.154052,1.344331\H,-1.021781,0.52486,1.311988\H
 ,-2.51693,0.162066,0.456306\O,-3.826148,0.392067,-0.125609\H,-4.314755

 Normal termination of Gaussian 16 at Wed Apr  2 04:41:46 2025.
