 Gaussian 16, Revision A.03,
 Gaussian 16:  ES64L-G16RevA.03 25-Dec-2016

 --------------------------
 # freq 6-311++g(d,p) m062x
 --------------------------

 -------------------
 Title Card Required
 -------------------
 Symbolic Z-matrix:
 Charge =  0 Multiplicity = 2

                         Standard orientation:
 ---------------------------------------------------------------------
 Center     Atomic      Atomic             Coordinates (Angstroms)
 Number     Number       Type             X           Y           Z
 ---------------------------------------------------------------------
      1          6           0        1.342005    2.238944   -0.067214
      2          1           0        1.265386    3.301268   -0.080217
      3          6           0        1.435307    1.043635   -0.052083
      4          6           0        1.629415   -0.408472   -0.004560
      5          8           0        2.681621   -0.892229    0.285724
      6          8           0        0.575045   -1.171920   -0.314974
      7          6           0       -0.711330   -0.584728   -0.569370
      8          6           0       -1.414170   -0.279335    0.731983
      9          1           0       -0.602895    0.307853   -1.187965
     10          1           0       -1.247044   -1.340043   -1.141429
     11          1           0       -1.559718   -1.175343    1.335357
     12          1           0       -0.904807    0.491455    1.312458
     13          1           0       -2.406219    0.161100    0.481902
     14          8           0       -3.756308    0.376830   -0.135053
     15          1           0       -4.234937   -0.308001    0.361788
 ---------------------------------------------------------------------

 SCF Done:  E(UM062X) =  -420.189714607     A.U. after   23 cycles

 The electronic state is 2-A.
 Alpha  occ. eigenvalues --  -19.69299 -19.68303 -19.62852 -10.70796 -10.61558
 Alpha  occ. eigenvalues --  -10.57917 -10.57512 -10.55600  -1.25316  -1.16748
 Alpha  occ. eigenvalues --   -1.15560  -0.89558  -0.89256  -0.78057  -0.73995
 Alpha  occ. eigenvalues --   -0.64475  -0.61868  -0.59696  -0.58396  -0.56932
 Alpha  occ. eigenvalues --   -0.54562  -0.53295  -0.48926  -0.47938  -0.44571
 Alpha  occ. eigenvalues --   -0.43344  -0.41585  -0.39474  -0.38766  -0.37286
 Alpha  occ. eigenvalues --   -0.36406
 Alpha virt. eigenvalues --   -0.02217  -0.01476   0.00070   0.01288   0.01996
 Alpha virt. eigenvalues --    0.02407   0.04028   0.04319   0.05325   0.06476
 Alpha virt. eigenvalues --    0.07151   0.07451   0.08284   0.09208   0.10339

  Beta  occ. eigenvalues --  -19.68274 -19.67814 -19.62849 -10.70797 -10.61566
  Beta  occ. eigenvalues --  -10.57916 -10.57512 -10.55389  -1.25258  -1.16703
  Beta  occ. eigenvalues --   -1.08828  -0.89500  -0.88781  -0.77574  -0.73767
  Beta  occ. eigenvalues --   -0.64374  -0.61783  -0.58477  -0.57169  -0.55200
  Beta  occ. eigenvalues --   -0.53331  -0.49574  -0.47807  -0.46234  -0.42908
  Beta  occ. eigenvalues --   -0.41160  -0.39799  -0.38810  -0.37448  -0.36410
  Beta virt. eigenvalues --   -0.11913  -0.02196  -0.01122   0.00139   0.01341
  Beta virt. eigenvalues --    0.02218   0.02573   0.04051   0.04365   0.05424
  Beta virt. eigenvalues --    0.06609   0.07241   0.07517   0.08389   0.09267

 Mulliken charges and spin densities:
               1          2
     1  C   -1.309964  -0.002633
     2  H    0.200175  -0.000117
     3  C    1.535172  -0.000472
     4  C   -0.224896   0.003004
     5  O   -0.247987   0.001339
     6  O   -0.034201   0.005625
     7  C   -0.304305  -0.000611
     8  C   -0.485899   0.212890
     9  H    0.175576  -0.001396
    10  H    0.198638  -0.000943
    11  H    0.205750  -0.009227
    12  H    0.147802   0.001540
    13  H    0.168717  -0.039326
    14  O   -0.275470   0.847416
    15  H    0.250894  -0.017087
 Sum of Mulliken charges =  -0.00000   1.00000

 Dipole moment (field-independent basis, Debye):
    X=             -4.0305    Y=              1.7631    Z=              0.3256  Tot=              4.4113
 Quadrupole moment (field-independent basis, Debye-Ang):
   XX=            -52.9374   YY=            -43.5109   ZZ=            -47.1620
   XY=             11.8804   XZ=             -5.0356   YZ=             -0.1725

  Exact polarizability:  93.978  -4.284  78.603   6.373  -1.717  51.043
 Approx polarizability:  89.317  -8.483  99.691   8.067  -3.094  60.067

 ******    3 imaginary frequencies (negative Signs) ******

                      1                      2                      3
                      A                      A                      A
 Frequencies --   -319.0326              -104.0027               -85.1813
 Red. masses --      2.0394                 3.2059                 5.1320
 Frc consts  --      0.1223                 0.0204                 0.0219
 IR Inten    --    118.6809                11.7080                 5.6157

                      4                      5                      6
                      A                      A                      A
 Frequencies --     64.5225                98.0235               135.7252
 Red. masses --      6.5482                 3.1695                 1.4344
 Frc consts  --      0.0161                 0.0179                 0.0156
 IR Inten    --      3.3346                 0.4163                15.4053

                      7                      8                      9
                      A                      A                      A
 Frequencies --    160.5333               183.9452               260.4408
 Red. masses --      1.1141                 3.4776                 5.0392
 Frc consts  --      0.0169                 0.0693                 0.2014
 IR Inten    --    108.8201                 5.8389                 0.4230

                     10                     11                     12
                      A                      A                      A
 Frequencies --    349.1347               390.8349               546.9172
 Red. masses --      2.9641                 3.6959                 5.1792
 Frc consts  --      0.2129                 0.3326                 0.9128
 IR Inten    --      1.2467                 6.8296                28.1669

                     13                     14                     15
                      A                      A                      A
 Frequencies --    631.5896               666.8452               734.5202
 Red. masses --      5.6041                 1.1546                 1.3217
 Frc consts  --      1.3171                 0.3025                 0.4201
 IR Inten    --      1.5653               126.4565                36.6853

                     16                     17                     18
                      A                      A                      A
 Frequencies --    753.8345               769.7270               775.7876
 Red. masses --      3.7883                 8.9407                 1.3053
 Frc consts  --      1.2684                 3.1210                 0.4629
 IR Inten    --      0.5326                15.7049                47.6996

                     19                     20                     21
                      A                      A                      A
 Frequencies --    818.1300               926.6039              1092.2347
 Red. masses --      1.2328                 1.9828                 2.8432
 Frc consts  --      0.4862                 1.0030                 1.9984
 IR Inten    --     14.9196                14.1577                19.4027

                     22                     23                     24
                      A                      A                      A
 Frequencies --   1114.8584              1175.1147              1256.0644
 Red. masses --      4.8357                 1.9817                 2.8707
 Frc consts  --      3.5412                 1.6123                 2.6685
 IR Inten    --     69.9206                90.3876               373.6502

                     25                     26                     27
                      A                      A                      A
 Frequencies --   1338.0599              1348.5446              1405.9564
 Red. masses --      1.2107                 1.3123                 1.0641
 Frc consts  --      1.2772                 1.4061                 1.2393
 IR Inten    --     74.4684                76.8264                21.7312

                     28                     29                     30
                      A                      A                      A
 Frequencies --   1422.5383              1481.1706              1520.0229
 Red. masses --      1.3114                 1.1083                 1.0935
 Frc consts  --      1.5636                 1.4326                 1.4886
 IR Inten    --     25.3010                 8.8703                21.9108

                     31                     32                     33
                      A                      A                      A
 Frequencies --   1866.3999              2251.4044              2348.1974
 Red. masses --     12.9571                 5.7232                 1.1011
 Frc consts  --     26.5930                17.0920                 3.5772
 IR Inten    --    564.2301                52.3124              1077.5722

                     34                     35                     36
                      A                      A                      A
 Frequencies --   3099.5344              3109.0122              3155.5546
 Red. masses --      1.0597                 1.0605                 1.1046
 Frc consts  --      5.9984                 6.0397                 6.4803
 IR Inten    --      0.1065                20.2489                 2.4631

                     37                     38                     39
                      A                      A                      A
 Frequencies --   3176.3528              3488.4067              3785.1531
 Red. masses --      1.1068                 1.1698                 1.0671
 Frc consts  --      6.5795                 8.3875                 9.0082
 IR Inten    --     13.8894                59.8104                49.0793

 - Thermochemistry -
 -------------------
 Temperature   298.150 Kelvin.  Pressure   1.00000 Atm.
 Atom     1 has atomic number  6 and mass  12.00000

 Molecular mass:   115.03952 amu.
 Principal axes and moments of inertia in atomic units:
                           1         2         3
     Eigenvalues --   542.386221801.897532200.09910
           X            0.99972   0.02201  -0.00859
           Y           -0.02202   0.99976  -0.00100
           Z            0.00856   0.00119   0.99996
 This molecule is an asymmetric top.
 Rotational symmetry number  1.
 Warning -- assumption of classical behavior for rotation
           may cause significant error
 Rotational temperatures (Kelvin)      0.15969     0.04807     0.03937
 Rotational constants (GHZ):           3.32741     1.00158     0.82030
    3 imaginary frequencies ignored.
 Zero-point vibrational energy     285319.5 (Joules/Mol)
                                   68.19300 (Kcal/Mol)
 Warning -- explicit consideration of   9 degrees of freedom as
           vibrations may cause significant error
 Vibrational temperatures:     92.83   141.03   195.28   230.97   264.66
          (Kelvin)            374.72   502.33   562.32   786.89   908.72
                              959.44  1056.81  1084.60  1107.47  1116.19
                             1177.11  1333.18  1571.48  1604.03  1690.73
                             1807.20  1925.17  1940.25  2022.86  2046.72
                             2131.07  2186.97  2685.33  3239.27  3378.53
                             4459.54  4473.18  4540.14  4570.06  5019.04
                             5445.99

 Zero-point correction=                           0.108672 (Hartree/Particle)
 Thermal correction to Energy=                    0.117156
 Thermal correction to Enthalpy=                  0.118100
 Thermal correction to Gibbs Free Energy=         0.073962
 Sum of electronic and zero-point Energies=           -420.081042
 Sum of electronic and thermal Energies=              -420.072559
 Sum of electronic and thermal Enthalpies=            -420.071615
 Sum of electronic and thermal Free Energies=         -420.115753

                     E (Thermal)             CV                S
                      KCal/Mol        Cal/Mol-Kelvin    Cal/Mol-Kelvin
 Total                   73.516             28.928             92.896
 Electronic               0.000              0.000              1.377
 Translational            0.889              2.981             40.136
 Rotational               0.889              2.981             29.154
 Vibrational             71.739             22.966             22.228
 Vibration     1          0.597              1.971              4.314
 Vibration     2          0.603              1.951              3.493
 Vibration     3          0.614              1.918              2.863
 Vibration     4          0.622              1.891              2.543
 Vibration     5          0.631              1.862              2.288
 Vibration     6          0.668              1.745              1.659
 Vibration     7          0.726              1.577              1.170
 Vibration     8          0.759              1.490              0.997
 Vibration     9          0.902              1.146              0.551

 1\1\GINC-AJ\Freq\UM062X\6-311++G(d,p)\C5H7O3(2)\AAYUSH\02-Apr-2025\0\\
 # freq 6-311++g(d,p) m062x\\Title Card Required\\0,2\C,1.261618,2.2494
 48,-0.05941\H,1.186482,3.311857,-0.074001\C,1.353251,1.054034,-0.04248
 3\C,1.545294,-0.398271,0.007327\O,2.596457,-0.88307,0.299645\O,0.49027
 2,-1.1607,-0.303376\C,-0.794963,-0.572094,-0.560254\C,-1.499056,-0.263
 906,0.739762\H,-0.6845,0.319468,-1.179959\H,-1.330982,-1.327472,-1.131
 943\H,-1.646617,-1.158865,1.344204\H,-0.989378,0.506995,1.319813\H,-2.
 490174,0.177544,0.487785\O,-3.839168,0.394268,-0.131212\H,-4.319381,-0

 Normal termination of Gaussian 16 at Wed Apr  2 04:59:16 2025.
