 Gaussian 16, Revision A.03,
 Gaussian 16:  ES64L-G16RevA.03 25-Dec-2016

 --------------------------
 # ccsd(t)/6-311++g(d,p) sp
 --------------------------

 -------------------
 Title Card Required
 -------------------
 Symbolic Z-matrix:
 Charge =  0 Multiplicity = 2

                         Standard orientation:
 ---------------------------------------------------------------------
 Center     Atomic      Atomic             Coordinates (Angstroms)
 Number     Number       Type             X           Y           Z
 ---------------------------------------------------------------------
      1          6           0        1.345887    2.237059   -0.067656
      2          1           0        1.270457    3.299524   -0.082292
      3          6           0        1.437716    1.041684   -0.050869
      4          6           0        1.630279   -0.409879   -0.001018
      5          8           0        2.680765   -0.895802    0.290308
      6          8           0        0.572948   -1.172566   -0.310078
      7          6           0       -0.712594   -0.583779   -0.570768
      8          6           0       -1.429284   -0.275225    0.722566
      9          1           0       -0.601044    0.307787   -1.189827
     10          1           0       -1.246692   -1.340114   -1.142611
     11          1           0       -1.585291   -1.162608    1.335353
     12          1           0       -0.968237    0.528771    1.297009
     13          1           0       -2.472677    0.139681    0.413888
     14          8           0       -3.729103    0.376734   -0.128505
     15          1           0       -4.225423   -0.299129    0.361159
 ---------------------------------------------------------------------

 SCF Done:  E(UHF) =  -417.958505752     A.U. after   35 cycles
 E2 =    -0.1278107777D+01 EUMP2 =    -0.41923661352883D+03
 CCSD(T)= -0.41933848298D+03

 The electronic state is 2-A.
 Alpha  occ. eigenvalues --  -20.64877 -20.61128 -20.55651 -11.41592 -11.30578
 Alpha  occ. eigenvalues --  -11.27493 -11.26776 -11.24359  -1.47651  -1.41294
 Alpha  occ. eigenvalues --   -1.38273  -1.07606  -1.05802  -0.92144  -0.87788
 Alpha  occ. eigenvalues --   -0.75810  -0.74146  -0.72981  -0.69637  -0.68934
 Alpha  occ. eigenvalues --   -0.65974  -0.63607  -0.58101  -0.57623  -0.56133
 Alpha  occ. eigenvalues --   -0.51957  -0.49768  -0.47620  -0.46098  -0.43170
 Alpha  occ. eigenvalues --   -0.42957
 Alpha virt. eigenvalues --    0.03194   0.03797   0.05597   0.06639   0.07154
 Alpha virt. eigenvalues --    0.07925   0.09055   0.09553   0.11525   0.12180
 Alpha virt. eigenvalues --    0.12852   0.13479   0.14743   0.15359   0.16316

  Beta  occ. eigenvalues --  -20.61054 -20.61018 -20.55655 -11.41591 -11.30640
  Beta  occ. eigenvalues --  -11.27489 -11.26780 -11.23495  -1.47546  -1.38199
  Beta  occ. eigenvalues --   -1.27251  -1.07604  -1.04456  -0.91258  -0.86994
  Beta  occ. eigenvalues --   -0.75668  -0.73209  -0.69496  -0.67453  -0.65931
  Beta  occ. eigenvalues --   -0.63514  -0.57936  -0.55985  -0.53106  -0.52934
  Beta  occ. eigenvalues --   -0.51177  -0.48004  -0.46402  -0.43194  -0.42990
  Beta virt. eigenvalues --    0.02997   0.03684   0.04668   0.05619   0.07108
  Beta virt. eigenvalues --    0.07859   0.08525   0.09070   0.09610   0.11611
  Beta virt. eigenvalues --    0.12215   0.12908   0.13529   0.14744   0.15392

 Mulliken charges and spin densities:
               1          2
     1  C   -1.750000   0.006592
     2  H    0.224673  -0.000223
     3  C    1.946677  -0.003774
     4  C   -0.064739  -0.002049
     5  O   -0.333588  -0.001111
     6  O   -0.146994   0.006020
     7  C   -0.167861  -0.022937
     8  C   -0.516608   0.334156
     9  H    0.150230   0.000925
    10  H    0.181197   0.000081
    11  H    0.178625  -0.019980
    12  H    0.137191  -0.014964
    13  H    0.162994  -0.131512
    14  O   -0.259748   0.879647
    15  H    0.257951  -0.030870
 Sum of Mulliken charges =  -0.00000   1.00000

 Dipole moment (field-independent basis, Debye):
    X=             -4.8174    Y=              2.1605    Z=              0.1430  Tot=              5.2816
 Quadrupole moment (field-independent basis, Debye-Ang):
   XX=            -51.8399   YY=            -43.5338   ZZ=            -47.3203
   XY=             12.4553   XZ=             -5.0451   YZ=             -0.1353

 03\PMP3-0=-419.2623479\MP4SDQ=-419.2851869\CCSD=-419.2842947\CCSD(T)=-
 Normal termination of Gaussian 16 at Sun May  4 14:40:44 2025.
