 Gaussian 16, Revision A.03,
 Gaussian 16:  ES64L-G16RevA.03 25-Dec-2016

 --------------------------
 # freq 6-311++g(d,p) m062x
 --------------------------

 -------------------
 Title Card Required
 -------------------
 Symbolic Z-matrix:
 Charge =  0 Multiplicity = 2

                         Standard orientation:
 ---------------------------------------------------------------------
 Center     Atomic      Atomic             Coordinates (Angstroms)
 Number     Number       Type             X           Y           Z
 ---------------------------------------------------------------------
      1          6           0        1.340203    2.239831   -0.067076
      2          1           0        1.262908    3.302099   -0.079247
      3          6           0        1.434278    1.044559   -0.052812
      4          6           0        1.629400   -0.407686   -0.006465
      5          8           0        2.682316   -0.890394    0.283374
      6          8           0        0.576316   -1.171814   -0.317819
      7          6           0       -0.710879   -0.585032   -0.568563
      8          6           0       -1.404917   -0.281372    0.738043
      9          1           0       -0.604104    0.308122   -1.186683
     10          1           0       -1.247960   -1.339813   -1.140083
     11          1           0       -1.551491   -1.181836    1.334769
     12          1           0       -0.872542    0.471524    1.321668
     13          1           0       -2.383759    0.176673    0.512958
     14          8           0       -3.770208    0.376505   -0.138553
     15          1           0       -4.238958   -0.312936    0.361849
 ---------------------------------------------------------------------

 SCF Done:  E(UM062X) =  -420.190575511     A.U. after   23 cycles

 The electronic state is 2-A.
 Alpha  occ. eigenvalues --  -19.69651 -19.68217 -19.62782 -10.70732 -10.61456
 Alpha  occ. eigenvalues --  -10.57860 -10.57460 -10.55315  -1.25251  -1.16676
 Alpha  occ. eigenvalues --   -1.15788  -0.89476  -0.89138  -0.77959  -0.73917
 Alpha  occ. eigenvalues --   -0.64387  -0.61803  -0.59492  -0.58332  -0.57019
 Alpha  occ. eigenvalues --   -0.54588  -0.53208  -0.48850  -0.47784  -0.44853
 Alpha  occ. eigenvalues --   -0.43373  -0.41891  -0.39502  -0.38751  -0.37264
 Alpha  occ. eigenvalues --   -0.36350
 Alpha virt. eigenvalues --   -0.02162  -0.01518   0.00081   0.01300   0.01995
 Alpha virt. eigenvalues --    0.02420   0.04053   0.04342   0.05350   0.06418
 Alpha virt. eigenvalues --    0.07201   0.07490   0.08329   0.09230   0.10327

  Beta  occ. eigenvalues --  -19.68193 -19.68138 -19.62780 -10.70733 -10.61463
  Beta  occ. eigenvalues --  -10.57860 -10.57460 -10.55132  -1.25204  -1.16639
  Beta  occ. eigenvalues --   -1.08723  -0.89440  -0.88720  -0.77540  -0.73719
  Beta  occ. eigenvalues --   -0.64303  -0.61731  -0.58407  -0.57103  -0.55209
  Beta  occ. eigenvalues --   -0.53228  -0.49636  -0.47701  -0.46202  -0.42827
  Beta  occ. eigenvalues --   -0.41378  -0.39741  -0.38748  -0.37379  -0.36350
  Beta virt. eigenvalues --   -0.11750  -0.02141  -0.01156   0.00146   0.01352
  Beta virt. eigenvalues --    0.02219   0.02575   0.04074   0.04387   0.05452
  Beta virt. eigenvalues --    0.06548   0.07286   0.07563   0.08429   0.09291

 Mulliken charges and spin densities:
               1          2
     1  C   -1.302734  -0.001603
     2  H    0.200158  -0.000092
     3  C    1.527149  -0.000716
     4  C   -0.224879   0.002242
     5  O   -0.248603   0.001084
     6  O   -0.034074   0.004476
     7  C   -0.307187  -0.001006
     8  C   -0.477440   0.181599
     9  H    0.174770  -0.001607
    10  H    0.198064  -0.000859
    11  H    0.204614  -0.008359
    12  H    0.143884   0.002425
    13  H    0.158300  -0.035677
    14  O   -0.263701   0.875546
    15  H    0.251679  -0.017454
 Sum of Mulliken charges =  -0.00000   1.00000

 Dipole moment (field-independent basis, Debye):
    X=             -4.1641    Y=              1.7767    Z=              0.3108  Tot=              4.5379
 Quadrupole moment (field-independent basis, Debye-Ang):
   XX=            -52.3663   YY=            -43.5345   ZZ=            -47.1981
   XY=             11.8130   XZ=             -4.9669   YZ=             -0.1828

  Exact polarizability:  90.732  -3.671  78.533   5.736  -1.594  50.933
 Approx polarizability:  87.521  -7.969  99.571   7.601  -2.935  59.916

 ******    3 imaginary frequencies (negative Signs) ******

                      1                      2                      3
                      A                      A                      A
 Frequencies --   -207.8463              -125.2985               -56.0413
 Red. masses --      1.6849                 2.5876                 5.7872
 Frc consts  --      0.0429                 0.0239                 0.0107
 IR Inten    --     28.9487                18.4263                14.6009

                      4                      5                      6
                      A                      A                      A
 Frequencies --     63.5581                80.3240               122.2717
 Red. masses --      7.0038                 2.6334                 2.2120
 Frc consts  --      0.0167                 0.0100                 0.0195
 IR Inten    --      3.6516                 2.7328                 8.3289

                      7                      8                      9
                      A                      A                      A
 Frequencies --    159.4093               184.3669               261.0186
 Red. masses --      1.1228                 3.4074                 5.0388
 Frc consts  --      0.0168                 0.0682                 0.2023
 IR Inten    --    114.5035                 6.7934                 0.4045

                     10                     11                     12
                      A                      A                      A
 Frequencies --    349.4321               395.6194               545.7025
 Red. masses --      3.0331                 3.4456                 4.9676
 Frc consts  --      0.2182                 0.3177                 0.8716
 IR Inten    --      1.0576                 5.9007                30.9674

                     13                     14                     15
                      A                      A                      A
 Frequencies --    625.6059               631.9900               734.2000
 Red. masses --      1.1579                 5.0552                 1.3222
 Frc consts  --      0.2670                 1.1896                 0.4199
 IR Inten    --    129.6284                 9.5921                36.9268

                     16                     17                     18
                      A                      A                      A
 Frequencies --    752.2553               769.9932               775.4795
 Red. masses --      4.1117                 8.7310                 1.3114
 Frc consts  --      1.3709                 3.0499                 0.4647
 IR Inten    --      0.4694                14.6507                48.6954

                     19                     20                     21
                      A                      A                      A
 Frequencies --    817.7034               922.1309              1095.9446
 Red. masses --      1.2071                 2.0313                 2.7733
 Frc consts  --      0.4755                 1.0177                 1.9625
 IR Inten    --     10.2638                12.9662                14.1873

                     22                     23                     24
                      A                      A                      A
 Frequencies --   1115.7929              1175.0605              1256.5767
 Red. masses --      4.8330                 1.9802                 2.8547
 Frc consts  --      3.5451                 1.6110                 2.6557
 IR Inten    --     72.7057                81.7614               371.7878

                     25                     26                     27
                      A                      A                      A
 Frequencies --   1338.6708              1358.4951              1416.5627
 Red. masses --      1.2452                 1.2832                 1.2115
 Frc consts  --      1.3147                 1.3953                 1.4323
 IR Inten    --    108.3249                39.9796                12.8637

                     28                     29                     30
                      A                      A                      A
 Frequencies --   1429.6022              1483.6770              1520.9069
 Red. masses --      1.1522                 1.0963                 1.0943
 Frc consts  --      1.3874                 1.4218                 1.4915
 IR Inten    --     24.4396                 6.7004                19.9550

                     31                     32                     33
                      A                      A                      A
 Frequencies --   1866.2702              2251.2098              2596.1958
 Red. masses --     12.9908                 5.7301                 1.0870
 Frc consts  --     26.6584                17.1098                 4.3166
 IR Inten    --    541.6163                52.2443               743.1230

                     34                     35                     36
                      A                      A                      A
 Frequencies --   3098.7985              3108.5970              3153.6919
 Red. masses --      1.0606                 1.0614                 1.1040
 Frc consts  --      6.0004                 6.0433                 6.4695
 IR Inten    --      0.3447                22.8619                 2.4441

                     37                     38                     39
                      A                      A                      A
 Frequencies --   3173.9521              3488.5206              3782.8275
 Red. masses --      1.1065                 1.1698                 1.0671
 Frc consts  --      6.5678                 8.3877                 8.9972
 IR Inten    --     15.1694                59.7440                47.0952

 - Thermochemistry -
 -------------------
 Temperature   298.150 Kelvin.  Pressure   1.00000 Atm.
 Atom     1 has atomic number  6 and mass  12.00000

 Molecular mass:   115.03952 amu.
 Principal axes and moments of inertia in atomic units:
                           1         2         3
     Eigenvalues --   543.089031806.743432204.46109
           X            0.99972   0.02198  -0.00862
           Y           -0.02199   0.99976  -0.00116
           Z            0.00859   0.00135   0.99996
 This molecule is an asymmetric top.
 Rotational symmetry number  1.
 Warning -- assumption of classical behavior for rotation
           may cause significant error
 Rotational temperatures (Kelvin)      0.15948     0.04794     0.03929
 Rotational constants (GHZ):           3.32310     0.99889     0.81868
    3 imaginary frequencies ignored.
 Zero-point vibrational energy     286520.1 (Joules/Mol)
                                   68.47994 (Kcal/Mol)
 Warning -- explicit consideration of   9 degrees of freedom as
           vibrations may cause significant error
 Vibrational temperatures:     91.45   115.57   175.92   229.35   265.26
          (Kelvin)            375.55   502.75   569.21   785.14   900.11
                              909.29  1056.35  1082.33  1107.85  1115.74
                             1176.49  1326.74  1576.82  1605.38  1690.65
                             1807.93  1926.05  1954.57  2038.12  2056.88
                             2134.68  2188.25  2685.15  3238.99  3735.35
                             4458.48  4472.58  4537.46  4566.61  5019.20
                             5442.64

 Zero-point correction=                           0.109130 (Hartree/Particle)
 Thermal correction to Energy=                    0.117689
 Thermal correction to Enthalpy=                  0.118634
 Thermal correction to Gibbs Free Energy=         0.074175
 Sum of electronic and zero-point Energies=           -420.081446
 Sum of electronic and thermal Energies=              -420.072886
 Sum of electronic and thermal Enthalpies=            -420.071942
 Sum of electronic and thermal Free Energies=         -420.116400

                     E (Thermal)             CV                S
                      KCal/Mol        Cal/Mol-Kelvin    Cal/Mol-Kelvin
 Total                   73.851             29.020             93.570
 Electronic               0.000              0.000              1.377
 Translational            0.889              2.981             40.136
 Rotational               0.889              2.981             29.160
 Vibrational             72.074             23.059             22.897
 Vibration     1          0.597              1.972              4.344
 Vibration     2          0.600              1.963              3.883
 Vibration     3          0.610              1.931              3.064
 Vibration     4          0.621              1.892              2.557
 Vibration     5          0.631              1.861              2.284
 Vibration     6          0.669              1.744              1.655
 Vibration     7          0.727              1.576              1.169
 Vibration     8          0.762              1.480              0.979
 Vibration     9          0.901              1.149              0.553

 1\1\GINC-AJ\Freq\UM062X\6-311++G(d,p)\C5H7O3(2)\AAYUSH\02-Apr-2025\0\\
 # freq 6-311++g(d,p) m062x\\Title Card Required\\0,2\C,1.261797,2.2493
 51,-0.059455\H,1.186688,3.311747,-0.073905\C,1.353411,1.053922,-0.0426
 12\C,1.545487,-0.398621,0.007025\O,2.596858,-0.882884,0.299863\O,0.491
 451,-1.161232,-0.304828\C,-0.794062,-0.572341,-0.559232\C,-1.489995,-0
 .264646,0.74542\H,-0.684278,0.31935,-1.178935\H,-1.331576,-1.327176,-1
 .130273\H,-1.639551,-1.163609,1.343667\H,-0.957214,0.488338,1.32856\H,
 -2.467467,0.194933,0.517528\O,-3.852249,0.396272,-0.137057\H,-4.323365

 Normal termination of Gaussian 16 at Wed Apr  2 01:18:59 2025.
