 Gaussian 16, Revision A.03,
 Gaussian 16:  ES64L-G16RevA.03 25-Dec-2016

 --------------------------
 # ccsd(t)/6-311++g(d,p) sp
 --------------------------

 -------------------
 Title Card Required
 -------------------
 Symbolic Z-matrix:
 Charge =  0 Multiplicity = 2

                         Standard orientation:
 ---------------------------------------------------------------------
 Center     Atomic      Atomic             Coordinates (Angstroms)
 Number     Number       Type             X           Y           Z
 ---------------------------------------------------------------------
      1          6           0        1.347573    2.236371   -0.067942
      2          1           0        1.272441    3.298929   -0.083370
      3          6           0        1.439056    1.040981   -0.050452
      4          6           0        1.631678   -0.410086    0.000433
      5          8           0        2.681278   -0.896780    0.292090
      6          8           0        0.573040   -1.173188   -0.308175
      7          6           0       -0.712953   -0.583573   -0.571325
      8          6           0       -1.429317   -0.275267    0.721281
      9          1           0       -0.600057    0.307581   -1.190136
     10          1           0       -1.246413   -1.340617   -1.142280
     11          1           0       -1.602186   -1.158360    1.334830
     12          1           0       -0.994144    0.544702    1.291972
     13          1           0       -2.561808    0.150255    0.366164
     14          8           0       -3.716997    0.375212   -0.124952
     15          1           0       -4.222624   -0.294997    0.359142
 ---------------------------------------------------------------------

 SCF Done:  E(UHF) =  -417.948583482     A.U. after   33 cycles
 E2 =    -0.1288147651D+01 EUMP2 =    -0.41923673113281D+03
 CCSD(T)= -0.41933799366D+03

 The electronic state is 2-A.
 Alpha  occ. eigenvalues --  -20.62897 -20.61704 -20.56056 -11.41983 -11.31215
 Alpha  occ. eigenvalues --  -11.27849 -11.27089 -11.26422  -1.48132  -1.39472
 Alpha  occ. eigenvalues --   -1.38736  -1.07956  -1.06691  -0.92661  -0.88252
 Alpha  occ. eigenvalues --   -0.76329  -0.74132  -0.73072  -0.70039  -0.67391
 Alpha  occ. eigenvalues --   -0.65878  -0.64230  -0.58771  -0.57112  -0.55673
 Alpha  occ. eigenvalues --   -0.52625  -0.49432  -0.47804  -0.45465  -0.43501
 Alpha  occ. eigenvalues --   -0.43243
 Alpha virt. eigenvalues --    0.03268   0.03826   0.05532   0.06731   0.07061
 Alpha virt. eigenvalues --    0.07774   0.08857   0.09436   0.11429   0.12150
 Alpha virt. eigenvalues --    0.12691   0.13323   0.14554   0.15215   0.16170

  Beta  occ. eigenvalues --  -20.61558 -20.59538 -20.56063 -11.41983 -11.31322
  Beta  occ. eigenvalues --  -11.27842 -11.27097 -11.24996  -1.47921  -1.38590
  Beta  occ. eigenvalues --   -1.27799  -1.07951  -1.04493  -0.91331  -0.86972
  Beta  occ. eigenvalues --   -0.76057  -0.73535  -0.69929  -0.67207  -0.65875
  Beta  occ. eigenvalues --   -0.64095  -0.58295  -0.56665  -0.52832  -0.51871
  Beta  occ. eigenvalues --   -0.51106  -0.48371  -0.46867  -0.43550  -0.43339
  Beta virt. eigenvalues --    0.02919   0.03513   0.04254   0.05558   0.06986
  Beta virt. eigenvalues --    0.07731   0.08298   0.08884   0.09568   0.11498
  Beta virt. eigenvalues --    0.12241   0.12725   0.13347   0.14565   0.15237

 Mulliken charges and spin densities:
               1          2
     1  C   -1.754204   0.009435
     2  H    0.226076  -0.000362
     3  C    1.946157  -0.006530
     4  C   -0.060147  -0.001476
     5  O   -0.329925  -0.001887
     6  O   -0.146100   0.013121
     7  C   -0.156996  -0.040814
     8  C   -0.521321   0.589055
     9  H    0.157154   0.003059
    10  H    0.186537  -0.000298
    11  H    0.190980  -0.032443
    12  H    0.150739  -0.029979
    13  H    0.185141  -0.216550
    14  O   -0.329489   0.740827
    15  H    0.255398  -0.025157
 Sum of Mulliken charges =  -0.00000   1.00000

 Dipole moment (field-independent basis, Debye):
    X=             -3.9779    Y=              2.0124    Z=              0.3331  Tot=              4.4704
 Quadrupole moment (field-independent basis, Debye-Ang):
   XX=            -55.7345   YY=            -43.3600   ZZ=            -47.0991
   XY=             13.0724   XZ=             -5.5515   YZ=             -0.1020

 186\PMP3-0=-419.2609748\MP4SDQ=-419.2837646\CCSD=-419.2828178\CCSD(T)=
 Normal termination of Gaussian 16 at Sun May  4 13:46:59 2025.
