 Gaussian 16, Revision A.03,
 Gaussian 16:  ES64L-G16RevA.03 25-Dec-2016

 --------------------------
 # freq 6-311++g(d,p) m062x
 --------------------------

 -------------------
 Title Card Required
 -------------------
 Symbolic Z-matrix:
 Charge =  0 Multiplicity = 2

                         Standard orientation:
 ---------------------------------------------------------------------
 Center     Atomic      Atomic             Coordinates (Angstroms)
 Number     Number       Type             X           Y           Z
 ---------------------------------------------------------------------
      1          6           0        1.348609    2.236178   -0.068139
      2          1           0        1.273231    3.298787   -0.084077
      3          6           0        1.440361    1.040810   -0.050193
      4          6           0        1.633749   -0.409750    0.001395
      5          8           0        2.682918   -0.896595    0.292988
      6          8           0        0.574488   -1.173806   -0.306754
      7          6           0       -0.712810   -0.583801   -0.571331
      8          6           0       -1.420806   -0.278543    0.723268
      9          1           0       -0.598789    0.306935   -1.190065
     10          1           0       -1.245013   -1.341966   -1.141690
     11          1           0       -1.618733   -1.156585    1.334660
     12          1           0       -1.014401    0.557910    1.288840
     13          1           0       -2.712350    0.185712    0.301150
     14          8           0       -3.706728    0.371708   -0.120436
     15          1           0       -4.223982   -0.290609    0.354799
 ---------------------------------------------------------------------

 SCF Done:  E(UM062X) =  -420.199074340     A.U. after   18 cycles

 The electronic state is 2-A.
 Alpha  occ. eigenvalues --  -19.69512 -19.63785 -19.63720 -10.71657 -10.62906
 Alpha  occ. eigenvalues --  -10.59151 -10.58660 -10.58205  -1.26306  -1.17756
 Alpha  occ. eigenvalues --   -1.13085  -0.90645  -0.90155  -0.78774  -0.74802
 Alpha  occ. eigenvalues --   -0.65683  -0.62607  -0.60872  -0.59610  -0.57609
 Alpha  occ. eigenvalues --   -0.54996  -0.50821  -0.49947  -0.49688  -0.44643
 Alpha  occ. eigenvalues --   -0.41253  -0.40473  -0.40133  -0.38511  -0.37285
 Alpha  occ. eigenvalues --   -0.33514
 Alpha virt. eigenvalues --   -0.02980  -0.01139  -0.00071   0.01069   0.01908
 Alpha virt. eigenvalues --    0.02385   0.03625   0.04070   0.05004   0.06643
 Alpha virt. eigenvalues --    0.06775   0.07212   0.07884   0.08917   0.10263

  Beta  occ. eigenvalues --  -19.69384 -19.63772 -19.63093 -10.71659 -10.62933
  Beta  occ. eigenvalues --  -10.58660 -10.58521 -10.58204  -1.26054  -1.17561
  Beta  occ. eigenvalues --   -1.10676  -0.90242  -0.89044  -0.77596  -0.74062
  Beta  occ. eigenvalues --   -0.65219  -0.62437  -0.59407  -0.58129  -0.56546
  Beta  occ. eigenvalues --   -0.54481  -0.50061  -0.49025  -0.46604  -0.44211
  Beta  occ. eigenvalues --   -0.40799  -0.39869  -0.39171  -0.38355  -0.37188
  Beta virt. eigenvalues --   -0.10647  -0.02931  -0.00980   0.00025   0.01125
  Beta virt. eigenvalues --    0.02009   0.02748   0.03698   0.04144   0.05085
  Beta virt. eigenvalues --    0.06687   0.06754   0.07105   0.07983   0.08943

 Mulliken charges and spin densities:
               1          2
     1  C   -1.347418  -0.020501
     2  H    0.202407  -0.000471
     3  C    1.554273   0.007539
     4  C   -0.202131   0.013973
     5  O   -0.239114   0.005253
     6  O   -0.029046   0.026744
     7  C   -0.297195  -0.013131
     8  C   -0.512537   0.796212
     9  H    0.189320   0.002125
    10  H    0.206056  -0.000392
    11  H    0.223952  -0.026809
    12  H    0.176943  -0.019118
    13  H    0.299948  -0.056401
    14  O   -0.473178   0.284761
    15  H    0.247720   0.000216
 Sum of Mulliken charges =  -0.00000   1.00000

 Dipole moment (field-independent basis, Debye):
    X=             -2.2473    Y=              1.4703    Z=              0.7023  Tot=              2.7759
 Quadrupole moment (field-independent basis, Debye-Ang):
   XX=            -61.2268   YY=            -43.1823   ZZ=            -46.8250
   XY=             13.2109   XZ=             -6.3008   YZ=             -0.0134

  Exact polarizability:  92.680  -4.182  78.400   5.407  -1.602  51.048
 Approx polarizability:  92.313  -9.628  99.776   7.893  -3.030  60.346

 ******    2 imaginary frequencies (negative Signs) ******

                      1                      2                      3
                      A                      A                      A
 Frequencies --   -650.1621               -41.8047                54.5843
 Red. masses --      1.6304                 4.0816                 6.3614
 Frc consts  --      0.4061                 0.0042                 0.0112
 IR Inten    --     62.5436                 4.3361                 4.3338

                      4                      5                      6
                      A                      A                      A
 Frequencies --     91.8653               131.1070               177.5871
 Red. masses --      3.2836                 5.7059                 3.4906
 Frc consts  --      0.0163                 0.0578                 0.0649
 IR Inten    --      0.1272                 2.3951                 2.0220

                      7                      8                      9
                      A                      A                      A
 Frequencies --    202.6317               257.9500               328.7246
 Red. masses --      1.0790                 5.0230                 3.4059
 Frc consts  --      0.0261                 0.1969                 0.2168
 IR Inten    --    107.9697                 0.6155                 9.1063

                     10                     11                     12
                      A                      A                      A
 Frequencies --    384.0036               436.3179               561.7034
 Red. masses --      5.6197                 1.1284                 5.5936
 Frc consts  --      0.4882                 0.1266                 1.0398
 IR Inten    --      7.1006                10.1341                20.3379

                     13                     14                     15
                      A                      A                      A
 Frequencies --    630.4228               670.4587               738.0778
 Red. masses --      5.5241                 1.1333                 1.3356
 Frc consts  --      1.2935                 0.3002                 0.4287
 IR Inten    --      1.3468                44.5120                16.8666

                     16                     17                     18
                      A                      A                      A
 Frequencies --    740.6064               766.3544               770.5186
 Red. masses --      1.5308                 8.8398                 4.0926
 Frc consts  --      0.4947                 3.0588                 1.4316
 IR Inten    --     63.2173                16.1774                 5.4411

                     19                     20                     21
                      A                      A                      A
 Frequencies --    779.3599               813.0499               907.2981
 Red. masses --      1.2873                 1.2226                 1.1412
 Frc consts  --      0.4607                 0.4762                 0.5535
 IR Inten    --     41.3540                 3.2173                69.5861

                     22                     23                     24
                      A                      A                      A
 Frequencies --   1057.4274              1088.2128              1169.8586
 Red. masses --      3.7822                 6.4556                 1.9130
 Frc consts  --      2.4917                 4.5042                 1.5425
 IR Inten    --      9.5491                75.3539               116.1166

                     25                     26                     27
                      A                      A                      A
 Frequencies --   1247.1297              1269.6067              1339.2385
 Red. masses --      2.2903                 1.6452                 1.2158
 Frc consts  --      2.0988                 1.5625                 1.2848
 IR Inten    --    289.7262                92.8193               105.6139

                     28                     29                     30
                      A                      A                      A
 Frequencies --   1412.5881              1466.7512              1514.7950
 Red. masses --      1.3124                 1.1727                 1.0920
 Frc consts  --      1.5429                 1.4865                 1.4763
 IR Inten    --     24.2573                 8.1301                21.5224

                     31                     32                     33
                      A                      A                      A
 Frequencies --   1578.1661              1870.4608              2252.2011
 Red. masses --      1.0545                13.0389                 5.7225
 Frc consts  --      1.5474                26.8774                17.1021
 IR Inten    --     45.0540               520.1374                58.0110

                     34                     35                     36
                      A                      A                      A
 Frequencies --   3111.4469              3120.7891              3170.4283
 Red. masses --      1.0595                 1.0538                 1.1070
 Frc consts  --      6.0436                 6.0471                 6.5557
 IR Inten    --      4.4939                 6.6858                 2.8639

                     37                     38                     39
                      A                      A                      A
 Frequencies --   3210.9319              3486.5337              3863.5129
 Red. masses --      1.1125                 1.1703                 1.0660
 Frc consts  --      6.7578                 8.3817                 9.3746
 IR Inten    --      3.3899                61.6572                64.9401

 - Thermochemistry -
 -------------------
 Temperature   298.150 Kelvin.  Pressure   1.00000 Atm.
 Atom     1 has atomic number  6 and mass  12.00000

 Molecular mass:   115.03952 amu.
 Principal axes and moments of inertia in atomic units:
                           1         2         3
     Eigenvalues --   540.705731789.039802188.41250
           X            0.99974   0.02146  -0.00824
           Y           -0.02146   0.99977  -0.00029
           Z            0.00823   0.00047   0.99997
 This molecule is an asymmetric top.
 Rotational symmetry number  1.
 Warning -- assumption of classical behavior for rotation
           may cause significant error
 Rotational temperatures (Kelvin)      0.16019     0.04841     0.03958
 Rotational constants (GHZ):           3.33775     1.00878     0.82468
    2 imaginary frequencies ignored.
 Zero-point vibrational energy     279164.7 (Joules/Mol)
                                   66.72197 (Kcal/Mol)
 Warning -- explicit consideration of  10 degrees of freedom as
           vibrations may cause significant error
 Vibrational temperatures:     78.53   132.17   188.63   255.51   291.54
          (Kelvin)            371.13   472.96   552.50   627.76   808.17
                              907.04   964.64  1061.93  1065.57  1102.61
                             1108.60  1121.33  1169.80  1305.40  1521.40
                             1565.70  1683.17  1794.34  1826.68  1926.87
                             2032.40  2110.33  2179.45  2270.63  2691.18
                             3240.41  4476.68  4490.12  4561.54  4619.81
                             5016.34  5558.73

 Zero-point correction=                           0.106328 (Hartree/Particle)
 Thermal correction to Energy=                    0.115196
 Thermal correction to Enthalpy=                  0.116140
 Thermal correction to Gibbs Free Energy=         0.071356
 Sum of electronic and zero-point Energies=           -420.092746
 Sum of electronic and thermal Energies=              -420.083879
 Sum of electronic and thermal Enthalpies=            -420.082934
 Sum of electronic and thermal Free Energies=         -420.127718

                     E (Thermal)             CV                S
                      KCal/Mol        Cal/Mol-Kelvin    Cal/Mol-Kelvin
 Total                   72.286             31.119             94.255
 Electronic               0.000              0.000              1.377
 Translational            0.889              2.981             40.136
 Rotational               0.889              2.981             29.139
 Vibrational             70.509             25.157             23.603
 Vibration     1          0.596              1.976              4.644
 Vibration     2          0.602              1.955              3.620
 Vibration     3          0.612              1.922              2.930
 Vibration     4          0.628              1.870              2.354
 Vibration     5          0.639              1.836              2.109
 Vibration     6          0.667              1.749              1.676
 Vibration     7          0.712              1.618              1.266
 Vibration     8          0.753              1.504              1.023
 Vibration     9          0.797              1.391              0.838
 Vibration    10          0.917              1.114              0.520

 1\1\GINC-AJ\Freq\UM062X\6-311++G(d,p)\C5H7O3(2)\AAYUSH\02-Apr-2025\0\\
 # freq 6-311++g(d,p) m062x\\Title Card Required\\0,2\C,1.261249,2.2495
 31,-0.059284\H,1.185931,3.312156,-0.074392\C,1.352934,1.054144,-0.0422
 73\C,1.546248,-0.396467,0.008161\O,2.595458,-0.883597,0.299129\O,0.486
 867,-1.160224,-0.300317\C,-0.800459,-0.569941,-0.564134\C,-1.508126,-0
 .265629,0.730868\H,-0.686534,0.321261,-1.182215\H,-1.332845,-1.327638,
 -1.134944\H,-1.705958,-1.144126,1.341637\H,-1.101535,0.570367,1.296981
 \H,-2.799743,0.199025,0.309416\O,-3.794212,0.385402,-0.111789\H,-4.311

 Normal termination of Gaussian 16 at Wed Apr  2 01:38:07 2025.
