 Gaussian 16, Revision A.03,
 Gaussian 16:  ES64L-G16RevA.03 25-Dec-2016

 --------------------------
 # freq 6-311++g(d,p) m062x
 --------------------------

 -------------------
 Title Card Required
 -------------------
 Symbolic Z-matrix:
 Charge =  0 Multiplicity = 2

                         Standard orientation:
 ---------------------------------------------------------------------
 Center     Atomic      Atomic             Coordinates (Angstroms)
 Number     Number       Type             X           Y           Z
 ---------------------------------------------------------------------
      1          6           0        1.340786    2.239544   -0.067121
      2          1           0        1.263715    3.301830   -0.079568
      3          6           0        1.434606    1.044260   -0.052563
      4          6           0        1.629389   -0.407944   -0.005822
      5          8           0        2.682076   -0.890996    0.284156
      6          8           0        0.575891   -1.171840   -0.316842
      7          6           0       -0.711015   -0.584952   -0.568854
      8          6           0       -1.408011   -0.280732    0.735964
      9          1           0       -0.603678    0.308008   -1.187137
     10          1           0       -1.247597   -1.339919   -1.140585
     11          1           0       -1.553923   -1.179708    1.335001
     12          1           0       -0.883191    0.478232    1.318529
     13          1           0       -2.391291    0.171487    0.502752
     14          8           0       -3.765574    0.376621   -0.137367
     15          1           0       -4.237715   -0.311269    0.361813
 ---------------------------------------------------------------------

 SCF Done:  E(UM062X) =  -420.190281725     A.U. after   23 cycles

 The electronic state is 2-A.
 Alpha  occ. eigenvalues --  -19.69544 -19.68243 -19.62803 -10.70752 -10.61486
 Alpha  occ. eigenvalues --  -10.57877 -10.57476 -10.55403  -1.25271  -1.16698
 Alpha  occ. eigenvalues --   -1.15719  -0.89500  -0.89175  -0.77989  -0.73941
 Alpha  occ. eigenvalues --   -0.64414  -0.61823  -0.59560  -0.58350  -0.56990
 Alpha  occ. eigenvalues --   -0.54586  -0.53236  -0.48872  -0.47831  -0.44767
 Alpha  occ. eigenvalues --   -0.43353  -0.41793  -0.39494  -0.38758  -0.37272
 Alpha  occ. eigenvalues --   -0.36367
 Alpha virt. eigenvalues --   -0.02178  -0.01505   0.00078   0.01297   0.01995
 Alpha virt. eigenvalues --    0.02416   0.04046   0.04335   0.05343   0.06437
 Alpha virt. eigenvalues --    0.07185   0.07478   0.08315   0.09224   0.10332

  Beta  occ. eigenvalues --  -19.68217 -19.68039 -19.62801 -10.70752 -10.61493
  Beta  occ. eigenvalues --  -10.57877 -10.57476 -10.55211  -1.25221  -1.16659
  Beta  occ. eigenvalues --   -1.08758  -0.89459  -0.88739  -0.77550  -0.73733
  Beta  occ. eigenvalues --   -0.64325  -0.61747  -0.58428  -0.57124  -0.55207
  Beta  occ. eigenvalues --   -0.53259  -0.49614  -0.47734  -0.46211  -0.42851
  Beta  occ. eigenvalues --   -0.41312  -0.39759  -0.38767  -0.37400  -0.36368
  Beta virt. eigenvalues --   -0.11801  -0.02157  -0.01145   0.00144   0.01349
  Beta virt. eigenvalues --    0.02219   0.02574   0.04067   0.04380   0.05443
  Beta virt. eigenvalues --    0.06568   0.07272   0.07548   0.08416   0.09284

 Mulliken charges and spin densities:
               1          2
     1  C   -1.304976  -0.001910
     2  H    0.200161  -0.000100
     3  C    1.529775  -0.000636
     4  C   -0.225016   0.002457
     5  O   -0.248418   0.001163
     6  O   -0.034101   0.004829
     7  C   -0.306212  -0.000877
     8  C   -0.480274   0.191466
     9  H    0.174995  -0.001537
    10  H    0.198245  -0.000892
    11  H    0.204969  -0.008631
    12  H    0.145140   0.002149
    13  H    0.161558  -0.036980
    14  O   -0.267285   0.866844
    15  H    0.251440  -0.017345
 Sum of Mulliken charges =  -0.00000   1.00000

 Dipole moment (field-independent basis, Debye):
    X=             -4.1236    Y=              1.7730    Z=              0.3149  Tot=              4.4996
 Quadrupole moment (field-independent basis, Debye-Ang):
   XX=            -52.5379   YY=            -43.5274   ZZ=            -47.1872
   XY=             11.8317   XZ=             -4.9876   YZ=             -0.1795

  Exact polarizability:  91.793  -3.869  78.555   5.944  -1.633  50.969
 Approx polarizability:  88.100  -8.133  99.610   7.753  -2.986  59.965

 ******    3 imaginary frequencies (negative Signs) ******

                      1                      2                      3
                      A                      A                      A
 Frequencies --   -242.3778              -119.4387               -75.7629
 Red. masses --      1.8587                 2.6525                 5.9301
 Frc consts  --      0.0643                 0.0223                 0.0201
 IR Inten    --     55.7152                16.2988                 9.9960

                      4                      5                      6
                      A                      A                      A
 Frequencies --     63.7307                88.0204               124.2482
 Red. masses --      6.8138                 2.6018                 1.9043
 Frc consts  --      0.0163                 0.0119                 0.0173
 IR Inten    --      3.4543                 1.4629                 8.3628

                      7                      8                      9
                      A                      A                      A
 Frequencies --    159.6568               184.1330               260.8183
 Red. masses --      1.1199                 3.4397                 5.0395
 Frc consts  --      0.0168                 0.0687                 0.2020
 IR Inten    --    114.2241                 6.5875                 0.4097

                     10                     11                     12
                      A                      A                      A
 Frequencies --    349.3092               393.8274               546.1245
 Red. masses --      3.0116                 3.5354                 5.0567
 Frc consts  --      0.2165                 0.3231                 0.8886
 IR Inten    --      1.1176                 6.2343                29.7249

                     13                     14                     15
                      A                      A                      A
 Frequencies --    631.5191               639.5492               734.2996
 Red. masses --      5.0273                 1.1631                 1.3221
 Frc consts  --      1.1813                 0.2803                 0.4200
 IR Inten    --      3.1771               133.0966                36.8422

                     16                     17                     18
                      A                      A                      A
 Frequencies --    752.6996               769.9027               775.5729
 Red. masses --      4.0296                 8.8117                 1.3093
 Frc consts  --      1.3451                 3.0774                 0.4640
 IR Inten    --      0.4476                15.0050                48.3628

                     19                     20                     21
                      A                      A                      A
 Frequencies --    817.8452               923.4531              1094.9323
 Red. masses --      1.2145                 2.0176                 2.7920
 Frc consts  --      0.4786                 1.0137                 1.9722
 IR Inten    --     11.4956                13.3838                15.4832

                     22                     23                     24
                      A                      A                      A
 Frequencies --   1115.5345              1175.1410              1256.4692
 Red. masses --      4.8363                 1.9807                 2.8606
 Frc consts  --      3.5459                 1.6116                 2.6608
 IR Inten    --     71.8807                84.4241               372.4606

                     25                     26                     27
                      A                      A                      A
 Frequencies --   1338.7122              1355.3950              1414.2094
 Red. masses --      1.2371                 1.2887                 1.1502
 Frc consts  --      1.3063                 1.3948                 1.3553
 IR Inten    --    102.6056                46.4079                13.6559

                     28                     29                     30
                      A                      A                      A
 Frequencies --   1426.4820              1482.8938              1520.6313
 Red. masses --      1.2094                 1.1002                 1.0941
 Frc consts  --      1.4500                 1.4255                 1.4906
 IR Inten    --     26.2911                 7.2561                20.5222

                     31                     32                     33
                      A                      A                      A
 Frequencies --   1866.3257              2251.2787              2517.7315
 Red. masses --     12.9854                 5.7296                 1.0910
 Frc consts  --     26.6489                17.1093                 4.0746
 IR Inten    --    547.3664                52.3108               848.9665

                     34                     35                     36
                      A                      A                      A
 Frequencies --   3098.8760              3108.6150              3154.2479
 Red. masses --      1.0602                 1.0612                 1.1042
 Frc consts  --      5.9986                 6.0418                 6.4726
 IR Inten    --      0.2880                21.8389                 2.4292

                     37                     38                     39
                      A                      A                      A
 Frequencies --   3174.5946              3488.4869              3783.4800
 Red. masses --      1.1066                 1.1698                 1.0671
 Frc consts  --      6.5709                 8.3876                 9.0003
 IR Inten    --     14.8044                59.7620                47.7565

 - Thermochemistry -
 -------------------
 Temperature   298.150 Kelvin.  Pressure   1.00000 Atm.
 Atom     1 has atomic number  6 and mass  12.00000

 Molecular mass:   115.03952 amu.
 Principal axes and moments of inertia in atomic units:
                           1         2         3
     Eigenvalues --   542.852791805.108712202.99519
           X            0.99972   0.02199  -0.00861
           Y           -0.02200   0.99976  -0.00111
           Z            0.00858   0.00129   0.99996
 This molecule is an asymmetric top.
 Rotational symmetry number  1.
 Warning -- assumption of classical behavior for rotation
           may cause significant error
 Rotational temperatures (Kelvin)      0.15955     0.04798     0.03932
 Rotational constants (GHZ):           3.32455     0.99980     0.81922
    3 imaginary frequencies ignored.
 Zero-point vibrational energy     286139.3 (Joules/Mol)
                                   68.38892 (Kcal/Mol)
 Warning -- explicit consideration of   9 degrees of freedom as
           vibrations may cause significant error
 Vibrational temperatures:     91.69   126.64   178.77   229.71   264.93
          (Kelvin)            375.26   502.58   566.63   785.75   908.62
                              920.17  1056.49  1082.97  1107.72  1115.88
                             1176.70  1328.64  1575.36  1605.01  1690.77
                             1807.78  1926.11  1950.11  2034.73  2052.39
                             2133.55  2187.85  2685.23  3239.09  3622.45
                             4458.59  4472.60  4538.26  4567.53  5019.15
                             5443.58

 Zero-point correction=                           0.108985 (Hartree/Particle)
 Thermal correction to Energy=                    0.117520
 Thermal correction to Enthalpy=                  0.118465
 Thermal correction to Gibbs Free Energy=         0.074116
 Sum of electronic and zero-point Energies=           -420.081297
 Sum of electronic and thermal Energies=              -420.072761
 Sum of electronic and thermal Enthalpies=            -420.071817
 Sum of electronic and thermal Free Energies=         -420.116165

                     E (Thermal)             CV                S
                      KCal/Mol        Cal/Mol-Kelvin    Cal/Mol-Kelvin
 Total                   73.745             28.991             93.339
 Electronic               0.000              0.000              1.377
 Translational            0.889              2.981             40.136
 Rotational               0.889              2.981             29.158
 Vibrational             71.968             23.030             22.668
 Vibration     1          0.597              1.972              4.338
 Vibration     2          0.601              1.958              3.704
 Vibration     3          0.610              1.929              3.033
 Vibration     4          0.622              1.892              2.554
 Vibration     5          0.631              1.861              2.286
 Vibration     6          0.669              1.744              1.656
 Vibration     7          0.727              1.577              1.169
 Vibration     8          0.761              1.483              0.986
 Vibration     9          0.901              1.148              0.552

 1\1\GINC-AJ\Freq\UM062X\6-311++G(d,p)\C5H7O3(2)\AAYUSH\02-Apr-2025\0\\
 # freq 6-311++g(d,p) m062x\\Title Card Required\\0,2\C,1.261733,2.2493
 87,-0.059441\H,1.186618,3.311787,-0.073939\C,1.353351,1.053963,-0.0425
 64\C,1.545409,-0.398506,0.007134\O,2.596716,-0.882946,0.299789\O,0.491
 056,-1.161047,-0.304314\C,-0.794346,-0.572278,-0.559593\C,-1.49302,-0.
 264431,0.743476\H,-0.684324,0.319366,-1.179302\H,-1.331322,-1.327301,-
 1.130879\H,-1.641595,-1.162055,1.343884\H,-0.967818,0.49463,1.325569\H
 ,-2.475074,0.189152,0.507761\O,-3.847883,0.395626,-0.135085\H,-4.32213

 Normal termination of Gaussian 16 at Wed Apr  2 01:21:26 2025.
