 Gaussian 16, Revision A.03,
 Gaussian 16:  ES64L-G16RevA.03 25-Dec-2016

 --------------------------
 # ccsd(t)/6-311++g(d,p) sp
 --------------------------

 -------------------
 Title Card Required
 -------------------
 Symbolic Z-matrix:
 Charge =  0 Multiplicity = 2

                         Standard orientation:
 ---------------------------------------------------------------------
 Center     Atomic      Atomic             Coordinates (Angstroms)
 Number     Number       Type             X           Y           Z
 ---------------------------------------------------------------------
      1          6           0        1.345257    2.237351   -0.067557
      2          1           0        1.269708    3.299787   -0.081971
      3          6           0        1.437294    1.041987   -0.051032
      4          6           0        1.630012   -0.409701   -0.001561
      5          8           0        2.680802   -0.895288    0.289602
      6          8           0        0.573175   -1.172407   -0.310795
      7          6           0       -0.712386   -0.583929   -0.570543
      8          6           0       -1.427601   -0.275746    0.723692
      9          1           0       -0.601320    0.307786   -1.189604
     10          1           0       -1.246682   -1.340080   -1.142558
     11          1           0       -1.580253   -1.164494    1.335491
     12          1           0       -0.958375    0.523020    1.299182
     13          1           0       -2.456655    0.141007    0.425872
     14          8           0       -3.733346    0.376900   -0.129538
     15          1           0       -4.226925   -0.300441    0.361442
 ---------------------------------------------------------------------

 SCF Done:  E(UHF) =  -417.960604023     A.U. after   35 cycles
 E2 =    -0.1276499099D+01 EUMP2 =    -0.41923710312219D+03
 CCSD(T)= -0.41933881582D+03

 The electronic state is 2-A.
 Alpha  occ. eigenvalues --  -20.65064 -20.61076 -20.55608 -11.41554 -11.30510
 Alpha  occ. eigenvalues --  -11.27456 -11.26743 -11.24081  -1.47612  -1.41427
 Alpha  occ. eigenvalues --   -1.38228  -1.07569  -1.05726  -0.92106  -0.87747
 Alpha  occ. eigenvalues --   -0.75758  -0.74071  -0.72934  -0.69649  -0.69083
 Alpha  occ. eigenvalues --   -0.65946  -0.63529  -0.58085  -0.57735  -0.56046
 Alpha  occ. eigenvalues --   -0.51907  -0.49973  -0.47650  -0.46163  -0.43135
 Alpha  occ. eigenvalues --   -0.42927
 Alpha virt. eigenvalues --    0.03182   0.03798   0.05602   0.06626   0.07163
 Alpha virt. eigenvalues --    0.07943   0.09075   0.09564   0.11528   0.12183
 Alpha virt. eigenvalues --    0.12872   0.13499   0.14764   0.15371   0.16338

  Beta  occ. eigenvalues --  -20.61154 -20.61011 -20.55612 -11.41553 -11.30566
  Beta  occ. eigenvalues --  -11.27452 -11.26748 -11.23298  -1.47521  -1.38165
  Beta  occ. eigenvalues --   -1.27115  -1.07568  -1.04495  -0.91282  -0.87023
  Beta  occ. eigenvalues --   -0.75634  -0.73179  -0.69456  -0.67452  -0.65929
  Beta  occ. eigenvalues --   -0.63450  -0.57936  -0.55913  -0.53277  -0.53024
  Beta  occ. eigenvalues --   -0.51172  -0.47974  -0.46366  -0.43156  -0.42953
  Beta virt. eigenvalues --    0.03005   0.03700   0.04743   0.05624   0.07120
  Beta virt. eigenvalues --    0.07874   0.08566   0.09089   0.09608   0.11613
  Beta virt. eigenvalues --    0.12212   0.12933   0.13557   0.14764   0.15408

 Mulliken charges and spin densities:
               1          2
     1  C   -1.747030   0.006272
     2  H    0.224606  -0.000201
     3  C    1.944267  -0.003418
     4  C   -0.065237  -0.002164
     5  O   -0.334009  -0.000994
     6  O   -0.146783   0.005180
     7  C   -0.170621  -0.020591
     8  C   -0.513875   0.298478
     9  H    0.149447   0.000567
    10  H    0.180655   0.000206
    11  H    0.177137  -0.018254
    12  H    0.134984  -0.012760
    13  H    0.161470  -0.116519
    14  O   -0.252930   0.895775
    15  H    0.257919  -0.031577
 Sum of Mulliken charges =  -0.00000   1.00000

 Dipole moment (field-independent basis, Debye):
    X=             -4.9016    Y=              2.1722    Z=              0.1279  Tot=              5.3629
 Quadrupole moment (field-independent basis, Debye-Ang):
   XX=            -51.4606   YY=            -43.5464   ZZ=            -47.3402
   XY=             12.3947   XZ=             -4.9977   YZ=             -0.1423

 -419.2630217\MP4SDQ=-419.2858356\CCSD=-419.2848359\CCSD(T)=-419.338815
 Normal termination of Gaussian 16 at Sat May  3 05:04:43 2025.
