 Gaussian 16, Revision A.03,
 Gaussian 16:  ES64L-G16RevA.03 25-Dec-2016

 --------------------------
 # ccsd(t)/6-311++g(d,p) sp
 --------------------------

 -------------------
 Title Card Required
 -------------------
 Symbolic Z-matrix:
 Charge =  0 Multiplicity = 2

                         Standard orientation:
 ---------------------------------------------------------------------
 Center     Atomic      Atomic             Coordinates (Angstroms)
 Number     Number       Type             X           Y           Z
 ---------------------------------------------------------------------
      1          6           0        1.348365    2.236186   -0.068090
      2          1           0        1.273114    3.298787   -0.083899
      3          6           0        1.439972    1.040807   -0.050255
      4          6           0        1.633057   -0.409910    0.001157
      5          8           0        2.682310   -0.896764    0.292817
      6          8           0        0.573928   -1.173622   -0.307143
      7          6           0       -0.712871   -0.583703   -0.571384
      8          6           0       -1.424303   -0.277194    0.722336
      9          1           0       -0.599174    0.307153   -1.190111
     10          1           0       -1.245521   -1.341474   -1.141880
     11          1           0       -1.613420   -1.157016    1.334718
     12          1           0       -1.008221    0.553913    1.289744
     13          1           0       -2.662096    0.172910    0.322343
     14          8           0       -3.709631    0.372972   -0.121921
     15          1           0       -4.222853   -0.292074    0.356469
 ---------------------------------------------------------------------

 SCF Done:  E(UHF) =  -417.950006898     A.U. after   32 cycles
 E2 =    -0.1296610187D+01 EUMP2 =    -0.41924661708502D+03
 CCSD(T)= -0.41934330430D+03

 The electronic state is 2-A.
 Alpha  occ. eigenvalues --  -20.62632 -20.58993 -20.56677 -11.42598 -11.32191
 Alpha  occ. eigenvalues --  -11.28548 -11.28391 -11.27575  -1.48930  -1.39476
 Alpha  occ. eigenvalues --   -1.35982  -1.08513  -1.08186  -0.93611  -0.89036
 Alpha  occ. eigenvalues --   -0.77160  -0.74407  -0.72435  -0.70757  -0.67620
 Alpha  occ. eigenvalues --   -0.65598  -0.62242  -0.59869  -0.58294  -0.53712
 Alpha  occ. eigenvalues --   -0.52153  -0.49831  -0.48522  -0.44763  -0.44001
 Alpha  occ. eigenvalues --   -0.43500
 Alpha virt. eigenvalues --    0.03219   0.03899   0.05397   0.06719   0.07058
 Alpha virt. eigenvalues --    0.07556   0.08555   0.09253   0.11232   0.12133
 Alpha virt. eigenvalues --    0.12437   0.13094   0.14241   0.14963   0.15930

  Beta  occ. eigenvalues --  -20.62383 -20.56757 -20.56684 -11.42598 -11.32348
  Beta  occ. eigenvalues --  -11.28380 -11.27586 -11.26500  -1.48561  -1.39213
  Beta  occ. eigenvalues --   -1.28780  -1.08482  -1.04878  -0.91674  -0.87143
  Beta  occ. eigenvalues --   -0.76692  -0.74054  -0.70629  -0.67488  -0.65343
  Beta  occ. eigenvalues --   -0.64972  -0.59059  -0.57669  -0.53825  -0.52579
  Beta  occ. eigenvalues --   -0.49649  -0.49095  -0.47764  -0.44097  -0.43874
  Beta virt. eigenvalues --    0.02921   0.03309   0.04101   0.05429   0.06751
  Beta virt. eigenvalues --    0.07548   0.08293   0.08599   0.09490   0.11272
  Beta virt. eigenvalues --    0.12303   0.12490   0.13148   0.14284   0.14990

 Mulliken charges and spin densities:
               1          2
     1  C   -1.749174   0.012502
     2  H    0.228504  -0.000505
     3  C    1.936061  -0.009882
     4  C   -0.055351  -0.000209
     5  O   -0.324551  -0.002629
     6  O   -0.142752   0.024309
     7  C   -0.152446  -0.065234
     8  C   -0.529739   0.881945
     9  H    0.166285   0.004373
    10  H    0.194701   0.001041
    11  H    0.206017  -0.048724
    12  H    0.166950  -0.046393
    13  H    0.276659  -0.194306
    14  O   -0.469451   0.458200
    15  H    0.248286  -0.014489
 Sum of Mulliken charges =  -0.00000   1.00000

 Dipole moment (field-independent basis, Debye):
    X=             -2.6539    Y=              1.7711    Z=              0.6681  Tot=              3.2598
 Quadrupole moment (field-independent basis, Debye-Ang):
   XX=            -62.1455   YY=            -43.0593   ZZ=            -46.7504
   XY=             14.0461   XZ=             -6.4822   YZ=             -0.0533

 5\PMP3-0=-419.2666236\MP4SDQ=-419.2903075\CCSD=-419.2879142\CCSD(T)=-4
 Normal termination of Gaussian 16 at Sat May  3 03:26:47 2025.
