 Gaussian 16, Revision A.03,
 Gaussian 16:  ES64L-G16RevA.03 25-Dec-2016

 --------------------------
 # freq 6-311++g(d,p) m062x
 --------------------------

 -------------------
 Title Card Required
 -------------------
 Symbolic Z-matrix:
 Charge =  0 Multiplicity = 2

                         Standard orientation:
 ---------------------------------------------------------------------
 Center     Atomic      Atomic             Coordinates (Angstroms)
 Number     Number       Type             X           Y           Z
 ---------------------------------------------------------------------
      1          6           0        1.342635    2.238632   -0.067268
      2          1           0        1.266243    3.300977   -0.080549
      3          6           0        1.435677    1.043312   -0.051854
      4          6           0        1.629461   -0.408737   -0.003941
      5          8           0        2.681411   -0.892854    0.286509
      6          8           0        0.574629   -1.171978   -0.314081
      7          6           0       -0.711514   -0.584587   -0.569610
      8          6           0       -1.417166   -0.278605    0.730099
      9          1           0       -0.602540    0.307808   -1.188344
     10          1           0       -1.246857   -1.340070   -1.141770
     11          1           0       -1.563091   -1.173139    1.335474
     12          1           0       -0.915641    0.497939    1.309566
     13          1           0       -2.414240    0.156203    0.471221
     14          8           0       -3.751667    0.376908   -0.133920
     15          1           0       -4.233415   -0.306413    0.361777
 ---------------------------------------------------------------------

 SCF Done:  E(UM062X) =  -420.189447236     A.U. after   22 cycles

 The electronic state is 2-A.
 Alpha  occ. eigenvalues --  -19.69153 -19.68339 -19.62881 -10.70824 -10.61602
 Alpha  occ. eigenvalues --  -10.57941 -10.57534 -10.55721  -1.25343  -1.16778
 Alpha  occ. eigenvalues --   -1.15461  -0.89593  -0.89300  -0.78096  -0.74027
 Alpha  occ. eigenvalues --   -0.64512  -0.61895  -0.59764  -0.58424  -0.56902
 Alpha  occ. eigenvalues --   -0.54536  -0.53328  -0.48962  -0.48000  -0.44454
 Alpha  occ. eigenvalues --   -0.43353  -0.41473  -0.39463  -0.38763  -0.37292
 Alpha  occ. eigenvalues --   -0.36429
 Alpha virt. eigenvalues --   -0.02241  -0.01460   0.00065   0.01282   0.01997
 Alpha virt. eigenvalues --    0.02402   0.04017   0.04310   0.05314   0.06495
 Alpha virt. eigenvalues --    0.07132   0.07437   0.08267   0.09198   0.10342

  Beta  occ. eigenvalues --  -19.68308 -19.67679 -19.62878 -10.70824 -10.61610
  Beta  occ. eigenvalues --  -10.57940 -10.57534 -10.55498  -1.25281  -1.16730
  Beta  occ. eigenvalues --   -1.08863  -0.89525  -0.88805  -0.77588  -0.73788
  Beta  occ. eigenvalues --   -0.64404  -0.61805  -0.58507  -0.57193  -0.55191
  Beta  occ. eigenvalues --   -0.53374  -0.49556  -0.47849  -0.46245  -0.42944
  Beta  occ. eigenvalues --   -0.41069  -0.39824  -0.38836  -0.37476  -0.36435
  Beta virt. eigenvalues --   -0.11975  -0.02219  -0.01109   0.00136   0.01336
  Beta virt. eigenvalues --    0.02216   0.02573   0.04041   0.04356   0.05413
  Beta virt. eigenvalues --    0.06630   0.07224   0.07499   0.08374   0.09257

 Mulliken charges and spin densities:
               1          2
     1  C   -1.312683  -0.003062
     2  H    0.200194  -0.000127
     3  C    1.537882  -0.000382
     4  C   -0.224599   0.003342
     5  O   -0.247721   0.001442
     6  O   -0.034263   0.006099
     7  C   -0.303299  -0.000490
     8  C   -0.488830   0.225278
     9  H    0.175957  -0.001320
    10  H    0.198873  -0.000967
    11  H    0.206234  -0.009567
    12  H    0.149258   0.001183
    13  H    0.172825  -0.040490
    14  O   -0.280392   0.835977
    15  H    0.250564  -0.016917
 Sum of Mulliken charges =  -0.00000   1.00000

 Dipole moment (field-independent basis, Debye):
    X=             -3.9740    Y=              1.7564    Z=              0.3331  Tot=              4.3576
 Quadrupole moment (field-independent basis, Debye-Ang):
   XX=            -53.1824   YY=            -43.5010   ZZ=            -47.1472
   XY=             11.9128   XZ=             -5.0648   YZ=             -0.1686

  Exact polarizability:  95.155  -4.512  78.631   6.604  -1.763  51.085
 Approx polarizability:  90.001  -8.681  99.739   8.240  -3.153  60.125

 ******    3 imaginary frequencies (negative Signs) ******

                      1                      2                      3
                      A                      A                      A
 Frequencies --   -361.2580               -94.7332               -83.8391
 Red. masses --      2.0704                 3.7224                 4.7842
 Frc consts  --      0.1592                 0.0197                 0.0198
 IR Inten    --    162.5511                 8.5876                 5.7289

                      4                      5                      6
                      A                      A                      A
 Frequencies --     65.2192               100.6960               146.2156
 Red. masses --      6.4085                 3.4368                 1.3065
 Frc consts  --      0.0161                 0.0205                 0.0165
 IR Inten    --      3.2984                 0.2063                36.5056

                      7                      8                      9
                      A                      A                      A
 Frequencies --    162.8212               184.3368               260.2645
 Red. masses --      1.1208                 3.3996                 5.0385
 Frc consts  --      0.0175                 0.0681                 0.2011
 IR Inten    --     88.7036                 5.2936                 0.4305

                     10                     11                     12
                      A                      A                      A
 Frequencies --    349.2470               389.7890               547.4932
 Red. masses --      2.9295                 3.7719                 5.2256
 Frc consts  --      0.2105                 0.3377                 0.9229
 IR Inten    --      1.3193                 7.0984                27.6640

                     13                     14                     15
                      A                      A                      A
 Frequencies --    631.5563               681.2052               734.6537
 Red. masses --      5.6317                 1.1718                 1.3214
 Frc consts  --      1.3235                 0.3204                 0.4202
 IR Inten    --      1.5936               120.7539                36.5911

                     16                     17                     18
                      A                      A                      A
 Frequencies --    754.7755               769.6413               775.9197
 Red. masses --      3.6091                 8.9807                 1.3034
 Frc consts  --      1.2114                 3.1343                 0.4623
 IR Inten    --      0.7861                16.0608                47.3461

                     19                     20                     21
                      A                      A                      A
 Frequencies --    818.5493               928.8945              1090.5955
 Red. masses --      1.2445                 1.9596                 2.8739
 Frc consts  --      0.4913                 0.9962                 2.0139
 IR Inten    --     17.5363                14.5743                22.6227

                     22                     23                     24
                      A                      A                      A
 Frequencies --   1114.3646              1175.0943              1255.7813
 Red. masses --      4.8375                 1.9818                 2.8728
 Frc consts  --      3.5394                 1.6123                 2.6692
 IR Inten    --     68.6640                94.1457               373.7411

                     25                     26                     27
                      A                      A                      A
 Frequencies --   1336.8348              1345.4424              1400.2867
 Red. masses --      1.1953                 1.3273                 1.0482
 Frc consts  --      1.2586                 1.4156                 1.2110
 IR Inten    --     44.8102               108.4389                28.2490

                     28                     29                     30
                      A                      A                      A
 Frequencies --   1421.3952              1480.1993              1519.6743
 Red. masses --      1.3309                 1.1126                 1.0931
 Frc consts  --      1.5843                 1.4363                 1.4874
 IR Inten    --     24.1864                10.1458                22.8690

                     31                     32                     33
                      A                      A                      A
 Frequencies --   1866.4131              2245.9304              2252.0480
 Red. masses --     12.9132                 1.1924                 4.1922
 Frc consts  --     26.5034                 3.5437                12.5270
 IR Inten    --    579.5779              1078.0128               166.3907

                     34                     35                     36
                      A                      A                      A
 Frequencies --   3099.9680              3109.3152              3156.2780
 Red. masses --      1.0596                 1.0602                 1.1048
 Frc consts  --      5.9991                 6.0389                 6.4845
 IR Inten    --      0.0518                19.4175                 2.5054

                     37                     38                     39
                      A                      A                      A
 Frequencies --   3177.4269              3488.3525              3786.2313
 Red. masses --      1.1070                 1.1699                 1.0671
 Frc consts  --      6.5848                 8.3874                 9.0133
 IR Inten    --     13.3370                59.8427                49.8489

 - Thermochemistry -
 -------------------
 Temperature   298.150 Kelvin.  Pressure   1.00000 Atm.
 Atom     1 has atomic number  6 and mass  12.00000

 Molecular mass:   115.03952 amu.
 Principal axes and moments of inertia in atomic units:
                           1         2         3
     Eigenvalues --   542.159161800.322712198.66997
           X            0.99972   0.02202  -0.00858
           Y           -0.02203   0.99976  -0.00095
           Z            0.00856   0.00114   0.99996
 This molecule is an asymmetric top.
 Rotational symmetry number  1.
 Warning -- assumption of classical behavior for rotation
           may cause significant error
 Rotational temperatures (Kelvin)      0.15976     0.04811     0.03939
 Rotational constants (GHZ):           3.32880     1.00245     0.82083
    3 imaginary frequencies ignored.
 Zero-point vibrational energy     284848.3 (Joules/Mol)
                                   68.08037 (Kcal/Mol)
 Warning -- explicit consideration of   9 degrees of freedom as
           vibrations may cause significant error
 Vibrational temperatures:     93.84   144.88   210.37   234.26   265.22
          (Kelvin)            374.46   502.49   560.82   787.72   908.67
                              980.10  1057.00  1085.95  1107.34  1116.38
                             1177.71  1336.47  1569.12  1603.32  1690.70
                             1806.79  1923.41  1935.79  2014.70  2045.07
                             2129.68  2186.47  2685.35  3231.39  3240.19
                             4460.16  4473.61  4541.18  4571.61  5018.96
                             5447.54

 Zero-point correction=                           0.108493 (Hartree/Particle)
 Thermal correction to Energy=                    0.116941
 Thermal correction to Enthalpy=                  0.117885
 Thermal correction to Gibbs Free Energy=         0.073873
 Sum of electronic and zero-point Energies=           -420.080954
 Sum of electronic and thermal Energies=              -420.072507
 Sum of electronic and thermal Enthalpies=            -420.071562
 Sum of electronic and thermal Free Energies=         -420.115574

                     E (Thermal)             CV                S
                      KCal/Mol        Cal/Mol-Kelvin    Cal/Mol-Kelvin
 Total                   73.381             28.887             92.631
 Electronic               0.000              0.000              1.377
 Translational            0.889              2.981             40.136
 Rotational               0.889              2.981             29.152
 Vibrational             71.604             22.925             21.966
 Vibration     1          0.597              1.971              4.293
 Vibration     2          0.604              1.949              3.441
 Vibration     3          0.617              1.907              2.721
 Vibration     4          0.623              1.888              2.517
 Vibration     5          0.631              1.861              2.284
 Vibration     6          0.668              1.745              1.660
 Vibration     7          0.727              1.577              1.170
 Vibration     8          0.758              1.492              1.001
 Vibration     9          0.903              1.145              0.549

 1\1\GINC-AJ\Freq\UM062X\6-311++G(d,p)\C5H7O3(2)\AAYUSH\02-Apr-2025\0\\
 # freq 6-311++g(d,p) m062x\\Title Card Required\\0,2\C,1.261565,2.2494
 73,-0.059395\H,1.186415,3.311888,-0.074032\C,1.353208,1.054065,-0.0424
 48\C,1.545261,-0.398148,0.007414\O,2.596337,-0.883131,0.299579\O,0.489
 882,-1.160542,-0.302949\C,-0.795305,-0.571973,-0.56057\C,-1.502003,-0.
 263617,0.738009\H,-0.684632,0.319553,-1.180255\H,-1.330904,-1.327523,-
 1.132402\H,-1.649615,-1.157255,1.344298\H,-1.000205,0.513042,1.317086\
 H,-2.498294,0.172031,0.477534\O,-3.834812,0.393555,-0.129314\H,-4.3178

 Normal termination of Gaussian 16 at Wed Apr  2 01:26:25 2025.
