 Gaussian 16, Revision A.03,
 Gaussian 16:  ES64L-G16RevA.03 25-Dec-2016

 --------------------------
 # freq 6-311++g(d,p) m062x
 --------------------------

 -------------------
 Title Card Required
 -------------------
 Symbolic Z-matrix:
 Charge =  0 Multiplicity = 2

                         Standard orientation:
 ---------------------------------------------------------------------
 Center     Atomic      Atomic             Coordinates (Angstroms)
 Number     Number       Type             X           Y           Z
 ---------------------------------------------------------------------
      1          6           0        1.348499    2.236176   -0.068115
      2          1           0        1.273190    3.298782   -0.083993
      3          6           0        1.440171    1.040802   -0.050221
      4          6           0        1.633402   -0.409837    0.001285
      5          8           0        2.682606   -0.896693    0.292917
      6          8           0        0.574199   -1.173715   -0.306940
      7          6           0       -0.712838   -0.583751   -0.571364
      8          6           0       -1.422652   -0.277830    0.722768
      9          1           0       -0.598976    0.307042   -1.190089
     10          1           0       -1.245270   -1.341712   -1.141784
     11          1           0       -1.616045   -1.156796    1.334694
     12          1           0       -1.011302    0.555920    1.289293
     13          1           0       -2.687274    0.179177    0.311680
     14          8           0       -3.708118    0.372354   -0.121176
     15          1           0       -4.223313   -0.291350    0.355671
 ---------------------------------------------------------------------

 SCF Done:  E(UM062X) =  -420.196804934     A.U. after   18 cycles

 The electronic state is 2-A.
 Alpha  occ. eigenvalues --  -19.69487 -19.64062 -19.63764 -10.71639 -10.62871
 Alpha  occ. eigenvalues --  -10.59095 -10.58643 -10.58188  -1.26284  -1.17733
 Alpha  occ. eigenvalues --   -1.12962  -0.90623  -0.90137  -0.78778  -0.74790
 Alpha  occ. eigenvalues --   -0.65648  -0.62585  -0.60732  -0.59537  -0.57529
 Alpha  occ. eigenvalues --   -0.54952  -0.50885  -0.50008  -0.49701  -0.44598
 Alpha  occ. eigenvalues --   -0.41238  -0.40580  -0.40122  -0.38495  -0.37266
 Alpha  occ. eigenvalues --   -0.33711
 Alpha virt. eigenvalues --   -0.02962  -0.01146  -0.00067   0.01076   0.01912
 Alpha virt. eigenvalues --    0.02373   0.03635   0.04079   0.05012   0.06639
 Alpha virt. eigenvalues --    0.06779   0.07205   0.07895   0.08918   0.10261

  Beta  occ. eigenvalues --  -19.69365 -19.63752 -19.63358 -10.71641 -10.62897
  Beta  occ. eigenvalues --  -10.58642 -10.58491 -10.58188  -1.26044  -1.17547
  Beta  occ. eigenvalues --   -1.10272  -0.90225  -0.89099  -0.77656  -0.74114
  Beta  occ. eigenvalues --   -0.65209  -0.62423  -0.59384  -0.57980  -0.56222
  Beta  occ. eigenvalues --   -0.54455  -0.50029  -0.48982  -0.46460  -0.44149
  Beta  occ. eigenvalues --   -0.40766  -0.39845  -0.39123  -0.38330  -0.37170
  Beta virt. eigenvalues --   -0.11075  -0.02914  -0.00973   0.00032   0.01134
  Beta virt. eigenvalues --    0.02017   0.02725   0.03707   0.04151   0.05098
  Beta virt. eigenvalues --    0.06697   0.06777   0.07114   0.08001   0.08948

 Mulliken charges and spin densities:
               1          2
     1  C   -1.345582  -0.019097
     2  H    0.202390  -0.000442
     3  C    1.553776   0.006536
     4  C   -0.203425   0.013360
     5  O   -0.239346   0.005119
     6  O   -0.029348   0.025682
     7  C   -0.295742  -0.011337
     8  C   -0.515474   0.754973
     9  H    0.188830   0.001832
    10  H    0.205878  -0.000569
    11  H    0.223689  -0.025317
    12  H    0.176154  -0.017373
    13  H    0.293795  -0.061363
    14  O   -0.462929   0.328766
    15  H    0.247335  -0.000768
 Sum of Mulliken charges =  -0.00000   1.00000

 Dipole moment (field-independent basis, Debye):
    X=             -2.2926    Y=              1.4784    Z=              0.6868  Tot=              2.8131
 Quadrupole moment (field-independent basis, Debye-Ang):
   XX=            -60.9636   YY=            -43.1932   ZZ=            -46.8318
   XY=             13.1574   XZ=             -6.2310   YZ=             -0.0275

  Exact polarizability:  95.033  -4.616  78.497   5.919  -1.702  51.150
 Approx polarizability:  94.088 -10.095  99.955   8.452  -3.201  60.536

 ******    1 imaginary frequencies (negative Signs) ******

                      1                      2                      3
                      A                      A                      A
 Frequencies --  -1185.2207                23.2597                59.0845
 Red. masses --      1.1539                 4.4920                 5.9074
 Frc consts  --      0.9551                 0.0014                 0.0122
 IR Inten    --    187.5525                 4.7477                 3.7939

                      4                      5                      6
                      A                      A                      A
 Frequencies --     95.9143               139.6030               177.6831
 Red. masses --      3.2009                 5.4992                 3.4844
 Frc consts  --      0.0173                 0.0631                 0.0648
 IR Inten    --      0.0890                 2.5693                 2.0252

                      7                      8                      9
                      A                      A                      A
 Frequencies --    201.0482               258.0258               323.4630
 Red. masses --      1.0889                 5.0281                 3.6109
 Frc consts  --      0.0259                 0.1972                 0.2226
 IR Inten    --    110.9569                 0.6701                 8.9476

                     10                     11                     12
                      A                      A                      A
 Frequencies --    373.1057               454.4664               559.4212
 Red. masses --      5.5682                 1.1368                 7.1419
 Frc consts  --      0.4567                 0.1383                 1.3169
 IR Inten    --      3.7981                 8.9895                19.7049

                     13                     14                     15
                      A                      A                      A
 Frequencies --    607.2398               630.7308               735.7954
 Red. masses --      1.8166                 5.3221                 1.4071
 Frc consts  --      0.3947                 1.2475                 0.4488
 IR Inten    --      5.1680                 1.3381                98.8977

                     16                     17                     18
                      A                      A                      A
 Frequencies --    738.4482               767.1862               772.7128
 Red. masses --      1.3390                 9.5046                 3.1486
 Frc consts  --      0.4302                 3.2960                 1.1077
 IR Inten    --      9.4282                24.4756                 4.2442

                     19                     20                     21
                      A                      A                      A
 Frequencies --    779.2965               818.7387               949.6877
 Red. masses --      1.2885                 1.2218                 1.1810
 Frc consts  --      0.4611                 0.4825                 0.6276
 IR Inten    --     41.0469                 6.9469                58.0635

                     22                     23                     24
                      A                      A                      A
 Frequencies --   1059.5516              1090.2808              1168.2262
 Red. masses --      3.5650                 5.8961                 1.7223
 Frc consts  --      2.3581                 4.1295                 1.3849
 IR Inten    --     13.6513                70.5062                66.2930

                     25                     26                     27
                      A                      A                      A
 Frequencies --   1174.5010              1252.8411              1339.1720
 Red. masses --      1.5558                 2.8969                 1.2029
 Frc consts  --      1.2645                 2.6790                 1.2710
 IR Inten    --     74.6173               375.4757               100.1211

                     28                     29                     30
                      A                      A                      A
 Frequencies --   1408.8911              1466.8560              1514.9364
 Red. masses --      1.3122                 1.1703                 1.0911
 Frc consts  --      1.5346                 1.4837                 1.4754
 IR Inten    --     27.3414                 8.1791                23.2428

                     31                     32                     33
                      A                      A                      A
 Frequencies --   1532.2060              1870.2432              2252.1782
 Red. masses --      1.0520                13.0385                 5.7226
 Frc consts  --      1.4551                26.8703                17.1021
 IR Inten    --     43.0649               524.3345                57.8885

                     34                     35                     36
                      A                      A                      A
 Frequencies --   3111.0084              3119.8410              3170.1681
 Red. masses --      1.0593                 1.0544                 1.1069
 Frc consts  --      6.0405                 6.0468                 6.5544
 IR Inten    --      3.8920                 7.0651                 2.8161

                     37                     38                     39
                      A                      A                      A
 Frequencies --   3208.4191              3486.6058              3855.6149
 Red. masses --      1.1122                 1.1703                 1.0662
 Frc consts  --      6.7458                 8.3820                 9.3384
 IR Inten    --      3.5630                61.5484                68.1620

 - Thermochemistry -
 -------------------
 Temperature   298.150 Kelvin.  Pressure   1.00000 Atm.
 Atom     1 has atomic number  6 and mass  12.00000

 Molecular mass:   115.03952 amu.
 Principal axes and moments of inertia in atomic units:
                           1         2         3
     Eigenvalues --   540.708771789.135392188.48260
           X            0.99973   0.02153  -0.00827
           Y           -0.02153   0.99977  -0.00032
           Z            0.00826   0.00050   0.99997
 This molecule is an asymmetric top.
 Rotational symmetry number  1.
 Warning -- assumption of classical behavior for rotation
           may cause significant error
 Rotational temperatures (Kelvin)      0.16019     0.04841     0.03958
 Rotational constants (GHZ):           3.33773     1.00872     0.82465
    1 imaginary frequencies ignored.
 Zero-point vibrational energy     278409.6 (Joules/Mol)
                                   66.54149 (Kcal/Mol)
 Warning -- explicit consideration of  12 degrees of freedom as
           vibrations may cause significant error
 Vibrational temperatures:     33.47    85.01   138.00   200.86   255.65
          (Kelvin)            289.26   371.24   465.39   536.82   653.88
                              804.88   873.68   907.48  1058.65  1062.46
                             1103.81  1111.76  1121.23  1177.98  1366.39
                             1524.46  1568.67  1680.82  1689.84  1802.56
                             1926.77  2027.08  2110.48  2179.66  2204.50
                             2690.86  3240.38  4476.05  4488.76  4561.16
                             4616.20  5016.45  5547.37

 Zero-point correction=                           0.106041 (Hartree/Particle)
 Thermal correction to Energy=                    0.115802
 Thermal correction to Enthalpy=                  0.116746
 Thermal correction to Gibbs Free Energy=         0.069068
 Sum of electronic and zero-point Energies=           -420.090764
 Sum of electronic and thermal Energies=              -420.081003
 Sum of electronic and thermal Enthalpies=            -420.080059
 Sum of electronic and thermal Free Energies=         -420.127737

                     E (Thermal)             CV                S
                      KCal/Mol        Cal/Mol-Kelvin    Cal/Mol-Kelvin
 Total                   72.667             33.223            100.345
 Electronic               0.000              0.000              1.377
 Translational            0.889              2.981             40.136
 Rotational               0.889              2.981             29.139
 Vibrational             70.889             27.262             29.693
 Vibration     1          0.593              1.985              6.334
 Vibration     2          0.596              1.974              4.488
 Vibration     3          0.603              1.952              3.536
 Vibration     4          0.615              1.914              2.809
 Vibration     5          0.628              1.870              2.353
 Vibration     6          0.638              1.838              2.123
 Vibration     7          0.667              1.749              1.675
 Vibration     8          0.708              1.628              1.293
 Vibration     9          0.745              1.527              1.067
 Vibration    10          0.813              1.351              0.782
 Vibration    11          0.915              1.119              0.525
 Vibration    12          0.966              1.016              0.437

 1\1\GINC-AJ\Freq\UM062X\6-311++G(d,p)\C5H7O3(2)\AAYUSH\02-Apr-2025\0\\
 # freq 6-311++g(d,p) m062x\\Title Card Required\\0,2\C,1.261255,2.2495
 32,-0.059286\H,1.185934,3.312149,-0.074379\C,1.352941,1.054146,-0.0422
 76\C,1.546196,-0.396528,0.008135\O,2.59548,-0.883586,0.29914\O,0.48691
 7,-1.160192,-0.300361\C,-0.800194,-0.570047,-0.564021\C,-1.509669,-0.2
 65063,0.730518\H,-0.686501,0.321192,-1.182135\H,-1.332771,-1.327602,-1
 .134846\H,-1.702894,-1.144471,1.341862\H,-1.098176,0.568282,1.297534\H
 ,-2.774403,0.19223,0.320092\O,-3.795362,0.385711,-0.112356\H,-4.310427

 Normal termination of Gaussian 16 at Wed Apr  2 01:35:47 2025.
