 Gaussian 16, Revision A.03,
 Gaussian 16:  ES64L-G16RevA.03 25-Dec-2016

 --------------------------
 # ccsd(t)/6-311++g(d,p) sp
 --------------------------

 -------------------
 Title Card Required
 -------------------
 Symbolic Z-matrix:
 Charge =  0 Multiplicity = 2

                         Standard orientation:
 ---------------------------------------------------------------------
 Center     Atomic      Atomic             Coordinates (Angstroms)
 Number     Number       Type             X           Y           Z
 ---------------------------------------------------------------------
      1          6           0        1.347286    2.236465   -0.067890
      2          1           0        1.272152    3.299004   -0.083188
      3          6           0        1.438783    1.041076   -0.050523
      4          6           0        1.631320   -0.410094    0.000178
      5          8           0        2.681062   -0.896692    0.291803
      6          8           0        0.572883   -1.173058   -0.308516
      7          6           0       -0.712945   -0.583565   -0.571263
      8          6           0       -1.430125   -0.274954    0.721213
      9          1           0       -0.600292    0.307674   -1.190123
     10          1           0       -1.246590   -1.340434   -1.142388
     11          1           0       -1.598811   -1.158950    1.334898
     12          1           0       -0.989565    0.541794    1.292780
     13          1           0       -2.537161    0.145442    0.377677
     14          8           0       -3.719278    0.375712   -0.125741
     15          1           0       -4.222974   -0.295796    0.359690
 ---------------------------------------------------------------------

 SCF Done:  E(UHF) =  -417.950751763     A.U. after   33 cycles
 E2 =    -0.1285237450D+01 EUMP2 =    -0.41923598921323D+03
 CCSD(T)= -0.41933778429D+03

 The electronic state is 2-A.
 Alpha  occ. eigenvalues --  -20.63644 -20.61492 -20.55912 -11.41841 -11.30989
 Alpha  occ. eigenvalues --  -11.27723 -11.26977 -11.25779  -1.47950  -1.40189
 Alpha  occ. eigenvalues --   -1.38570  -1.07832  -1.06351  -0.92455  -0.88076
 Alpha  occ. eigenvalues --   -0.76142  -0.74176  -0.73107  -0.69869  -0.67804
 Alpha  occ. eigenvalues --   -0.66066  -0.64036  -0.58512  -0.56926  -0.56269
 Alpha  occ. eigenvalues --   -0.52383  -0.49400  -0.47674  -0.45657  -0.43383
 Alpha  occ. eigenvalues --   -0.43143
 Alpha virt. eigenvalues --    0.03254   0.03810   0.05558   0.06699   0.07095
 Alpha virt. eigenvalues --    0.07826   0.08927   0.09478   0.11469   0.12158
 Alpha virt. eigenvalues --    0.12747   0.13376   0.14622   0.15270   0.16220

  Beta  occ. eigenvalues --  -20.61369 -20.60100 -20.55918 -11.41841 -11.31082
  Beta  occ. eigenvalues --  -11.27716 -11.26983 -11.24525  -1.47775  -1.38446
  Beta  occ. eigenvalues --   -1.27680  -1.07828  -1.04429  -0.91270  -0.86945
  Beta  occ. eigenvalues --   -0.75912  -0.73415  -0.69769  -0.67287  -0.65936
  Beta  occ. eigenvalues --   -0.63890  -0.58132  -0.56425  -0.52734  -0.52300
  Beta  occ. eigenvalues --   -0.51123  -0.48226  -0.46683  -0.43424  -0.43215
  Beta virt. eigenvalues --    0.02950   0.03576   0.04351   0.05582   0.07031
  Beta virt. eigenvalues --    0.07774   0.08350   0.08951   0.09589   0.11545
  Beta virt. eigenvalues --    0.12231   0.12786   0.13402   0.14629   0.15293

 Mulliken charges and spin densities:
               1          2
     1  C   -1.754629   0.008536
     2  H    0.225520  -0.000322
     3  C    1.947983  -0.005662
     4  C   -0.061524  -0.001660
     5  O   -0.331188  -0.001663
     6  O   -0.146666   0.010696
     7  C   -0.159245  -0.035099
     8  C   -0.521261   0.510139
     9  H    0.154815   0.002481
    10  H    0.184636  -0.000279
    11  H    0.186954  -0.028525
    12  H    0.146643  -0.025453
    13  H    0.174530  -0.196306
    14  O   -0.303213   0.790238
    15  H    0.256644  -0.027120
 Sum of Mulliken charges =  -0.00000   1.00000

 Dipole moment (field-independent basis, Debye):
    X=             -4.2807    Y=              2.0682    Z=              0.2607  Tot=              4.7613
 Quadrupole moment (field-independent basis, Debye-Ang):
   XX=            -54.3118   YY=            -43.4275   ZZ=            -47.1817
   XY=             12.8501   XZ=             -5.3615   YZ=             -0.1114

 \PMP3-0=-419.2607969\MP4SDQ=-419.2836059\CCSD=-419.2828323\CCSD(T)=-41
 Normal termination of Gaussian 16 at Sun May  4 09:51:30 2025.
