 Gaussian 16, Revision A.03,
 Gaussian 16:  ES64L-G16RevA.03 25-Dec-2016

 --------------------------
 # freq 6-311++g(d,p) m062x
 --------------------------

 -------------------
 Title Card Required
 -------------------
 Symbolic Z-matrix:
 Charge =  0 Multiplicity = 2

                         Standard orientation:
 ---------------------------------------------------------------------
 Center     Atomic      Atomic             Coordinates (Angstroms)
 Number     Number       Type             X           Y           Z
 ---------------------------------------------------------------------
      1          6           0        1.346885    2.236626   -0.067821
      2          1           0        1.271661    3.299143   -0.082901
      3          6           0        1.438455    1.041238   -0.050619
      4          6           0        1.630955   -0.410056   -0.000164
      5          8           0        2.680910   -0.896481    0.291389
      6          8           0        0.572822   -1.172899   -0.308959
      7          6           0       -0.712869   -0.583600   -0.571134
      8          6           0       -1.430337   -0.274890    0.721418
      9          1           0       -0.600529    0.307742   -1.190069
     10          1           0       -1.246654   -1.340290   -1.142517
     11          1           0       -1.594602   -1.159931    1.334999
     12          1           0       -0.983454    0.537963    1.293931
     13          1           0       -2.514106    0.142279    0.389713
     14          8           0       -3.722144    0.376131   -0.126605
     15          1           0       -4.223561   -0.296821    0.360164
 ---------------------------------------------------------------------

 SCF Done:  E(UM062X) =  -420.188478842     A.U. after   21 cycles

 The electronic state is 2-A.
 Alpha  occ. eigenvalues --  -19.68886 -19.67023 -19.63317 -10.71225 -10.62239
 Alpha  occ. eigenvalues --  -10.58289 -10.57856 -10.57520  -1.25774  -1.17234
 Alpha  occ. eigenvalues --   -1.13970  -0.90109  -0.89756  -0.78503  -0.74431
 Alpha  occ. eigenvalues --   -0.65047  -0.62240  -0.60207  -0.58885  -0.56904
 Alpha  occ. eigenvalues --   -0.54324  -0.52885  -0.49582  -0.48844  -0.43947
 Alpha  occ. eigenvalues --   -0.42629  -0.40888  -0.39647  -0.38340  -0.36992
 Alpha  occ. eigenvalues --   -0.36363
 Alpha virt. eigenvalues --   -0.02593  -0.01273  -0.00001   0.01189   0.01977
 Alpha virt. eigenvalues --    0.02335   0.03831   0.04197   0.05162   0.06600
 Alpha virt. eigenvalues --    0.06933   0.07281   0.08069   0.09049   0.10319

  Beta  occ. eigenvalues --  -19.68822 -19.65767 -19.63311 -10.71226 -10.62252
  Beta  occ. eigenvalues --  -10.58288 -10.57856 -10.57152  -1.25648  -1.17136
  Beta  occ. eigenvalues --   -1.09067  -0.89877  -0.89073  -0.77736  -0.74053
  Beta  occ. eigenvalues --   -0.64826  -0.62116  -0.58948  -0.57478  -0.54991
  Beta  occ. eigenvalues --   -0.53946  -0.49630  -0.48418  -0.46168  -0.43478
  Beta  occ. eigenvalues --   -0.40308  -0.39829  -0.39192  -0.37893  -0.36800
  Beta virt. eigenvalues --   -0.12358  -0.02563  -0.00983   0.00092   0.01250
  Beta virt. eigenvalues --    0.02147   0.02596   0.03873   0.04253   0.05262
  Beta virt. eigenvalues --    0.06734   0.07022   0.07300   0.08196   0.09100

 Mulliken charges and spin densities:
               1          2
     1  C   -1.332169  -0.009030
     2  H    0.201161  -0.000247
     3  C    1.552119   0.001202
     4  C   -0.216778   0.007872
     5  O   -0.243683   0.002947
     6  O   -0.033381   0.013390
     7  C   -0.295388  -0.002342
     8  C   -0.509594   0.411899
     9  H    0.182133  -0.000205
    10  H    0.202431  -0.001238
    11  H    0.214615  -0.014403
    12  H    0.163767  -0.004684
    13  H    0.222928  -0.056969
    14  O   -0.355069   0.663875
    15  H    0.246908  -0.012065
 Sum of Mulliken charges =  -0.00000   1.00000

 Dipole moment (field-independent basis, Debye):
    X=             -3.1499    Y=              1.6289    Z=              0.4844  Tot=              3.5790
 Quadrupole moment (field-independent basis, Debye-Ang):
   XX=            -56.8649   YY=            -43.3510   ZZ=            -46.9667
   XY=             12.4728   XZ=             -5.5365   YZ=             -0.1204

  Exact polarizability: 102.367  -5.988  78.823   7.911  -2.064  51.406
 Approx polarizability:  97.128 -10.774 100.299   9.929  -3.681  60.802

 ******    1 imaginary frequencies (negative Signs) ******

                      1                      2                      3
                      A                      A                      A
 Frequencies --  -1256.9575                51.2538                64.2008
 Red. masses --      1.1469                 5.9099                 6.7208
 Frc consts  --      1.0676                 0.0091                 0.0163
 IR Inten    --   1651.6214                 5.9296                 3.3853

                      4                      5                      6
                      A                      A                      A
 Frequencies --    101.6772               113.1265               155.1290
 Red. masses --      2.9152                 4.0637                 1.1643
 Frc consts  --      0.0178                 0.0306                 0.0165
 IR Inten    --      2.4989                 0.3317               113.5534

                      7                      8                      9
                      A                      A                      A
 Frequencies --    180.0534               259.0636               310.4786
 Red. masses --      3.3626                 5.0302                 2.3533
 Frc consts  --      0.0642                 0.1989                 0.1337
 IR Inten    --      6.1135                 0.5791                 5.0838

                     10                     11                     12
                      A                      A                      A
 Frequencies --    372.6689               406.0031               556.8416
 Red. masses --      3.2796                 1.5135                 5.9739
 Frc consts  --      0.2684                 0.1470                 1.0914
 IR Inten    --      1.2798                 8.2990                29.5343

                     13                     14                     15
                      A                      A                      A
 Frequencies --    630.9988               736.2309               742.5317
 Red. masses --      5.7522                 1.3180                 1.3910
 Frc consts  --      1.3494                 0.4209                 0.4519
 IR Inten    --      1.4776                24.7352                31.8900

                     16                     17                     18
                      A                      A                      A
 Frequencies --    757.5706               769.1911               777.7159
 Red. masses --      4.6768                 9.8179                 1.2902
 Frc consts  --      1.5814                 3.4224                 0.4598
 IR Inten    --     28.3975                18.7998                44.0565

                     19                     20                     21
                      A                      A                      A
 Frequencies --    831.0125               850.7725              1010.8923
 Red. masses --      2.2095                 1.2547                 2.0668
 Frc consts  --      0.8990                 0.5351                 1.2444
 IR Inten    --    262.8544                28.8444                71.7962

                     22                     23                     24
                      A                      A                      A
 Frequencies --   1101.3117              1139.1944              1176.6640
 Red. masses --      3.6492                 1.7166                 1.9334
 Frc consts  --      2.6078                 1.3126                 1.5772
 IR Inten    --     48.9163               123.8878               123.5831

                     25                     26                     27
                      A                      A                      A
 Frequencies --   1251.1298              1286.4781              1340.9454
 Red. masses --      2.4775                 1.3077                 1.2312
 Frc consts  --      2.2849                 1.2752                 1.3043
 IR Inten    --    371.9849                36.6991               107.9133

                     28                     29                     30
                      A                      A                      A
 Frequencies --   1372.3705              1414.9030              1474.4261
 Red. masses --      1.0311                 1.3257                 1.1502
 Frc consts  --      1.1441                 1.5637                 1.4732
 IR Inten    --     12.9328                21.9155                 7.0318

                     31                     32                     33
                      A                      A                      A
 Frequencies --   1517.2051              1868.7176              2252.0337
 Red. masses --      1.0931                12.9929                 5.7258
 Frc consts  --      1.4826                26.7328                17.1094
 IR Inten    --     17.6459               522.9214                55.4549

                     34                     35                     36
                      A                      A                      A
 Frequencies --   3105.6121              3114.0643              3164.3976
 Red. masses --      1.0589                 1.0576                 1.1063
 Frc consts  --      6.0171                 6.0425                 6.5271
 IR Inten    --      0.7555                11.1335                 2.8313

                     37                     38                     39
                      A                      A                      A
 Frequencies --   3191.1951              3487.4688              3807.9433
 Red. masses --      1.1096                 1.1701                 1.0671
 Frc consts  --      6.6576                 8.3848                 9.1166
 IR Inten    --      7.2025                60.4967                66.3998

 - Thermochemistry -
 -------------------
 Temperature   298.150 Kelvin.  Pressure   1.00000 Atm.
 Atom     1 has atomic number  6 and mass  12.00000

 Molecular mass:   115.03952 amu.
 Principal axes and moments of inertia in atomic units:
                           1         2         3
     Eigenvalues --   540.947971791.416692190.50135
           X            0.99972   0.02195  -0.00849
           Y           -0.02196   0.99976  -0.00058
           Z            0.00847   0.00077   0.99996
 This molecule is an asymmetric top.
 Rotational symmetry number  1.
 Warning -- assumption of classical behavior for rotation
           may cause significant error
 Rotational temperatures (Kelvin)      0.16012     0.04835     0.03954
 Rotational constants (GHZ):           3.33626     1.00744     0.82389
    1 imaginary frequencies ignored.
 Zero-point vibrational energy     279588.1 (Joules/Mol)
                                   66.82315 (Kcal/Mol)
 Warning -- explicit consideration of  11 degrees of freedom as
           vibrations may cause significant error
 Vibrational temperatures:     73.74    92.37   146.29   162.76   223.20
          (Kelvin)            259.06   372.73   446.71   536.19   584.15
                              801.17   907.87  1059.27  1068.34  1089.98
                             1106.69  1118.96  1195.64  1224.07  1454.45
                             1584.54  1639.05  1692.96  1800.10  1850.96
                             1929.32  1974.54  2035.73  2121.37  2182.92
                             2688.67  3240.17  4468.28  4480.44  4552.86
                             4591.42  5017.69  5478.78

 Zero-point correction=                           0.106489 (Hartree/Particle)
 Thermal correction to Energy=                    0.116235
 Thermal correction to Enthalpy=                  0.117179
 Thermal correction to Gibbs Free Energy=         0.070013
 Sum of electronic and zero-point Energies=           -420.081989
 Sum of electronic and thermal Energies=              -420.072244
 Sum of electronic and thermal Enthalpies=            -420.071300
 Sum of electronic and thermal Free Energies=         -420.118466

                     E (Thermal)             CV                S
                      KCal/Mol        Cal/Mol-Kelvin    Cal/Mol-Kelvin
 Total                   72.939             32.800             99.269
 Electronic               0.000              0.000              1.377
 Translational            0.889              2.981             40.136
 Rotational               0.889              2.981             29.141
 Vibrational             71.161             26.839             28.615
 Vibration     1          0.596              1.977              4.768
 Vibration     2          0.597              1.971              4.324
 Vibration     3          0.604              1.948              3.422
 Vibration     4          0.607              1.939              3.215
 Vibration     5          0.620              1.897              2.608
 Vibration     6          0.629              1.867              2.328
 Vibration     7          0.668              1.747              1.668
 Vibration     8          0.699              1.654              1.360
 Vibration     9          0.744              1.528              1.069
 Vibration    10          0.771              1.457              0.941
 Vibration    11          0.912              1.125              0.530

 1\1\GINC-AJ\Freq\UM062X\6-311++G(d,p)\C5H7O3(2)\AAYUSH\02-Apr-2025\0\\
 # freq 6-311++g(d,p) m062x\\Title Card Required\\0,2\C,1.261306,2.2495
 48,-0.059302\H,1.185965,3.31206,-0.074202\C,1.353007,1.054168,-0.04230
 4\C,1.54567,-0.397114,0.007895\O,2.595711,-0.883472,0.299248\O,0.48758
 3,-1.160021,-0.300901\C,-0.798202,-0.570819,-0.562832\C,-1.515553,-0.2
 62395,0.729853\H,-0.68603,0.320635,-1.181636\H,-1.331971,-1.327474,-1.
 134275\H,-1.679652,-1.147553,1.343311\H,-1.068692,0.550414,1.302446\H,
 -2.599406,0.15471,0.398341\O,-3.807529,0.388515,-0.117799\H,-4.308817,

 Normal termination of Gaussian 16 at Wed Apr  2 04:44:39 2025.
