 Gaussian 16, Revision A.03,
 Gaussian 16:  ES64L-G16RevA.03 25-Dec-2016

 --------------------------
 # ccsd(t)/6-311++g(d,p) sp
 --------------------------

 -------------------
 Title Card Required
 -------------------
 Symbolic Z-matrix:
 Charge =  0 Multiplicity = 2

                         Standard orientation:
 ---------------------------------------------------------------------
 Center     Atomic      Atomic             Coordinates (Angstroms)
 Number     Number       Type             X           Y           Z
 ---------------------------------------------------------------------
      1          6           0        1.340786    2.239544   -0.067121
      2          1           0        1.263715    3.301830   -0.079568
      3          6           0        1.434606    1.044260   -0.052563
      4          6           0        1.629389   -0.407944   -0.005822
      5          8           0        2.682076   -0.890996    0.284156
      6          8           0        0.575891   -1.171840   -0.316842
      7          6           0       -0.711015   -0.584952   -0.568854
      8          6           0       -1.408011   -0.280732    0.735964
      9          1           0       -0.603678    0.308008   -1.187137
     10          1           0       -1.247597   -1.339919   -1.140585
     11          1           0       -1.553923   -1.179708    1.335001
     12          1           0       -0.883191    0.478232    1.318529
     13          1           0       -2.391291    0.171487    0.502752
     14          8           0       -3.765574    0.376621   -0.137367
     15          1           0       -4.237715   -0.311269    0.361813
 ---------------------------------------------------------------------

 SCF Done:  E(UHF) =  -417.969263165     A.U. after   36 cycles
 E2 =    -0.1270748060D+01 EUMP2 =    -0.41924001122591D+03
 CCSD(T)= -0.41934087444D+03

 The electronic state is 2-A.
 Alpha  occ. eigenvalues --  -20.65534 -20.60978 -20.55508 -11.41472 -11.30354
 Alpha  occ. eigenvalues --  -11.27366 -11.26670 -11.23353  -1.47565  -1.41572
 Alpha  occ. eigenvalues --   -1.38139  -1.07481  -1.05501  -0.92001  -0.87633
 Alpha  occ. eigenvalues --   -0.75640  -0.73539  -0.72582  -0.69908  -0.69242
 Alpha  occ. eigenvalues --   -0.65931  -0.63318  -0.58285  -0.57794  -0.55817
 Alpha  occ. eigenvalues --   -0.52133  -0.50817  -0.47782  -0.46312  -0.43048
 Alpha  occ. eigenvalues --   -0.42853
 Alpha virt. eigenvalues --    0.03156   0.03804   0.05603   0.06573   0.07176
 Alpha virt. eigenvalues --    0.07995   0.09116   0.09577   0.11490   0.12173
 Alpha virt. eigenvalues --    0.12968   0.13578   0.14826   0.15390   0.16416

  Beta  occ. eigenvalues --  -20.61490 -20.60942 -20.55511 -11.41472 -11.30389
  Beta  occ. eigenvalues --  -11.27363 -11.26673 -11.22850  -1.47514  -1.38106
  Beta  occ. eigenvalues --   -1.26454  -1.07481  -1.04688  -0.91423  -0.87161
  Beta  occ. eigenvalues --   -0.75570  -0.73114  -0.69386  -0.67262  -0.65954
  Beta  occ. eigenvalues --   -0.63273  -0.58108  -0.55736  -0.53963  -0.53145
  Beta  occ. eigenvalues --   -0.51131  -0.47920  -0.46327  -0.43060  -0.42866
  Beta virt. eigenvalues --    0.03051   0.03737   0.04974   0.05629   0.07146
  Beta virt. eigenvalues --    0.07902   0.08664   0.09123   0.09589   0.11548
  Beta virt. eigenvalues --    0.12200   0.13027   0.13667   0.14826   0.15444

 Mulliken charges and spin densities:
               1          2
     1  C   -1.724917   0.005829
     2  H    0.224940  -0.000121
     3  C    1.920999  -0.002417
     4  C   -0.063763  -0.002881
     5  O   -0.335077  -0.000632
     6  O   -0.144783   0.002672
     7  C   -0.183891  -0.013561
     8  C   -0.495255   0.182716
     9  H    0.147871  -0.000763
    10  H    0.179694   0.000891
    11  H    0.173773  -0.012636
    12  H    0.126405  -0.005265
    13  H    0.150025  -0.067766
    14  O   -0.232507   0.947819
    15  H    0.256487  -0.033884
 Sum of Mulliken charges =  -0.00000   1.00000

 Dipole moment (field-independent basis, Debye):
    X=             -5.0930    Y=              2.1804    Z=              0.1172  Tot=              5.5413
 Quadrupole moment (field-independent basis, Debye-Ang):
   XX=            -50.6559   YY=            -43.5519   ZZ=            -47.3877
   XY=             12.2792   XZ=             -4.8956   YZ=             -0.1732

 59\PMP3-0=-419.2666068\MP4SDQ=-419.2892271\CCSD=-419.2877084\CCSD(T)=-
 Normal termination of Gaussian 16 at Sat May  3 06:47:33 2025.
