 Gaussian 16, Revision A.03,
 Gaussian 16:  ES64L-G16RevA.03 25-Dec-2016

 --------------------------
 # freq 6-311++g(d,p) m062x
 --------------------------

 -------------------
 Title Card Required
 -------------------
 Symbolic Z-matrix:
 Charge =  0 Multiplicity = 2

                         Standard orientation:
 ---------------------------------------------------------------------
 Center     Atomic      Atomic             Coordinates (Angstroms)
 Number     Number       Type             X           Y           Z
 ---------------------------------------------------------------------
      1          6           0        1.348208    2.236210   -0.068060
      2          1           0        1.273005    3.298803   -0.083791
      3          6           0        1.439763    1.040826   -0.050294
      4          6           0        1.632714   -0.409973    0.001009
      5          8           0        2.682028   -0.896812    0.292687
      6          8           0        0.573675   -1.173523   -0.307365
      7          6           0       -0.712903   -0.583659   -0.571392
      8          6           0       -1.425793   -0.276622    0.721969
      9          1           0       -0.599382    0.307263   -1.190128
     10          1           0       -1.245763   -1.341244   -1.141978
     11          1           0       -1.610774   -1.157262    1.334737
     12          1           0       -1.005049    0.551828    1.290219
     13          1           0       -2.636907    0.166861    0.333125
     14          8           0       -3.711266    0.373566   -0.122671
     15          1           0       -4.222564   -0.292792    0.357211
 ---------------------------------------------------------------------

 SCF Done:  E(UM062X) =  -420.192821912     A.U. after   19 cycles

 The electronic state is 2-A.
 Alpha  occ. eigenvalues --  -19.69378 -19.64835 -19.63683 -10.71564 -10.62753
 Alpha  occ. eigenvalues --  -10.58849 -10.58577 -10.58126  -1.26190  -1.17640
 Alpha  occ. eigenvalues --   -1.12964  -0.90527  -0.90068  -0.78739  -0.74727
 Alpha  occ. eigenvalues --   -0.65530  -0.62517  -0.60520  -0.59367  -0.57343
 Alpha  occ. eigenvalues --   -0.54815  -0.51243  -0.50069  -0.49557  -0.44464
 Alpha  occ. eigenvalues --   -0.41255  -0.40890  -0.40040  -0.38439  -0.37198
 Alpha  occ. eigenvalues --   -0.34275
 Alpha virt. eigenvalues --   -0.02894  -0.01168  -0.00054   0.01099   0.01929
 Alpha virt. eigenvalues --    0.02349   0.03671   0.04103   0.05039   0.06629
 Alpha virt. eigenvalues --    0.06803   0.07207   0.07928   0.08936   0.10267

  Beta  occ. eigenvalues --  -19.69271 -19.63965 -19.63672 -10.71566 -10.62776
  Beta  occ. eigenvalues --  -10.58577 -10.58305 -10.58126  -1.25979  -1.17477
  Beta  occ. eigenvalues --   -1.09678  -0.90162  -0.89157  -0.77733  -0.74162
  Beta  occ. eigenvalues --   -0.65148  -0.62368  -0.59305  -0.57801  -0.55629
  Beta  occ. eigenvalues --   -0.54364  -0.49936  -0.48864  -0.46255  -0.43986
  Beta  occ. eigenvalues --   -0.40661  -0.39774  -0.39108  -0.38245  -0.37101
  Beta virt. eigenvalues --   -0.11717  -0.02850  -0.00962   0.00048   0.01159
  Beta virt. eigenvalues --    0.02045   0.02682   0.03737   0.04172   0.05133
  Beta virt. eigenvalues --    0.06715   0.06835   0.07147   0.08046   0.08972

 Mulliken charges and spin densities:
               1          2
     1  C   -1.341924  -0.016239
     2  H    0.202203  -0.000385
     3  C    1.553303   0.004690
     4  C   -0.206789   0.012031
     5  O   -0.240174   0.004648
     6  O   -0.030320   0.022656
     7  C   -0.294373  -0.008352
     8  C   -0.517442   0.663425
     9  H    0.187494   0.001275
    10  H    0.205250  -0.000910
    11  H    0.222245  -0.022249
    12  H    0.173735  -0.013892
    13  H    0.277205  -0.068193
    14  O   -0.437297   0.424927
    15  H    0.246885  -0.003433
 Sum of Mulliken charges =  -0.00000   1.00000

 Dipole moment (field-independent basis, Debye):
    X=             -2.4544    Y=              1.5073    Z=              0.6431  Tot=              2.9512
 Quadrupole moment (field-independent basis, Debye-Ang):
   XX=            -60.1380   YY=            -43.2264   ZZ=            -46.8558
   XY=             13.0088   XZ=             -6.0611   YZ=             -0.0557

  Exact polarizability:  98.647  -5.289  78.648   6.763  -1.863  51.294
 Approx polarizability:  96.957 -10.838 100.240   9.423  -3.499  60.829

 ******    1 imaginary frequencies (negative Signs) ******

                      1                      2                      3
                      A                      A                      A
 Frequencies --  -1667.2778                55.7647                69.1497
 Red. masses --      1.0746                 5.6490                 5.7954
 Frc consts  --      1.7601                 0.0103                 0.0163
 IR Inten    --    534.3515                 4.8294                 3.1640

                      4                      5                      6
                      A                      A                      A
 Frequencies --    105.2079               147.8724               177.8306
 Red. masses --      2.8794                 4.9056                 3.2623
 Frc consts  --      0.0188                 0.0632                 0.0608
 IR Inten    --      0.6828                 1.9379                 3.8857

                      7                      8                      9
                      A                      A                      A
 Frequencies --    189.9835               258.2609               318.5967
 Red. masses --      1.1434                 5.0297                 3.7045
 Frc consts  --      0.0243                 0.1977                 0.2215
 IR Inten    --    113.5888                 0.7125                 7.7373

                     10                     11                     12
                      A                      A                      A
 Frequencies --    367.5797               464.4984               551.7184
 Red. masses --      5.0828                 1.2014                 5.8325
 Frc consts  --      0.4046                 0.1527                 1.0460
 IR Inten    --      2.0870                 6.1333                29.0838

                     13                     14                     15
                      A                      A                      A
 Frequencies --    590.5449               631.1965               737.8264
 Red. masses --      2.3515                 5.2909                 1.3175
 Frc consts  --      0.4832                 1.2420                 0.4226
 IR Inten    --      5.8390                 1.8270                39.0276

                     16                     17                     18
                      A                      A                      A
 Frequencies --    760.2949               769.1443               778.9899
 Red. masses --      3.5999                 8.0538                 1.2861
 Frc consts  --      1.2260                 2.8072                 0.4598
 IR Inten    --     22.0122                22.4642                43.1208

                     19                     20                     21
                      A                      A                      A
 Frequencies --    785.1842               839.5086               994.4148
 Red. masses --      1.3570                 1.2515                 1.4013
 Frc consts  --      0.4929                 0.5197                 0.8164
 IR Inten    --     37.0889                31.0935                30.8572

                     22                     23                     24
                      A                      A                      A
 Frequencies --   1075.0886              1096.6568              1164.9956
 Red. masses --      2.6342                 5.4315                 1.5076
 Frc consts  --      1.7938                 3.8487                 1.2055
 IR Inten    --     22.2069                65.4679                45.5640

                     25                     26                     27
                      A                      A                      A
 Frequencies --   1179.2219              1254.4776              1339.9023
 Red. masses --      1.5514                 2.8329                 1.2034
 Frc consts  --      1.2711                 2.6267                 1.2729
 IR Inten    --    112.1034               370.3005               101.1813

                     28                     29                     30
                      A                      A                      A
 Frequencies --   1408.9226              1460.3201              1472.1994
 Red. masses --      1.3068                 1.0842                 1.1296
 Frc consts  --      1.5284                 1.3623                 1.4424
 IR Inten    --     27.0711                33.7429                20.7302

                     31                     32                     33
                      A                      A                      A
 Frequencies --   1515.4362              1869.8432              2252.1374
 Red. masses --      1.0919                13.0334                 5.7232
 Frc consts  --      1.4774                26.8484                17.1033
 IR Inten    --     21.1523               530.3972                57.4272

                     34                     35                     36
                      A                      A                      A
 Frequencies --   3110.0225              3118.4231              3169.2809
 Red. masses --      1.0591                 1.0554                 1.1068
 Frc consts  --      6.0357                 6.0469                 6.5502
 IR Inten    --      2.9904                 7.6964                 2.8045

                     37                     38                     39
                      A                      A                      A
 Frequencies --   3203.8628              3486.8049              3840.8507
 Red. masses --      1.1117                 1.1702                 1.0666
 Frc consts  --      6.7234                 8.3827                 9.2707
 IR Inten    --      4.0820                61.2878                73.6642

 - Thermochemistry -
 -------------------
 Temperature   298.150 Kelvin.  Pressure   1.00000 Atm.
 Atom     1 has atomic number  6 and mass  12.00000

 Molecular mass:   115.03952 amu.
 Principal axes and moments of inertia in atomic units:
                           1         2         3
     Eigenvalues --   540.733891789.463882188.75379
           X            0.99973   0.02167  -0.00834
           Y           -0.02167   0.99977  -0.00039
           Z            0.00833   0.00057   0.99997
 This molecule is an asymmetric top.
 Rotational symmetry number  1.
 Warning -- assumption of classical behavior for rotation
           may cause significant error
 Rotational temperatures (Kelvin)      0.16018     0.04840     0.03957
 Rotational constants (GHZ):           3.33758     1.00854     0.82455
    1 imaginary frequencies ignored.
 Zero-point vibrational energy     278801.8 (Joules/Mol)
                                   66.63522 (Kcal/Mol)
 Warning -- explicit consideration of  12 degrees of freedom as
           vibrations may cause significant error
 Vibrational temperatures:     80.23    99.49   151.37   212.76   255.86
          (Kelvin)            273.34   371.58   458.39   528.87   668.31
                              793.80   849.66   908.15  1061.57  1093.89
                             1106.63  1120.79  1129.70  1207.87  1430.74
                             1546.81  1577.84  1676.17  1696.64  1804.91
                             1927.82  2027.13  2101.07  2118.17  2180.37
                             2690.29  3240.32  4474.63  4486.72  4559.89
                             4609.64  5016.73  5526.13

 Zero-point correction=                           0.106190 (Hartree/Particle)
 Thermal correction to Energy=                    0.115836
 Thermal correction to Enthalpy=                  0.116781
 Thermal correction to Gibbs Free Energy=         0.070169
 Sum of electronic and zero-point Energies=           -420.086632
 Sum of electronic and thermal Energies=              -420.076986
 Sum of electronic and thermal Enthalpies=            -420.076041
 Sum of electronic and thermal Free Energies=         -420.122653

                     E (Thermal)             CV                S
                      KCal/Mol        Cal/Mol-Kelvin    Cal/Mol-Kelvin
 Total                   72.688             33.101             98.103
 Electronic               0.000              0.000              1.377
 Translational            0.889              2.981             40.136
 Rotational               0.889              2.981             29.139
 Vibrational             70.911             27.140             27.451
 Vibration     1          0.596              1.975              4.602
 Vibration     2          0.598              1.969              4.177
 Vibration     3          0.605              1.945              3.355
 Vibration     4          0.617              1.905              2.699
 Vibration     5          0.628              1.870              2.351
 Vibration     6          0.633              1.854              2.228
 Vibration     7          0.667              1.749              1.673
 Vibration     8          0.705              1.638              1.317
 Vibration     9          0.740              1.539              1.090
 Vibration    10          0.822              1.329              0.753
 Vibration    11          0.907              1.136              0.541
 Vibration    12          0.948              1.052              0.466

 1\1\GINC-AJ\Freq\UM062X\6-311++G(d,p)\C5H7O3(2)\AAYUSH\02-Apr-2025\0\\
 # freq 6-311++g(d,p) m062x\\Title Card Required\\0,2\C,1.261266,2.2495
 35,-0.05929\H,1.185944,3.312129,-0.07435\C,1.352956,1.05415,-0.042282\
 C,1.546079,-0.396659,0.008079\O,2.595528,-0.883562,0.299163\O,0.487035
 ,-1.160135,-0.300464\C,-0.799681,-0.570249,-0.563767\C,-1.512239,-0.26
 4081,0.729983\H,-0.686431,0.321064,-1.181989\H,-1.33262,-1.327543,-1.1
 34666\H,-1.696952,-1.145116,1.342264\H,-1.091425,0.564067,1.298621\H,-
 2.723511,0.179508,0.341752\O,-3.798021,0.386376,-0.113614\H,-4.309111,

 Normal termination of Gaussian 16 at Wed Apr  2 01:31:08 2025.
