 Gaussian 16, Revision A.03,
 Gaussian 16:  ES64L-G16RevA.03 25-Dec-2016

 --------------------------
 # freq 6-311++g(d,p) m062x
 --------------------------

 -------------------
 Title Card Required
 -------------------
 Symbolic Z-matrix:
 Charge =  0 Multiplicity = 2

                         Standard orientation:
 ---------------------------------------------------------------------
 Center     Atomic      Atomic             Coordinates (Angstroms)
 Number     Number       Type             X           Y           Z
 ---------------------------------------------------------------------
      1          6           0        1.345257    2.237351   -0.067557
      2          1           0        1.269708    3.299787   -0.081971
      3          6           0        1.437294    1.041987   -0.051032
      4          6           0        1.630012   -0.409701   -0.001561
      5          8           0        2.680802   -0.895288    0.289602
      6          8           0        0.573175   -1.172407   -0.310795
      7          6           0       -0.712386   -0.583929   -0.570543
      8          6           0       -1.427601   -0.275746    0.723692
      9          1           0       -0.601320    0.307786   -1.189604
     10          1           0       -1.246682   -1.340080   -1.142558
     11          1           0       -1.580253   -1.164494    1.335491
     12          1           0       -0.958375    0.523020    1.299182
     13          1           0       -2.456655    0.141007    0.425872
     14          8           0       -3.733346    0.376900   -0.129538
     15          1           0       -4.226925   -0.300441    0.361442
 ---------------------------------------------------------------------

 SCF Done:  E(UM062X) =  -420.188583188     A.U. after   22 cycles

 The electronic state is 2-A.
 Alpha  occ. eigenvalues --  -19.68563 -19.68269 -19.63065 -10.70991 -10.61873
 Alpha  occ. eigenvalues --  -10.58087 -10.57669 -10.56476  -1.25512  -1.16965
 Alpha  occ. eigenvalues --   -1.14840  -0.89813  -0.89517  -0.78294  -0.74207
 Alpha  occ. eigenvalues --   -0.64733  -0.62047  -0.60035  -0.58610  -0.56818
 Alpha  occ. eigenvalues --   -0.54306  -0.53416  -0.49209  -0.48363  -0.43834
 Alpha  occ. eigenvalues --   -0.43422  -0.41023  -0.39461  -0.38602  -0.37250
 Alpha  occ. eigenvalues --   -0.36555
 Alpha virt. eigenvalues --   -0.02388  -0.01372   0.00036   0.01245   0.01993
 Alpha virt. eigenvalues --    0.02369   0.03941   0.04259   0.05249   0.06567
 Alpha virt. eigenvalues --    0.07036   0.07361   0.08175   0.09137   0.10343

  Beta  occ. eigenvalues --  -19.68519 -19.66874 -19.63061 -10.70992 -10.61883
  Beta  occ. eigenvalues --  -10.58087 -10.57669 -10.56192  -1.25425  -1.16897
  Beta  occ. eigenvalues --   -1.08998  -0.89675  -0.88930  -0.77661  -0.73908
  Beta  occ. eigenvalues --   -0.64582  -0.61937  -0.58691  -0.57318  -0.55101
  Beta  occ. eigenvalues --   -0.53625  -0.49523  -0.48096  -0.46254  -0.43168
  Beta  occ. eigenvalues --   -0.40549  -0.39962  -0.39001  -0.37652  -0.36589
  Beta virt. eigenvalues --   -0.12251  -0.02363  -0.01043   0.00117   0.01303
  Beta virt. eigenvalues --    0.02196   0.02575   0.03972   0.04309   0.05347
  Beta virt. eigenvalues --    0.06706   0.07132   0.07407   0.08293   0.09192

 Mulliken charges and spin densities:
               1          2
     1  C   -1.324492  -0.005608
     2  H    0.200480  -0.000180
     3  C    1.548013   0.000183
     4  C   -0.221549   0.005369
     5  O   -0.246041   0.002057
     6  O   -0.034351   0.009002
     7  C   -0.298721  -0.000492
     8  C   -0.501367   0.298739
     9  H    0.178498  -0.000884
    10  H    0.200337  -0.001089
    11  H    0.209492  -0.011474
    12  H    0.156438  -0.001007
    13  H    0.195210  -0.046525
    14  O   -0.310649   0.767383
    15  H    0.248701  -0.015474
 Sum of Mulliken charges =  -0.00000   1.00000

 Dipole moment (field-independent basis, Debye):
    X=             -3.6278    Y=              1.7076    Z=              0.3892  Tot=              4.0284
 Quadrupole moment (field-independent basis, Debye-Ang):
   XX=            -54.7088   YY=            -43.4389   ZZ=            -47.0645
   XY=             12.1367   XZ=             -5.2516   YZ=             -0.1476

  Exact polarizability: 100.300  -5.538  78.771   7.612  -1.979  51.297
 Approx polarizability:  93.574  -9.726 100.012   9.120  -3.442  60.447

 ******    3 imaginary frequencies (negative Signs) ******

                      1                      2                      3
                      A                      A                      A
 Frequencies --   -617.7569               -44.9420               -40.5109
 Red. masses --      1.7903                 4.9506                 5.0258
 Frc consts  --      0.4025                 0.0059                 0.0049
 IR Inten    --    643.3772                 2.8681                 6.1885

                      4                      5                      6
                      A                      A                      A
 Frequencies --     72.6628               104.7591               154.7195
 Red. masses --      5.1797                 3.4900                 1.1493
 Frc consts  --      0.0161                 0.0226                 0.0162
 IR Inten    --      2.7937                 0.3019               113.4849

                      7                      8                      9
                      A                      A                      A
 Frequencies --    180.5002               251.8092               259.6886
 Red. masses --      3.1687                 1.2957                 4.9109
 Frc consts  --      0.0608                 0.0484                 0.1951
 IR Inten    --      7.0050                 7.4871                 0.4243

                     10                     11                     12
                      A                      A                      A
 Frequencies --    354.6793               388.6591               552.0789
 Red. masses --      2.4700                 3.8946                 5.4156
 Frc consts  --      0.1831                 0.3466                 0.9725
 IR Inten    --      1.6513                 8.3296                27.3989

                     13                     14                     15
                      A                      A                      A
 Frequencies --    631.3730               735.4234               736.5155
 Red. masses --      5.6589                 1.3181                 1.6323
 Frc consts  --      1.3291                 0.4200                 0.5217
 IR Inten    --      1.5656                46.8436                53.4890

                     16                     17                     18
                      A                      A                      A
 Frequencies --    765.0586               769.3268               776.7006
 Red. masses --      1.9975                 7.8991                 1.2959
 Frc consts  --      0.6889                 2.7545                 0.4606
 IR Inten    --      9.6923                17.1619                45.6209

                     19                     20                     21
                      A                      A                      A
 Frequencies --    826.7966               944.6839              1075.7710
 Red. masses --      1.3295                 1.8415                 3.2780
 Frc consts  --      0.5355                 0.9683                 2.2351
 IR Inten    --     47.2207                24.7211                78.9916

                     22                     23                     24
                      A                      A                      A
 Frequencies --   1109.9991              1175.4379              1254.0579
 Red. masses --      4.8185                 1.9719                 2.8175
 Frc consts  --      3.4979                 1.6052                 2.6106
 IR Inten    --     60.2195               119.0008               360.1533

                     25                     26                     27
                      A                      A                      A
 Frequencies --   1319.0566              1340.2051              1364.3143
 Red. masses --      1.2229                 1.2715                 1.0487
 Frc consts  --      1.2537                 1.3455                 1.1501
 IR Inten    --     19.6142               202.6904               136.8248

                     28                     29                     30
                      A                      A                      A
 Frequencies --   1417.8594              1472.3701              1517.1071
 Red. masses --      1.3344                 1.1373                 1.0872
 Frc consts  --      1.5806                 1.4526                 1.4744
 IR Inten    --     24.0834                58.6920                52.9200

                     31                     32                     33
                      A                      A                      A
 Frequencies --   1631.9470              1868.2630              2251.8652
 Red. masses --      1.1639                12.5738                 5.7276
 Frc consts  --      1.8263                25.8580                17.1123
 IR Inten    --   1357.0067               443.3550                54.1797

                     34                     35                     36
                      A                      A                      A
 Frequencies --   3102.2893              3111.2011              3160.0428
 Red. masses --      1.0590                 1.0588                 1.1057
 Frc consts  --      6.0048                 6.0385                 6.5053
 IR Inten    --      0.1000                15.2642                 2.7056

                     37                     38                     39
                      A                      A                      A
 Frequencies --   3183.4113              3488.0129              3793.8248
 Red. masses --      1.1081                 1.1700                 1.0671
 Frc consts  --      6.6161                 8.3865                 9.0494
 IR Inten    --     10.3827                60.0791                55.5013

 - Thermochemistry -
 -------------------
 Temperature   298.150 Kelvin.  Pressure   1.00000 Atm.
 Atom     1 has atomic number  6 and mass  12.00000

 Molecular mass:   115.03952 amu.
 Principal axes and moments of inertia in atomic units:
                           1         2         3
     Eigenvalues --   541.336561794.447792193.28994
           X            0.99972   0.02203  -0.00854
           Y           -0.02203   0.99976  -0.00074
           Z            0.00852   0.00093   0.99996
 This molecule is an asymmetric top.
 Rotational symmetry number  1.
 Warning -- assumption of classical behavior for rotation
           may cause significant error
 Rotational temperatures (Kelvin)      0.16000     0.04827     0.03949
 Rotational constants (GHZ):           3.33386     1.00574     0.82285
    3 imaginary frequencies ignored.
 Zero-point vibrational energy     281974.6 (Joules/Mol)
                                   67.39355 (Kcal/Mol)
 Warning -- explicit consideration of   9 degrees of freedom as
           vibrations may cause significant error
 Vibrational temperatures:    104.55   150.72   222.61   259.70   362.30
          (Kelvin)            373.63   510.30   559.19   794.32   908.40
                             1058.11  1059.68  1100.75  1106.89  1117.50
                             1189.58  1359.19  1547.79  1597.04  1691.19
                             1804.31  1897.83  1928.26  1962.94  2039.98
                             2118.41  2182.78  2348.01  2688.01  3239.93
                             4463.50  4476.32  4546.60  4580.22  5018.47
                             5458.47

 Zero-point correction=                           0.107398 (Hartree/Particle)
 Thermal correction to Energy=                    0.115647
 Thermal correction to Enthalpy=                  0.116591
 Thermal correction to Gibbs Free Energy=         0.073178
 Sum of electronic and zero-point Energies=           -420.081185
 Sum of electronic and thermal Energies=              -420.072936
 Sum of electronic and thermal Enthalpies=            -420.071992
 Sum of electronic and thermal Free Energies=         -420.115405

                     E (Thermal)             CV                S
                      KCal/Mol        Cal/Mol-Kelvin    Cal/Mol-Kelvin
 Total                   72.570             28.659             91.371
 Electronic               0.000              0.000              1.377
 Translational            0.889              2.981             40.136
 Rotational               0.889              2.981             29.145
 Vibrational             70.792             22.698             20.713
 Vibration     1          0.599              1.967              4.080
 Vibration     2          0.605              1.945              3.364
 Vibration     3          0.620              1.897              2.613
 Vibration     4          0.629              1.866              2.323
 Vibration     5          0.664              1.760              1.718
 Vibration     6          0.668              1.746              1.664
 Vibration     7          0.731              1.566              1.145
 Vibration     8          0.757              1.494              1.005
 Vibration     9          0.907              1.135              0.540

 1\1\GINC-AJ\Freq\UM062X\6-311++G(d,p)\C5H7O3(2)\AAYUSH\02-Apr-2025\0\\
 # freq 6-311++g(d,p) m062x\\Title Card Required\\0,2\C,1.26138,2.24953
 9,-0.059334\H,1.186142,3.311991,-0.07416\C,1.353068,1.054155,-0.042344
 \C,1.545354,-0.39757,0.007716\O,2.595921,-0.883353,0.299359\O,0.488386
 ,-1.160086,-0.301541\C,-0.796931,-0.571333,-0.561873\C,-1.512428,-0.26
 2469,0.732043\H,-0.685431,0.320122,-1.18123\H,-1.331281,-1.32754,-1.13
 3764\H,-1.665511,-1.150948,1.344125\H,-1.043137,0.536374,1.307374\H,-2
 .541276,0.154471,0.433775\O,-3.81774,0.390528,-0.122087\H,-4.311655,-0

 Normal termination of Gaussian 16 at Wed Apr  2 08:14:23 2025.
