 Gaussian 16, Revision A.03,
 Gaussian 16:  ES64L-G16RevA.03 25-Dec-2016

 --------------------------
 # freq 6-311++g(d,p) m062x
 --------------------------

 -------------------
 Title Card Required
 -------------------
 Symbolic Z-matrix:
 Charge =  0 Multiplicity = 2

                         Standard orientation:
 ---------------------------------------------------------------------
 Center     Atomic      Atomic             Coordinates (Angstroms)
 Number     Number       Type             X           Y           Z
 ---------------------------------------------------------------------
      1          6           0       -1.668054   -0.240263   -0.051948
      2          1           0       -2.841941   -0.791247    0.000806
      3          6           0       -0.637391    0.393449   -0.043130
      4          6           0        0.636086    1.126113    0.013763
      5          8           0        0.668720    2.275145    0.339256
      6          8           0        1.739989    0.459318   -0.326357
      7          6           0        1.700060   -0.948310   -0.623560
      8          6           0        1.755324   -1.772461    0.647203
      9          1           0        0.812521   -1.174700   -1.217148
     10          1           0        2.581715   -1.111415   -1.241336
     11          1           0        2.641396   -1.512372    1.227819
     12          1           0        0.869026   -1.604402    1.261147
     13          1           0        1.800929   -2.834252    0.397077
     14          8           0       -3.970362   -0.549948   -0.087780
     15          1           0       -4.086566    0.201100    0.516710
 ---------------------------------------------------------------------

 SCF Done:  E(UM062X) =  -420.168781307     A.U. after   22 cycles

 The electronic state is 2-A.
 Alpha  occ. eigenvalues --  -19.71226 -19.68499 -19.63161 -10.71159 -10.61528
 Alpha  occ. eigenvalues --  -10.59826 -10.58328 -10.54673  -1.25531  -1.19496
 Alpha  occ. eigenvalues --   -1.16988  -0.89960  -0.88788  -0.77648  -0.74042
 Alpha  occ. eigenvalues --   -0.68322  -0.63942  -0.58616  -0.58261  -0.57077
 Alpha  occ. eigenvalues --   -0.53397  -0.49871  -0.47702  -0.47420  -0.46386
 Alpha  occ. eigenvalues --   -0.44124  -0.42618  -0.40191  -0.39021  -0.37711
 Alpha  occ. eigenvalues --   -0.36702
 Alpha virt. eigenvalues --   -0.02473  -0.00988  -0.00129   0.01380   0.01437
 Alpha virt. eigenvalues --    0.03030   0.04246   0.04660   0.05066   0.05842
 Alpha virt. eigenvalues --    0.07139   0.07556   0.08090   0.09400   0.10045

  Beta  occ. eigenvalues --  -19.70051 -19.68502 -19.63144 -10.71148 -10.61529
  Beta  occ. eigenvalues --  -10.59102 -10.58237 -10.54674  -1.25519  -1.16956
  Beta  occ. eigenvalues --   -1.14884  -0.89016  -0.88583  -0.77356  -0.73274
  Beta  occ. eigenvalues --   -0.64443  -0.63274  -0.58570  -0.57115  -0.53588
  Beta  occ. eigenvalues --   -0.52775  -0.49866  -0.47537  -0.46302  -0.44171
  Beta  occ. eigenvalues --   -0.42657  -0.39640  -0.38642  -0.37153  -0.36356
  Beta virt. eigenvalues --   -0.17185  -0.01872  -0.00670   0.00053   0.01451
  Beta virt. eigenvalues --    0.01607   0.03093   0.04436   0.04892   0.05579
  Beta virt. eigenvalues --    0.05891   0.07230   0.07672   0.08218   0.09488

 Mulliken charges and spin densities:
               1          2
     1  C   -0.498809   0.467174
     2  H    0.437151  -0.033961
     3  C    0.522883  -0.005053
     4  C   -0.297367  -0.021004
     5  O   -0.247362   0.004541
     6  O   -0.030791   0.000050
     7  C   -0.353821  -0.005322
     8  C   -0.406694   0.002620
     9  H    0.163110   0.001015
    10  H    0.204833   0.000032
    11  H    0.187728   0.000138
    12  H    0.138995  -0.000099
    13  H    0.155875  -0.000245
    14  O   -0.249399   0.604546
    15  H    0.273669  -0.014431
 Sum of Mulliken charges =  -0.00000   1.00000

 Dipole moment (field-independent basis, Debye):
    X=             -0.9558    Y=             -3.3945    Z=              0.3433  Tot=              3.5432
 Quadrupole moment (field-independent basis, Debye-Ang):
   XX=            -43.1592   YY=            -54.2655   ZZ=            -47.2409
   XY=             -9.0805   XZ=             -5.7347   YZ=             -0.3942

  Exact polarizability: 119.331  13.564  76.219  -1.826   3.315  50.971
 Approx polarizability: 113.593  19.975  92.835  -0.869   7.174  60.123

 ******    2 imaginary frequencies (negative Signs) ******

                      1                      2                      3
                      A                      A                      A
 Frequencies --  -1580.0935               -73.1648                35.2233
 Red. masses --      1.0374                 2.6341                 6.4712
 Frc consts  --      1.5260                 0.0083                 0.0047
 IR Inten    --    672.1873                18.6381                 3.5285

                      4                      5                      6
                      A                      A                      A
 Frequencies --     76.9784               108.7722               150.4679
 Red. masses --      3.9855                 3.7234                 2.0275
 Frc consts  --      0.0139                 0.0260                 0.0270
 IR Inten    --      1.0851                 0.1197                54.5707

                      7                      8                      9
                      A                      A                      A
 Frequencies --    183.5572               228.6136               266.3434
 Red. masses --      2.0098                 1.1976                 5.5937
 Frc consts  --      0.0399                 0.0369                 0.2338
 IR Inten    --     40.8580                 0.3142                13.4386

                     10                     11                     12
                      A                      A                      A
 Frequencies --    359.8329               386.8532               423.2504
 Red. masses --      3.0042                 6.4579                 3.6478
 Frc consts  --      0.2292                 0.5694                 0.3850
 IR Inten    --      0.7731                 6.5490                 1.9729

                     13                     14                     15
                      A                      A                      A
 Frequencies --    568.6506               625.5936               674.0706
 Red. masses --      5.0339                 6.5842                 1.1882
 Frc consts  --      0.9591                 1.5182                 0.3181
 IR Inten    --     18.7964                 9.2928               168.2229

                     16                     17                     18
                      A                      A                      A
 Frequencies --    752.9869               763.9489               813.9562
 Red. masses --      5.4934                 6.0183                 1.1646
 Frc consts  --      1.8351                 2.0694                 0.4546
 IR Inten    --      5.5939                26.2142                 6.2125

                     19                     20                     21
                      A                      A                      A
 Frequencies --    948.0211              1027.1411              1108.1459
 Red. masses --      2.1423                 1.3504                 3.1843
 Frc consts  --      1.1344                 0.8394                 2.3039
 IR Inten    --     16.4947                57.5034                53.1719

                     22                     23                     24
                      A                      A                      A
 Frequencies --   1133.4292              1179.4763              1260.4260
 Red. masses --      2.6497                 1.9203                 3.0178
 Frc consts  --      2.0055                 1.5739                 2.8247
 IR Inten    --     56.0124                69.6272               447.8172

                     25                     26                     27
                      A                      A                      A
 Frequencies --   1348.1768              1405.4209              1432.4425
 Red. masses --      1.2441                 1.2680                 1.3617
 Frc consts  --      1.3323                 1.4756                 1.6462
 IR Inten    --    122.4044                25.1157                12.7024

                     28                     29                     30
                      A                      A                      A
 Frequencies --   1462.7634              1493.0619              1502.0238
 Red. masses --      1.0809                 1.0401                 1.0470
 Frc consts  --      1.3627                 1.3660                 1.3917
 IR Inten    --    225.2939                 4.6636                 3.7481

                     31                     32                     33
                      A                      A                      A
 Frequencies --   1525.4118              1860.7517              2266.4266
 Red. masses --      1.0999                13.0244                10.6553
 Frc consts  --      1.5079                26.5696                32.2476
 IR Inten    --     20.3691               499.9561                22.5167

                     34                     35                     36
                      A                      A                      A
 Frequencies --   3073.3976              3101.6672              3145.8979
 Red. masses --      1.0353                 1.0623                 1.1041
 Frc consts  --      5.7620                 6.0214                 6.4382
 IR Inten    --      7.2307                15.1745                 0.8693

                     37                     38                     39
                      A                      A                      A
 Frequencies --   3152.2380              3167.8015              3807.3252
 Red. masses --      1.1012                 1.1062                 1.0667
 Frc consts  --      6.4469                 6.5402                 9.1102
 IR Inten    --     13.2051                24.3314               135.2286

 - Thermochemistry -
 -------------------
 Temperature   298.150 Kelvin.  Pressure   1.00000 Atm.
 Atom     1 has atomic number  6 and mass  12.00000

 Molecular mass:   115.03952 amu.
 Principal axes and moments of inertia in atomic units:
                           1         2         3
     Eigenvalues --   686.850041737.059402281.25799
           X            0.99903  -0.04396  -0.00236
           Y            0.04392   0.99894  -0.01382
           Z            0.00296   0.01371   0.99990
 This molecule is an asymmetric top.
 Rotational symmetry number  1.
 Warning -- assumption of classical behavior for rotation
           may cause significant error
 Rotational temperatures (Kelvin)      0.12610     0.04986     0.03797
 Rotational constants (GHZ):           2.62756     1.03896     0.79112
    2 imaginary frequencies ignored.
 Zero-point vibrational energy     280049.1 (Joules/Mol)
                                   66.93333 (Kcal/Mol)
 Warning -- explicit consideration of  11 degrees of freedom as
           vibrations may cause significant error
 Vibrational temperatures:     50.68   110.75   156.50   216.49   264.10
          (Kelvin)            328.92   383.21   517.72   556.60   608.96
                              818.16   900.09   969.84  1083.38  1099.15
                             1171.10  1363.99  1477.83  1594.37  1630.75
                             1697.00  1813.47  1939.73  2022.09  2060.97
                             2104.59  2148.18  2161.08  2194.73  2677.21
                             3260.88  4421.93  4462.61  4526.25  4535.37
                             4557.76  5477.89

 Zero-point correction=                           0.106665 (Hartree/Particle)
 Thermal correction to Energy=                    0.115937
 Thermal correction to Enthalpy=                  0.116881
 Thermal correction to Gibbs Free Energy=         0.070514
 Sum of electronic and zero-point Energies=           -419.3178815
 Sum of electronic and thermal Energies=              -420.052844
 Sum of electronic and thermal Enthalpies=            -420.051900
 Sum of electronic and thermal Free Energies=         -420.098267

                     E (Thermal)             CV                S
                      KCal/Mol        Cal/Mol-Kelvin    Cal/Mol-Kelvin
 Total                   72.752             31.002             97.588
 Electronic               0.000              0.000              1.377
 Translational            0.889              2.981             40.136
 Rotational               0.889              2.981             29.388
 Vibrational             70.974             25.040             26.687
 Vibration     1          0.594              1.982              5.511
 Vibration     2          0.599              1.965              3.966
 Vibration     3          0.606              1.942              3.291
 Vibration     4          0.618              1.902              2.666
 Vibration     5          0.631              1.862              2.292
 Vibration     6          0.651              1.797              1.890
 Vibration     7          0.672              1.735              1.620
 Vibration     8          0.734              1.555              1.123
 Vibration     9          0.755              1.498              1.012
 Vibration    10          0.785              1.420              0.881
 Vibration    11          0.925              1.099              0.507

 1\1\GINC-AJ\Freq\UM062X\6-311++G(d,p)\C5H7O3(2)\AAYUSH\29-Mar-2025\0\\
 # freq 6-311++g(d,p) m062x\\Title Card Required\\0,2\C,-1.653283,-0.31
 3636,-0.044225\H,-2.828063,-0.86275,0.008158\C,-0.621609,0.318423,-0.0
 35049\C,0.653028,1.049034,0.022275\O,0.687433,2.197941,0.348025\O,1.75
 5934,0.380545,-0.317754\C,1.713814,-1.026953,-0.615272\C,1.767486,-1.8
 51467,0.655324\H,0.826041,-1.251792,-1.209098\H,2.595339,-1.191336,-1.
 232895\H,2.653849,-1.592924,1.236186\H,0.881327,-1.682122,1.269115\H,1
 .811444,-2.913275,0.404977\O,-3.956077,-0.619624,-0.080616\H,-4.071207

 Normal termination of Gaussian 16 at Sat Mar 29 01:14:08 2025.
