 Gaussian 16, Revision A.03,
 Gaussian 16:  ES64L-G16RevA.03 25-Dec-2016

 --------------------------
 # ccsd(t)/6-311++g(d,p) sp
 --------------------------

 -------------------
 Title Card Required
 -------------------
 Symbolic Z-matrix:
 Charge =  0 Multiplicity = 2

                         Standard orientation:
 ---------------------------------------------------------------------
 Center     Atomic      Atomic             Coordinates (Angstroms)
 Number     Number       Type             X           Y           Z
 ---------------------------------------------------------------------
      1          6           0       -1.669201   -0.241403   -0.051443
      2          1           0       -2.789971   -0.782505   -0.003920
      3          6           0       -0.638615    0.392175   -0.043085
      4          6           0        0.634637    1.126278    0.013664
      5          8           0        0.667344    2.275372    0.339184
      6          8           0        1.739313    0.459969   -0.326407
      7          6           0        1.700062   -0.947632   -0.623540
      8          6           0        1.755753   -1.771736    0.647257
      9          1           0        0.812631   -1.174547   -1.217051
     10          1           0        2.581804   -1.110438   -1.241304
     11          1           0        2.641726   -1.511194    1.227832
     12          1           0        0.869397   -1.603978    1.261196
     13          1           0        1.801845   -2.833537    0.397211
     14          8           0       -3.972139   -0.551713   -0.087441
     15          1           0       -4.089398    0.201088    0.516233
 ---------------------------------------------------------------------

 SCF Done:  E(UHF) =  -417.935479988     A.U. after   41 cycles
 E2 =    -0.1273379249D+01 EUMP2 =    -0.41920885923696D+03
 CCSD(T)= -0.41932079847D+03

 The electronic state is 2-A.
 Alpha  occ. eigenvalues --  -20.68774 -20.60932 -20.55031 -11.41333 -11.30382
 Alpha  occ. eigenvalues --  -11.28061 -11.25389 -11.23299  -1.47325  -1.46285
 Alpha  occ. eigenvalues --   -1.37579  -1.06873  -1.04970  -0.91579  -0.87632
 Alpha  occ. eigenvalues --   -0.82831  -0.74475  -0.73325  -0.69034  -0.66517
 Alpha  occ. eigenvalues --   -0.63094  -0.62480  -0.58491  -0.57508  -0.55105
 Alpha  occ. eigenvalues --   -0.54622  -0.50933  -0.47285  -0.45911  -0.42962
 Alpha  occ. eigenvalues --   -0.42655
 Alpha virt. eigenvalues --    0.03369   0.04225   0.05708   0.06079   0.07508
 Alpha virt. eigenvalues --    0.08667   0.09080   0.09533   0.11156   0.12605
 Alpha virt. eigenvalues --    0.13224   0.13962   0.14885   0.15726   0.16130

  Beta  occ. eigenvalues --  -20.65115 -20.60890 -20.55534 -11.41003 -11.30394
  Beta  occ. eigenvalues --  -11.26568 -11.25407 -11.23299  -1.47490  -1.38342
  Beta  occ. eigenvalues --   -1.32919  -1.06221  -1.04940  -0.90821  -0.86104
  Beta  occ. eigenvalues --   -0.75405  -0.74134  -0.69488  -0.66652  -0.63685
  Beta  occ. eigenvalues --   -0.62842  -0.58545  -0.56014  -0.55807  -0.54667
  Beta  occ. eigenvalues --   -0.51025  -0.48049  -0.46666  -0.42457  -0.42078
  Beta virt. eigenvalues --    0.00077   0.04056   0.04932   0.05697   0.06179
  Beta virt. eigenvalues --    0.07559   0.08711   0.09141   0.10474   0.11214
  Beta virt. eigenvalues --    0.12723   0.13249   0.13986   0.15340   0.15773

 Mulliken charges and spin densities:
               1          2
     1  C   -0.518503   0.992102
     2  H    0.449489  -0.130917
     3  C    0.556749  -0.667610
     4  C   -0.240514   0.121146
     5  O   -0.334628  -0.106440
     6  O   -0.149496  -0.000199
     7  C   -0.207149  -0.004491
     8  C   -0.413203  -0.000622
     9  H    0.137253   0.003478
    10  H    0.177298  -0.000178
    11  H    0.169694   0.000544
    12  H    0.125739   0.001619
    13  H    0.124488  -0.000583
    14  O   -0.160605   0.826207
    15  H    0.283388  -0.034055
 Sum of Mulliken charges =  -0.00000   1.00000

 Dipole moment (field-independent basis, Debye):
    X=             -2.3493    Y=             -3.9866    Z=              0.2909  Tot=              4.6365
 Quadrupole moment (field-independent basis, Debye-Ang):
   XX=            -37.8396   YY=            -55.6452   ZZ=            -47.2653
   XY=             -8.7063   XZ=             -5.8985   YZ=             -0.4909

 0=-419.2439494\MP4SDQ=-419.2611419\CCSD=-419.2653461\CCSD(T)=-419.3207
 Normal termination of Gaussian 16 at Fri May  2 02:04:13 2025.
