 Gaussian 16, Revision A.03,
 Gaussian 16:  ES64L-G16RevA.03 25-Dec-2016

 --------------------------
 # freq 6-311++g(d,p) m062x
 --------------------------

 -------------------
 Title Card Required
 -------------------
 Symbolic Z-matrix:
 Charge =  0 Multiplicity = 2

                         Standard orientation:
 ---------------------------------------------------------------------
 Center     Atomic      Atomic             Coordinates (Angstroms)
 Number     Number       Type             X           Y           Z
 ---------------------------------------------------------------------
      1          6           0       -1.655925   -0.227481   -0.059529
      2          1           0       -3.104687   -0.954484    0.105146
      3          6           0       -0.626643    0.406241   -0.044876
      4          6           0        0.648000    1.125461    0.015422
      5          8           0        0.682221    2.274075    0.341084
      6          8           0        1.745971    0.452843   -0.325525
      7          6           0        1.697973   -0.954473   -0.624155
      8          6           0        1.747946   -1.780021    0.645889
      9          1           0        0.809646   -1.175010   -1.218728
     10          1           0        2.579142   -1.121538   -1.241438
     11          1           0        2.634817   -1.525058    1.227508
     12          1           0        0.862090   -1.608291    1.259493
     13          1           0        1.788432   -2.841733    0.394652
     14          8           0       -3.975379   -0.525928   -0.097565
     15          1           0       -4.060042    0.199836    0.532903
 ---------------------------------------------------------------------

 SCF Done:  E(UM062X) =  -420.168808479     A.U. after   23 cycles

 The electronic state is 2-A.
 Alpha  occ. eigenvalues --  -19.68775 -19.68428 -19.63497 -10.71445 -10.61758
 Alpha  occ. eigenvalues --  -10.61629 -10.58787 -10.54888  -1.25871  -1.19231
 Alpha  occ. eigenvalues --   -1.17334  -0.90768  -0.89053  -0.77916  -0.74117
 Alpha  occ. eigenvalues --   -0.67553  -0.64276  -0.58886  -0.57414  -0.55618
 Alpha  occ. eigenvalues --   -0.53643  -0.50143  -0.47830  -0.47381  -0.46422
 Alpha  occ. eigenvalues --   -0.43227  -0.42619  -0.40723  -0.39565  -0.38149
 Alpha  occ. eigenvalues --   -0.37124
 Alpha virt. eigenvalues --   -0.02907  -0.00909  -0.00033   0.01240   0.01335
 Alpha virt. eigenvalues --    0.02929   0.03961   0.04293   0.04943   0.05730
 Alpha virt. eigenvalues --    0.06956   0.07718   0.07962   0.09303   0.10008

  Beta  occ. eigenvalues --  -19.68781 -19.67762 -19.63478 -10.71425 -10.61759
  Beta  occ. eigenvalues --  -10.60456 -10.58671 -10.54889  -1.25857  -1.17299
  Beta  occ. eigenvalues --   -1.16853  -0.89245  -0.88750  -0.77526  -0.73238
  Beta  occ. eigenvalues --   -0.65207  -0.64160  -0.58855  -0.57443  -0.53647
  Beta  occ. eigenvalues --   -0.51352  -0.50151  -0.47800  -0.46553  -0.43556
  Beta  occ. eigenvalues --   -0.42890  -0.39848  -0.38878  -0.37314  -0.36492
  Beta virt. eigenvalues --   -0.16427  -0.01647  -0.00651   0.00121   0.01338
  Beta virt. eigenvalues --    0.01575   0.03053   0.04079   0.04682   0.05766
  Beta virt. eigenvalues --    0.05968   0.07103   0.07803   0.08127   0.09342

 Mulliken charges and spin densities:
               1          2
     1  C   -0.452592   0.829994
     2  H    0.365859  -0.027910
     3  C    0.587175  -0.031045
     4  C   -0.283066  -0.031907
     5  O   -0.244516   0.003980
     6  O   -0.030147  -0.000297
     7  C   -0.363295  -0.007963
     8  C   -0.405291   0.003677
     9  H    0.167504   0.002767
    10  H    0.203931  -0.000132
    11  H    0.188249   0.000314
    12  H    0.137921   0.000133
    13  H    0.157426  -0.000491
    14  O   -0.309675   0.266258
    15  H    0.280516  -0.007377
 Sum of Mulliken charges =  -0.00000   1.00000

 Dipole moment (field-independent basis, Debye):
    X=             -0.3108    Y=             -3.5574    Z=              0.5468  Tot=              3.6126
 Quadrupole moment (field-independent basis, Debye-Ang):
   XX=            -47.2921   YY=            -53.4896   ZZ=            -47.1375
   XY=             -8.6476   XZ=             -6.4703   YZ=             -0.6149

  Exact polarizability: 120.936  15.498  78.904  -2.563   3.241  51.906
 Approx polarizability: 111.233  20.119  94.897  -0.984   6.927  60.563

 ******    4 imaginary frequencies (negative Signs) ******

                      1                      2                      3
                      A                      A                      A
 Frequencies --   -480.4950              -168.0836               -49.5540
 Red. masses --      1.0331                 1.0634                 8.1393
 Frc consts  --      0.1405                 0.0177                 0.0118
 IR Inten    --    136.8232                76.2580                 1.5487

                      4                      5                      6
                      A                      A                      A
 Frequencies --    -42.0622                71.2693                99.4432
 Red. masses --      6.8345                 4.0021                 4.8582
 Frc consts  --      0.0071                 0.0120                 0.0283
 IR Inten    --      7.2345                 0.9114                 3.1326

                      7                      8                      9
                      A                      A                      A
 Frequencies --    138.6671               197.2032               222.8117
 Red. masses --      3.2764                 8.1650                 1.3337
 Frc consts  --      0.0371                 0.1871                 0.0390
 IR Inten    --      8.8186                54.6163                 4.2587

                     10                     11                     12
                      A                      A                      A
 Frequencies --    235.4495               354.7484               411.7345
 Red. masses --      4.6692                 2.7782                 3.6582
 Frc consts  --      0.1525                 0.2060                 0.3654
 IR Inten    --     24.9372                 2.4560                10.3852

                     13                     14                     15
                      A                      A                      A
 Frequencies --    442.5440               549.4536               607.7503
 Red. masses --      1.0669                 6.7736                 6.2808
 Frc consts  --      0.1231                 1.2048                 1.3668
 IR Inten    --    131.2024                63.8747                 7.4910

                     16                     17                     18
                      A                      A                      A
 Frequencies --    746.0980               765.3893               814.5166
 Red. masses --     10.1958                 4.7711                 1.1961
 Frc consts  --      3.3440                 1.6468                 0.4675
 IR Inten    --     23.0128                 6.7945                 3.0364

                     19                     20                     21
                      A                      A                      A
 Frequencies --    951.9022              1106.5460              1132.4171
 Red. masses --      2.2646                 3.4316                 2.5922
 Frc consts  --      1.2090                 2.4756                 1.9585
 IR Inten    --      8.6342                59.5514                56.6670

                     22                     23                     24
                      A                      A                      A
 Frequencies --   1178.8724              1260.5120              1348.4361
 Red. masses --      1.9211                 2.9902                 1.2471
 Frc consts  --      1.5730                 2.7993                 1.3361
 IR Inten    --     70.5427               450.5549               123.9626

                     25                     26                     27
                      A                      A                      A
 Frequencies --   1405.7477              1432.8398              1472.8273
 Red. masses --      1.2701                 1.3687                 1.0912
 Frc consts  --      1.4788                 1.6555                 1.3946
 IR Inten    --     30.2779                20.5777                65.6136

                     28                     29                     30
                      A                      A                      A
 Frequencies --   1492.9792              1501.9543              1525.5067
 Red. masses --      1.0401                 1.0472                 1.1005
 Frc consts  --      1.3660                 1.3919                 1.5089
 IR Inten    --      3.5348                 3.4724                19.3637

                     31                     32                     33
                      A                      A                      A
 Frequencies --   1862.0654              2194.1918              3073.5598
 Red. masses --     13.0343                11.5289                 1.0353
 Frc consts  --     26.6273                32.7031                 5.7626
 IR Inten    --    471.0959                69.2258                 6.9306

                     34                     35                     36
                      A                      A                      A
 Frequencies --   3102.2592              3143.4095              3146.1821
 Red. masses --      1.0624                 1.0717                 1.1040
 Frc consts  --      6.0242                 6.2390                 6.4387
 IR Inten    --     15.5079               310.5872                 1.4937

                     37                     38                     39
                      A                      A                      A
 Frequencies --   3152.7189              3168.3261              3880.5998
 Red. masses --      1.1012                 1.1062                 1.0682
 Frc consts  --      6.4487                 6.5424                 9.4775
 IR Inten    --     13.6267                20.5395               145.4199

 - Thermochemistry -
 -------------------
 Temperature   298.150 Kelvin.  Pressure   1.00000 Atm.
 Atom     1 has atomic number  6 and mass  12.00000

 Molecular mass:   115.03952 amu.
 Principal axes and moments of inertia in atomic units:
                           1         2         3
     Eigenvalues --   688.317631742.975962288.21606
           X            0.99914  -0.04134  -0.00324
           Y            0.04129   0.99904  -0.01443
           Z            0.00383   0.01428   0.99989
 This molecule is an asymmetric top.
 Rotational symmetry number  1.
 Warning -- assumption of classical behavior for rotation
           may cause significant error
 Rotational temperatures (Kelvin)      0.12583     0.04969     0.03785
 Rotational constants (GHZ):           2.62196     1.03544     0.78871
    4 imaginary frequencies ignored.
 Zero-point vibrational energy     288245.8 (Joules/Mol)
                                   68.89240 (Kcal/Mol)
 Warning -- explicit consideration of  11 degrees of freedom as
           vibrations may cause significant error
 Vibrational temperatures:    102.54   143.08   199.51   283.73   320.58
          (Kelvin)            338.76   510.40   592.39   636.72   790.54
                              874.42  1073.47  1101.22  1171.91  1369.57
                             1592.07  1629.30  1696.13  1813.60  1940.10
                             2022.56  2061.54  2119.07  2148.06  2160.98
                             2194.86  2679.10  3156.95  4422.17  4463.46
                             4522.67  4526.65  4536.06  4558.51  5583.32

 Zero-point correction=                           0.109787 (Hartree/Particle)
 Thermal correction to Energy=                    0.118103
 Thermal correction to Enthalpy=                  0.119047
 Thermal correction to Gibbs Free Energy=         0.075233
 Sum of electronic and zero-point Energies=           -419.3169759
 Sum of electronic and thermal Energies=              -420.050706
 Sum of electronic and thermal Enthalpies=            -420.049761
 Sum of electronic and thermal Free Energies=         -420.093576

                     E (Thermal)             CV                S
                      KCal/Mol        Cal/Mol-Kelvin    Cal/Mol-Kelvin
 Total                   74.111             27.855             92.215
 Electronic               0.000              0.000              1.377
 Translational            0.889              2.981             40.136
 Rotational               0.889              2.981             29.397
 Vibrational             72.333             21.894             21.305
 Vibration     1          0.598              1.968              4.118
 Vibration     2          0.604              1.950              3.465
 Vibration     3          0.614              1.915              2.822
 Vibration     4          0.637              1.844              2.159
 Vibration     5          0.648              1.806              1.936
 Vibration     6          0.655              1.787              1.837
 Vibration     7          0.731              1.566              1.145
 Vibration     8          0.776              1.445              0.921
 Vibration     9          0.802              1.377              0.819
 Vibration    10          0.905              1.141              0.545
 Vibration    11          0.967              1.015              0.437

 1\1\GINC-AJ\Freq\UM062X\6-311++G(d,p)\C5H7O3(2)\AAYUSH\29-Mar-2025\0\\
 # freq 6-311++g(d,p) m062x\\Title Card Required\\0,2\C,-1.641993,-0.31
 0723,-0.049076\H,-3.08823,-1.042388,0.117135\C,-0.614808,0.326419,-0.0
 3561\C,0.657482,1.049909,0.023271\O,0.688105,2.198898,0.347967\O,1.757
 457,0.380653,-0.317834\C,1.713932,-1.027059,-0.615277\C,1.767461,-1.85
 1391,0.655413\H,0.825958,-1.251029,-1.209093\H,2.595252,-1.191711,-1.2
 32993\H,2.653857,-1.59301,1.236248\H,0.881436,-1.682092,1.269449\H,1.8
 11304,-2.913169,0.405022\O,-3.960469,-0.616888,-0.085364\H,-4.04713,0.

 Normal termination of Gaussian 16 at Sat Mar 29 01:43:29 2025.
