 Gaussian 16, Revision A.03,
 Gaussian 16:  ES64L-G16RevA.03 25-Dec-2016

 --------------------------
 # freq 6-311++g(d,p) m062x
 --------------------------

 -------------------
 Title Card Required
 -------------------
 Symbolic Z-matrix:
 Charge =  0 Multiplicity = 2

                         Standard orientation:
 ---------------------------------------------------------------------
 Center     Atomic      Atomic             Coordinates (Angstroms)
 Number     Number       Type             X           Y           Z
 ---------------------------------------------------------------------
      1          6           0       -1.668691   -0.240869   -0.051687
      2          1           0       -2.816036   -0.786412   -0.001692
      3          6           0       -0.638017    0.392793   -0.043105
      4          6           0        0.635353    1.126195    0.013711
      5          8           0        0.668013    2.275258    0.339218
      6          8           0        1.739645    0.459654   -0.326383
      7          6           0        1.700069   -0.947963   -0.623550
      8          6           0        1.755555   -1.772087    0.647231
      9          1           0        0.812585   -1.174623   -1.217098
     10          1           0        2.581767   -1.110910   -1.241321
     11          1           0        2.641576   -1.511764    1.227826
     12          1           0        0.869227   -1.604186    1.261174
     13          1           0        1.801411   -2.833883    0.397147
     14          8           0       -3.971177   -0.550878   -0.087597
     15          1           0       -4.087983    0.201091    0.516453
 ---------------------------------------------------------------------

 SCF Done:  E(UM062X) =  -420.169707862     A.U. after   22 cycles

 The electronic state is 2-A.
 Alpha  occ. eigenvalues --  -19.71491 -19.68442 -19.63083 -10.71088 -10.61487
 Alpha  occ. eigenvalues --  -10.59542 -10.58217 -10.54641  -1.25465  -1.19526
 Alpha  occ. eigenvalues --   -1.16918  -0.89831  -0.88743  -0.77598  -0.74011
 Alpha  occ. eigenvalues --   -0.68275  -0.63883  -0.58613  -0.58464  -0.57022
 Alpha  occ. eigenvalues --   -0.53342  -0.49825  -0.47801  -0.47458  -0.46360
 Alpha  occ. eigenvalues --   -0.44329  -0.42582  -0.40100  -0.38937  -0.37624
 Alpha  occ. eigenvalues --   -0.36612
 Alpha virt. eigenvalues --   -0.02401  -0.01017  -0.00132   0.01396   0.01453
 Alpha virt. eigenvalues --    0.03047   0.04271   0.04702   0.05097   0.05860
 Alpha virt. eigenvalues --    0.07163   0.07555   0.08113   0.09414   0.10048

  Beta  occ. eigenvalues --  -19.70258 -19.68445 -19.63067 -10.71079 -10.61488
  Beta  occ. eigenvalues --  -10.58879 -10.58130 -10.54641  -1.25454  -1.16889
  Beta  occ. eigenvalues --   -1.14604  -0.88972  -0.88546  -0.77321  -0.73263
  Beta  occ. eigenvalues --   -0.64411  -0.63174  -0.58517  -0.57056  -0.53674
  Beta  occ. eigenvalues --   -0.52918  -0.49818  -0.47492  -0.46261  -0.44217
  Beta  occ. eigenvalues --   -0.42614  -0.39596  -0.38597  -0.37109  -0.36312
  Beta virt. eigenvalues --   -0.16923  -0.01848  -0.00682   0.00045   0.01467
  Beta virt. eigenvalues --    0.01613   0.03106   0.04459   0.04911   0.05590
  Beta virt. eigenvalues --    0.05908   0.07251   0.07676   0.08239   0.09509

 Mulliken charges and spin densities:
               1          2
     1  C   -0.500622   0.422416
     2  H    0.435022  -0.033078
     3  C    0.517580  -0.002617
     4  C   -0.298097  -0.019695
     5  O   -0.248161   0.004015
     6  O   -0.031037   0.000018
     7  C   -0.353043  -0.004908
     8  C   -0.406853   0.002462
     9  H    0.162707   0.000881
    10  H    0.204739   0.000040
    11  H    0.187652   0.000116
    12  H    0.138941  -0.000101
    13  H    0.155662  -0.000219
    14  O   -0.237941   0.646193
    15  H    0.273450  -0.015521
 Sum of Mulliken charges =  -0.00000   1.00000

 Dipole moment (field-independent basis, Debye):
    X=             -1.0553    Y=             -3.4114    Z=              0.3358  Tot=              3.5866
 Quadrupole moment (field-independent basis, Debye-Ang):
   XX=            -42.6532   YY=            -54.3105   ZZ=            -47.2449
   XY=             -9.0279   XZ=             -5.7069   YZ=             -0.3911

  Exact polarizability: 117.959  13.056  75.925  -1.834   3.306  50.929
 Approx polarizability: 112.208  19.434  92.381  -0.893   7.161  60.080

 ******    3 imaginary frequencies (negative Signs) ******

                      1                      2                      3
                      A                      A                      A
 Frequencies --  -1607.1973              -103.0348               -21.7177
 Red. masses --      1.0447                 2.5824                 6.8214
 Frc consts  --      1.5899                 0.0162                 0.0019
 IR Inten    --    656.3949                18.0577                 4.4768

                      4                      5                      6
                      A                      A                      A
 Frequencies --     76.1884               107.7277               151.8027
 Red. masses --      3.8843                 3.7180                 2.0408
 Frc consts  --      0.0133                 0.0254                 0.0277
 IR Inten    --      0.7727                 0.1040                53.6330

                      7                      8                      9
                      A                      A                      A
 Frequencies --    184.5091               228.9153               269.1951
 Red. masses --      1.9665                 1.2024                 5.1915
 Frc consts  --      0.0394                 0.0371                 0.2217
 IR Inten    --     43.3991                 0.3861                14.3871

                     10                     11                     12
                      A                      A                      A
 Frequencies --    360.5876               394.0685               428.0848
 Red. masses --      2.9606                 6.0602                 3.8269
 Frc consts  --      0.2268                 0.5545                 0.4132
 IR Inten    --      0.9809                 7.1265                 2.1574

                     13                     14                     15
                      A                      A                      A
 Frequencies --    572.5843               627.9206               687.7691
 Red. masses --      4.8812                 6.7200                 1.2245
 Frc consts  --      0.9429                 1.5611                 0.3413
 IR Inten    --     12.7056                 8.4992               164.9127

                     16                     17                     18
                      A                      A                      A
 Frequencies --    753.7021               764.6946               813.8446
 Red. masses --      5.0612                 6.0537                 1.1609
 Frc consts  --      1.6939                 2.0857                 0.4530
 IR Inten    --      3.8055                29.6735                 7.1392

                     19                     20                     21
                      A                      A                      A
 Frequencies --    945.9397              1000.9542              1107.7684
 Red. masses --      2.0494                 1.3971                 3.2466
 Frc consts  --      1.0804                 0.8247                 2.3473
 IR Inten    --     26.3441                63.5346                50.0009

                     22                     23                     24
                      A                      A                      A
 Frequencies --   1133.2302              1179.5651              1260.6407
 Red. masses --      2.6340                 1.9182                 3.0031
 Frc consts  --      1.9929                 1.5725                 2.8119
 IR Inten    --     52.2740                68.0684               438.8761

                     25                     26                     27
                      A                      A                      A
 Frequencies --   1348.1953              1405.2370              1431.3437
 Red. masses --      1.2445                 1.2650                 1.3053
 Frc consts  --      1.3327                 1.4718                 1.5756
 IR Inten    --    120.8379                22.2388                12.4090

                     28                     29                     30
                      A                      A                      A
 Frequencies --   1440.6383              1493.0233              1502.0505
 Red. masses --      1.1352                 1.0401                 1.0469
 Frc consts  --      1.3881                 1.3660                 1.3917
 IR Inten    --    190.2272                 3.6103                 3.8594

                     31                     32                     33
                      A                      A                      A
 Frequencies --   1525.4018              1860.8369              2275.6780
 Red. masses --      1.1000                13.0166                10.5625
 Frc consts  --      1.5081                26.5561                32.2284
 IR Inten    --     20.3985               503.0310                24.5266

                     34                     35                     36
                      A                      A                      A
 Frequencies --   3073.3581              3101.6968              3145.8494
 Red. masses --      1.0353                 1.0623                 1.1042
 Frc consts  --      5.7618                 6.0214                 6.4381
 IR Inten    --      7.2911                15.2108                 0.8564

                     37                     38                     39
                      A                      A                      A
 Frequencies --   3152.1515              3167.7449              3800.9297
 Red. masses --      1.1012                 1.1062                 1.0667
 Frc consts  --      6.4465                 6.5401                 9.0798
 IR Inten    --     13.3303                24.3830               125.8267

 - Thermochemistry -
 -------------------
 Temperature   298.150 Kelvin.  Pressure   1.00000 Atm.
 Atom     1 has atomic number  6 and mass  12.00000

 Molecular mass:   115.03952 amu.
 Principal axes and moments of inertia in atomic units:
                           1         2         3
     Eigenvalues --   686.809481736.959452281.12379
           X            0.99903  -0.04408  -0.00234
           Y            0.04404   0.99893  -0.01381
           Z            0.00294   0.01369   0.99990
 This molecule is an asymmetric top.
 Rotational symmetry number  1.
 Warning -- assumption of classical behavior for rotation
           may cause significant error
 Rotational temperatures (Kelvin)      0.12611     0.04987     0.03797
 Rotational constants (GHZ):           2.62772     1.03902     0.79116
    3 imaginary frequencies ignored.
 Zero-point vibrational energy     279769.6 (Joules/Mol)
                                   66.86654 (Kcal/Mol)
 Warning -- explicit consideration of  10 degrees of freedom as
           vibrations may cause significant error
 Vibrational temperatures:    109.62   155.00   218.41   265.47   329.36
          (Kelvin)            387.31   518.81   566.98   615.92   823.82
                              903.44   989.55  1084.41  1100.23  1170.94
                             1361.00  1440.15  1593.83  1630.47  1697.13
                             1813.78  1939.75  2021.82  2059.38  2072.76
                             2148.13  2161.12  2194.71  2677.33  3274.19
                             4421.88  4462.65  4526.18  4535.24  4557.68
                             5468.69

 Zero-point correction=                           0.106559 (Hartree/Particle)
 Thermal correction to Energy=                    0.114942
 Thermal correction to Enthalpy=                  0.115886
 Thermal correction to Gibbs Free Energy=         0.072172
 Sum of electronic and zero-point Energies=           -419.3192251
 Sum of electronic and thermal Energies=              -420.054766
 Sum of electronic and thermal Enthalpies=            -420.053821
 Sum of electronic and thermal Free Energies=         -420.097535

                     E (Thermal)             CV                S
                      KCal/Mol        Cal/Mol-Kelvin    Cal/Mol-Kelvin
 Total                   72.127             28.980             92.004
 Electronic               0.000              0.000              1.377
 Translational            0.889              2.981             40.136
 Rotational               0.889              2.981             29.388
 Vibrational             70.350             23.019             21.103
 Vibration     1          0.599              1.965              3.987
 Vibration     2          0.606              1.943              3.309
 Vibration     3          0.619              1.901              2.650
 Vibration     4          0.631              1.861              2.282
 Vibration     5          0.652              1.797              1.887
 Vibration     6          0.674              1.730              1.601
 Vibration     7          0.735              1.553              1.120
 Vibration     8          0.761              1.483              0.985
 Vibration     9          0.790              1.409              0.865
 Vibration    10          0.929              1.091              0.499

 1\1\GINC-AJ\Freq\UM062X\6-311++G(d,p)\C5H7O3(2)\AAYUSH\29-Mar-2025\0\\
 # freq 6-311++g(d,p) m062x\\Title Card Required\\0,2\C,-1.653774,-0.31
 3792,-0.044031\H,-2.802132,-0.857237,0.005562\C,-0.621939,0.317973,-0.
 035053\C,0.652763,1.049019,0.02224\O,0.687458,2.197942,0.348032\O,1.75
 5908,0.380531,-0.317755\C,1.713815,-1.026939,-0.615271\C,1.767486,-1.8
 5147,0.655324\H,0.826056,-1.251824,-1.209083\H,2.595358,-1.191357,-1.2
 32874\H,2.653847,-1.592916,1.23619\H,0.881324,-1.682088,1.269098\H,1.8
 1145,-2.913288,0.404994\O,-3.956818,-0.619559,-0.080559\H,-4.072384,0.

 Normal termination of Gaussian 16 at Sat Mar 29 01:11:55 2025.
