 Gaussian 16, Revision A.03,
 Gaussian 16:  ES64L-G16RevA.03 25-Dec-2016

 --------------------------
 # freq 6-311++g(d,p) m062x
 --------------------------

 -------------------
 Title Card Required
 -------------------
 Symbolic Z-matrix:
 Charge =  0 Multiplicity = 2

                         Standard orientation:
 ---------------------------------------------------------------------
 Center     Atomic      Atomic             Coordinates (Angstroms)
 Number     Number       Type             X           Y           Z
 ---------------------------------------------------------------------
      1          6           0       -1.663530   -0.236079   -0.054012
      2          1           0       -2.960273   -0.837973    0.026438
      3          6           0       -0.633505    0.397953   -0.043495
      4          6           0        0.640454    1.125746    0.014185
      5          8           0        0.673166    2.274610    0.339625
      6          8           0        1.742010    0.457161   -0.326140
      7          6           0        1.699588   -0.950464   -0.623678
      8          6           0        1.753256   -1.774923    0.646905
      9          1           0        0.811751   -1.174945   -1.217588
     10          1           0        2.581017   -1.114663   -1.241410
     11          1           0        2.639642   -1.516480    1.227739
     12          1           0        0.867118   -1.605820    1.260796
     13          1           0        1.797220   -2.836660    0.396346
     14          8           0       -3.969741   -0.542754   -0.089988
     15          1           0       -4.077527    0.201005    0.520274
 ---------------------------------------------------------------------

 SCF Done:  E(UM062X) =  -420.167141842     A.U. after   22 cycles

 The electronic state is 2-A.
 Alpha  occ. eigenvalues --  -19.69789 -19.68720 -19.63456 -10.71419 -10.61697
 Alpha  occ. eigenvalues --  -10.60957 -10.58727 -10.54814  -1.25797  -1.19389
 Alpha  occ. eigenvalues --   -1.17264  -0.90508  -0.88976  -0.77854  -0.74159
 Alpha  occ. eigenvalues --   -0.68286  -0.64179  -0.58824  -0.57380  -0.56941
 Alpha  occ. eigenvalues --   -0.53609  -0.50063  -0.47776  -0.46937  -0.46442
 Alpha  occ. eigenvalues --   -0.43644  -0.42747  -0.40568  -0.39382  -0.38041
 Alpha  occ. eigenvalues --   -0.37050
 Alpha virt. eigenvalues --   -0.02763  -0.00896  -0.00085   0.01304   0.01370
 Alpha virt. eigenvalues --    0.02958   0.04130   0.04466   0.04965   0.05767
 Alpha virt. eigenvalues --    0.07030   0.07592   0.08005   0.09337   0.10031

  Beta  occ. eigenvalues --  -19.68885 -19.68725 -19.63433 -10.71404 -10.61698
  Beta  occ. eigenvalues --  -10.59991 -10.58621 -10.54814  -1.25780  -1.17220
  Beta  occ. eigenvalues --   -1.15987  -0.89201  -0.88745  -0.77501  -0.73329
  Beta  occ. eigenvalues --   -0.64774  -0.63855  -0.58785  -0.57358  -0.53620
  Beta  occ. eigenvalues --   -0.51924  -0.50067  -0.47722  -0.46473  -0.43873
  Beta  occ. eigenvalues --   -0.42830  -0.39819  -0.38825  -0.37320  -0.36511
  Beta virt. eigenvalues --   -0.17536  -0.01881  -0.00643   0.00105   0.01381
  Beta virt. eigenvalues --    0.01582   0.03049   0.04319   0.04785   0.05648
  Beta virt. eigenvalues --    0.05822   0.07142   0.07689   0.08145   0.09391

 Mulliken charges and spin densities:
               1          2
     1  C   -0.479327   0.662940
     2  H    0.420571  -0.035618
     3  C    0.550405  -0.016489
     4  C   -0.289879  -0.026783
     5  O   -0.244529   0.006158
     6  O   -0.029892   0.000089
     7  C   -0.357971  -0.006760
     8  C   -0.405844   0.003168
     9  H    0.165019   0.001767
    10  H    0.204942   0.000004
    11  H    0.188064   0.000230
    12  H    0.138860   0.000003
    13  H    0.156831  -0.000374
    14  O   -0.292980   0.421750
    15  H    0.275729  -0.010083
 Sum of Mulliken charges =  -0.00000   1.00000

 Dipole moment (field-independent basis, Debye):
    X=             -0.5309    Y=             -3.3745    Z=              0.4016  Tot=              3.4395
 Quadrupole moment (field-independent basis, Debye-Ang):
   XX=            -45.4796   YY=            -53.9835   ZZ=            -47.2022
   XY=             -9.1729   XZ=             -5.9506   YZ=             -0.4386

  Exact polarizability: 123.999  15.940  77.854  -2.096   3.280  51.294
 Approx polarizability: 115.775  21.333  94.460  -0.877   7.158  60.284

 ******    1 imaginary frequencies (negative Signs) ******

                      1                      2                      3
                      A                      A                      A
 Frequencies --   -913.3829                38.1799                46.2083
 Red. masses --      1.0469                 2.8338                 5.9448
 Frc consts  --      0.5146                 0.0024                 0.0075
 IR Inten    --    282.5394                16.8327                 2.2325

                      4                      5                      6
                      A                      A                      A
 Frequencies --     75.2002               107.9239               115.9035
 Red. masses --      3.4066                 4.1951                 1.7248
 Frc consts  --      0.0114                 0.0288                 0.0137
 IR Inten    --      5.8942                 0.5849                64.8670

                      7                      8                      9
                      A                      A                      A
 Frequencies --    164.0911               226.5577               237.1334
 Red. masses --      2.7252                 1.1619                 7.8008
 Frc consts  --      0.0432                 0.0351                 0.2584
 IR Inten    --     10.7565                 0.0465                14.0061

                     10                     11                     12
                      A                      A                      A
 Frequencies --    318.9591               357.8680               413.9986
 Red. masses --      7.0824                 2.7839                 3.6289
 Frc consts  --      0.4245                 0.2101                 0.3665
 IR Inten    --     25.8480                 2.9458                 6.9322

                     13                     14                     15
                      A                      A                      A
 Frequencies --    550.7344               560.1112               615.7276
 Red. masses --      3.5322                 1.2501                 6.5304
 Frc consts  --      0.6312                 0.2311                 1.4587
 IR Inten    --    149.6708                87.0643                 6.1356

                     16                     17                     18
                      A                      A                      A
 Frequencies --    749.2369               763.4165               814.3888
 Red. masses --      8.1736                 5.3040                 1.1839
 Frc consts  --      2.7034                 1.8213                 0.4626
 IR Inten    --     18.1370                12.1918                 3.6900

                     19                     20                     21
                      A                      A                      A
 Frequencies --    951.2549              1106.1660              1132.1288
 Red. masses --      2.2532                 3.4594                 2.5508
 Frc consts  --      1.2013                 2.4940                 1.9263
 IR Inten    --      8.7379                59.1177                52.9424

                     22                     23                     24
                      A                      A                      A
 Frequencies --   1178.9564              1259.4113              1298.2079
 Red. masses --      1.9340                 2.9992                 1.1625
 Frc consts  --      1.5838                 2.8028                 1.1543
 IR Inten    --     77.1224               474.2661                28.2682

                     25                     26                     27
                      A                      A                      A
 Frequencies --   1348.1878              1405.6732              1432.7661
 Red. masses --      1.2429                 1.2690                 1.3673
 Frc consts  --      1.3310                 1.4773                 1.6538
 IR Inten    --    125.3446                28.7421                19.7912

                     28                     29                     30
                      A                      A                      A
 Frequencies --   1493.0571              1501.9290              1525.4793
 Red. masses --      1.0400                 1.0471                 1.0999
 Frc consts  --      1.3660                 1.3917                 1.5080
 IR Inten    --      2.5128                 3.9454                20.4430

                     31                     32                     33
                      A                      A                      A
 Frequencies --   1860.8811              1922.4611              2246.6104
 Red. masses --     13.0256                 1.1539                 7.1606
 Frc consts  --     26.5757                 2.5127                21.2940
 IR Inten    --    479.5433               646.0095                22.9476

                     34                     35                     36
                      A                      A                      A
 Frequencies --   3073.5675              3101.7020              3146.1389
 Red. masses --      1.0353                 1.0624                 1.1041
 Frc consts  --      5.7626                 6.0222                 6.4388
 IR Inten    --      7.0100                15.1799                 0.9922

                     37                     38                     39
                      A                      A                      A
 Frequencies --   3152.5935              3168.1126              3843.6167
 Red. masses --      1.1012                 1.1061                 1.0667
 Frc consts  --      6.4484                 6.5413                 9.2849
 IR Inten    --     12.6720                24.1824               161.3048

 - Thermochemistry -
 -------------------
 Temperature   298.150 Kelvin.  Pressure   1.00000 Atm.
 Atom     1 has atomic number  6 and mass  12.00000

 Molecular mass:   115.03952 amu.
 Principal axes and moments of inertia in atomic units:
                           1         2         3
     Eigenvalues --   687.226531738.594932283.09316
           X            0.99907  -0.04312  -0.00256
           Y            0.04308   0.99897  -0.01396
           Z            0.00316   0.01383   0.99990
 This molecule is an asymmetric top.
 Rotational symmetry number  1.
 Warning -- assumption of classical behavior for rotation
           may cause significant error
 Rotational temperatures (Kelvin)      0.12603     0.04982     0.03794
 Rotational constants (GHZ):           2.62612     1.03805     0.79048
    1 imaginary frequencies ignored.
 Zero-point vibrational energy     282944.0 (Joules/Mol)
                                   67.62524 (Kcal/Mol)
 Warning -- explicit consideration of  14 degrees of freedom as
           vibrations may cause significant error
 Vibrational temperatures:     54.93    66.48   108.20   155.28   166.76
          (Kelvin)            236.09   325.97   341.18   458.91   514.89
                              595.65   792.38   805.88   885.89  1077.98
                             1098.39  1171.72  1368.64  1591.53  1628.88
                             1696.26  1812.01  1867.83  1939.74  2022.45
                             2061.43  2148.18  2160.94  2194.82  2677.39
                             2765.99  3232.37  4422.18  4462.66  4526.59
                             4535.88  4558.21  5530.11

 Zero-point correction=                           0.107768 (Hartree/Particle)
 Thermal correction to Energy=                    0.118155
 Thermal correction to Enthalpy=                  0.119100
 Thermal correction to Gibbs Free Energy=         0.069727
 Sum of electronic and zero-point Energies=           -419.3150823
 Sum of electronic and thermal Energies=              -420.048986
 Sum of electronic and thermal Enthalpies=            -420.048042
 Sum of electronic and thermal Free Energies=         -420.097415

                     E (Thermal)             CV                S
                      KCal/Mol        Cal/Mol-Kelvin    Cal/Mol-Kelvin
 Total                   74.144             33.291            103.913
 Electronic               0.000              0.000              1.377
 Translational            0.889              2.981             40.136
 Rotational               0.889              2.981             29.391
 Vibrational             72.366             27.330             33.009
 Vibration     1          0.594              1.982              5.351
 Vibration     2          0.595              1.979              4.973
 Vibration     3          0.599              1.966              4.012
 Vibration     4          0.606              1.943              3.306
 Vibration     5          0.608              1.936              3.168
 Vibration     6          0.623              1.887              2.502
 Vibration     7          0.650              1.801              1.906
 Vibration     8          0.656              1.784              1.824
 Vibration     9          0.705              1.637              1.315
 Vibration    10          0.733              1.559              1.131
 Vibration    11          0.778              1.440              0.913
 Vibration    12          0.906              1.138              0.543
 Vibration    13          0.916              1.118              0.524
 Vibration    14          0.975              0.999              0.423

 1\1\GINC-AJ\Freq\UM062X\6-311++G(d,p)\C5H7O3(2)\AAYUSH\29-Mar-2025\0\\
 # freq 6-311++g(d,p) m062x\\Title Card Required\\0,2\C,-1.64929099,-0.
 31261679,-0.04562711\H,-2.94603399,-0.91451079,0.03482289\C,-0.6192659
 9,0.32141521,-0.03511011\C,0.65469301,1.04920821,0.02256989\O,0.687405
 01,2.19807221,0.34800989\O,1.75624901,0.38062321,-0.31775511\C,1.71382
 701,-1.02700179,-0.61529311\C,1.76749501,-1.85146079,0.65528989\H,0.82
 599001,-1.25148279,-1.20920311\H,2.59525601,-1.19120079,-1.23302511\H,
 2.65388101,-1.59301779,1.23612389\H,0.88135701,-1.68235779,1.26918089\

 Normal termination of Gaussian 16 at Sat Mar 29 01:25:44 2025.
