 Gaussian 16, Revision A.03,
 Gaussian 16:  ES64L-G16RevA.03 25-Dec-2016

 --------------------------
 # freq 6-311++g(d,p) m062x
 --------------------------

 -------------------
 Title Card Required
 -------------------
 Symbolic Z-matrix:
 Charge =  0 Multiplicity = 2

                         Standard orientation:
 ---------------------------------------------------------------------
 Center     Atomic      Atomic             Coordinates (Angstroms)
 Number     Number       Type             X           Y           Z
 ---------------------------------------------------------------------
      1          6           0       -1.655273   -0.226344   -0.060349
      2          1           0       -3.118818   -0.971221    0.117351
      3          6           0       -0.625893    0.407109   -0.045098
      4          6           0        0.648836    1.125482    0.015610
      5          8           0        0.683463    2.274054    0.341361
      6          8           0        1.746502    0.452296   -0.325408
      7          6           0        1.697752   -0.954937   -0.624236
      8          6           0        1.747198   -1.780702    0.645702
      9          1           0        0.809377   -1.174935   -1.218912
     10          1           0        2.578912   -1.122407   -1.241430
     11          1           0        2.634121   -1.526222    1.227458
     12          1           0        0.861363   -1.608613    1.259236
     13          1           0        1.787239   -2.842405    0.394333
     14          8           0       -3.976197   -0.523528   -0.098792
     15          1           0       -4.058056    0.199577    0.534914
 ---------------------------------------------------------------------

 SCF Done:  E(UM062X) =  -420.169155310     A.U. after   23 cycles

 The electronic state is 2-A.
 Alpha  occ. eigenvalues --  -19.68752 -19.68413 -19.63465 -10.71414 -10.61743
 Alpha  occ. eigenvalues --  -10.61632 -10.58738 -10.54880  -1.25844  -1.19186
 Alpha  occ. eigenvalues --   -1.17307  -0.90737  -0.89039  -0.77894  -0.74082
 Alpha  occ. eigenvalues --   -0.67413  -0.64259  -0.58865  -0.57392  -0.55517
 Alpha  occ. eigenvalues --   -0.53619  -0.50129  -0.47814  -0.47507  -0.46424
 Alpha  occ. eigenvalues --   -0.43177  -0.42561  -0.40695  -0.39544  -0.38125
 Alpha  occ. eigenvalues --   -0.37087
 Alpha virt. eigenvalues --   -0.02895  -0.00921  -0.00036   0.01238   0.01338
 Alpha virt. eigenvalues --    0.02935   0.03930   0.04295   0.04955   0.05734
 Alpha virt. eigenvalues --    0.06958   0.07737   0.07965   0.09308   0.10009

  Beta  occ. eigenvalues --  -19.68758 -19.67760 -19.63447 -10.71393 -10.61744
  Beta  occ. eigenvalues --  -10.60443 -10.58622 -10.54881  -1.25832  -1.17275
  Beta  occ. eigenvalues --   -1.16868  -0.89222  -0.88718  -0.77505  -0.73201
  Beta  occ. eigenvalues --   -0.65182  -0.64148  -0.58836  -0.57422  -0.53627
  Beta  occ. eigenvalues --   -0.51341  -0.50136  -0.47787  -0.46543  -0.43556
  Beta  occ. eigenvalues --   -0.42875  -0.39819  -0.38857  -0.37280  -0.36457
  Beta virt. eigenvalues --   -0.16253  -0.01608  -0.00651   0.00112   0.01340
  Beta virt. eigenvalues --    0.01574   0.03060   0.04041   0.04678   0.05772
  Beta virt. eigenvalues --    0.06004   0.07107   0.07824   0.08132   0.09346

 Mulliken charges and spin densities:
               1          2
     1  C   -0.450505   0.840125
     2  H    0.360341  -0.027212
     3  C    0.589822  -0.032685
     4  C   -0.283297  -0.032222
     5  O   -0.244830   0.003367
     6  O   -0.030348  -0.000354
     7  C   -0.363690  -0.008071
     8  C   -0.405369   0.003719
     9  H    0.167758   0.002854
    10  H    0.203703  -0.000150
    11  H    0.188227   0.000323
    12  H    0.137810   0.000164
    13  H    0.157381  -0.000503
    14  O   -0.308234   0.257904
    15  H    0.281230  -0.007258
 Sum of Mulliken charges =  -0.00000   1.00000

 Dipole moment (field-independent basis, Debye):
    X=             -0.3330    Y=             -3.5987    Z=              0.5691  Tot=              3.6586
 Quadrupole moment (field-independent basis, Debye-Ang):
   XX=            -47.2986   YY=            -53.4307   ZZ=            -47.1336
   XY=             -8.5176   XZ=             -6.5494   YZ=             -0.6461

  Exact polarizability: 120.037  15.113  78.880  -2.576   3.236  51.960
 Approx polarizability: 110.717  19.852  94.847  -0.970   6.894  60.617

 ******    3 imaginary frequencies (negative Signs) ******

                      1                      2                      3
                      A                      A                      A
 Frequencies --   -435.2589              -139.3081               -38.8159
 Red. masses --      1.0365                 1.1677                 7.8244
 Frc consts  --      0.1157                 0.0134                 0.0069
 IR Inten    --    159.6161                68.0529                 0.3876

                      4                      5                      6
                      A                      A                      A
 Frequencies --     12.1444                71.5662                99.5388
 Red. masses --      4.3166                 4.0898                 4.9085
 Frc consts  --      0.0004                 0.0123                 0.0287
 IR Inten    --     12.4991                 1.0852                 3.6851

                      7                      8                      9
                      A                      A                      A
 Frequencies --    137.8801               197.0529               222.5138
 Red. masses --      3.2818                 8.4152                 1.3685
 Frc consts  --      0.0368                 0.1925                 0.0399
 IR Inten    --      9.6258                51.8849                 4.3725

                     10                     11                     12
                      A                      A                      A
 Frequencies --    234.5749               354.7031               411.6972
 Red. masses --      4.2579                 2.7768                 3.6697
 Frc consts  --      0.1380                 0.2058                 0.3665
 IR Inten    --     20.9279                 2.4680                 9.9939

                     13                     14                     15
                      A                      A                      A
 Frequencies --    447.8186               550.0375               607.5070
 Red. masses --      1.0616                 6.7468                 6.2815
 Frc consts  --      0.1254                 1.2026                 1.3659
 IR Inten    --    132.3052                61.4094                 7.2033

                     16                     17                     18
                      A                      A                      A
 Frequencies --    746.1662               765.5499               814.5028
 Red. masses --     10.2888                 4.7461                 1.1966
 Frc consts  --      3.3751                 1.6388                 0.4677
 IR Inten    --     22.9174                 6.5917                 2.9998

                     19                     20                     21
                      A                      A                      A
 Frequencies --    951.9214              1106.5751              1132.4629
 Red. masses --      2.2648                 3.4255                 2.5964
 Frc consts  --      1.2092                 2.4713                 1.9619
 IR Inten    --      8.5585                58.8361                56.7265

                     22                     23                     24
                      A                      A                      A
 Frequencies --   1178.8469              1260.5860              1348.4357
 Red. masses --      1.9204                 2.9894                 1.2473
 Frc consts  --      1.5724                 2.7988                 1.3362
 IR Inten    --     69.5457               445.3261               123.0349

                     25                     26                     27
                      A                      A                      A
 Frequencies --   1405.7127              1432.8258              1484.2740
 Red. masses --      1.2702                 1.3689                 1.0895
 Frc consts  --      1.4788                 1.6558                 1.4142
 IR Inten    --     29.8746                20.4874                67.2498

                     28                     29                     30
                      A                      A                      A
 Frequencies --   1492.9808              1501.9725              1525.4732
 Red. masses --      1.0404                 1.0472                 1.1005
 Frc consts  --      1.3664                 1.3919                 1.5089
 IR Inten    --      4.7370                 3.3066                19.1365

                     31                     32                     33
                      A                      A                      A
 Frequencies --   1862.2050              2193.4379              3073.5322
 Red. masses --     13.0345                11.5881                 1.0353
 Frc consts  --     26.6316                32.8483                 5.7625
 IR Inten    --    471.3911                72.9662                 6.9976

                     34                     35                     36
                      A                      A                      A
 Frequencies --   3102.3555              3146.1612              3152.6430
 Red. masses --      1.0624                 1.1041                 1.1012
 Frc consts  --      6.0244                 6.4389                 6.4487
 IR Inten    --     15.5141                 1.2650                12.3512

                     37                     38                     39
                      A                      A                      A
 Frequencies --   3168.2819              3184.7576              3881.8552
 Red. masses --      1.1062                 1.0697                 1.0683
 Frc consts  --      6.5422                 6.3926                 9.4845
 IR Inten    --     28.3158               253.9588               144.5021

 - Thermochemistry -
 -------------------
 Temperature   298.150 Kelvin.  Pressure   1.00000 Atm.
 Atom     1 has atomic number  6 and mass  12.00000

 Molecular mass:   115.03952 amu.
 Principal axes and moments of inertia in atomic units:
                           1         2         3
     Eigenvalues --   688.486441743.552912288.89900
           X            0.99915  -0.04110  -0.00335
           Y            0.04105   0.99905  -0.01451
           Z            0.00394   0.01436   0.99989
 This molecule is an asymmetric top.
 Rotational symmetry number  1.
 Warning -- assumption of classical behavior for rotation
           may cause significant error
 Rotational temperatures (Kelvin)      0.12580     0.04968     0.03784
 Rotational constants (GHZ):           2.62132     1.03509     0.78848
    3 imaginary frequencies ignored.
 Zero-point vibrational energy     288662.2 (Joules/Mol)
                                   68.99192 (Kcal/Mol)
 Warning -- explicit consideration of  12 degrees of freedom as
           vibrations may cause significant error
 Vibrational temperatures:     17.47   102.97   143.21   198.38   283.52
          (Kelvin)            320.15   337.50   510.34   592.34   644.31
                              791.38   874.07  1073.57  1101.46  1171.89
                             1369.60  1592.11  1629.36  1696.10  1813.70
                             1940.10  2022.51  2061.52  2135.54  2148.07
                             2161.00  2194.82  2679.30  3155.87  4422.13
                             4463.60  4526.62  4535.95  4558.45  4582.16
                             5585.12

 Zero-point correction=                           0.109946 (Hartree/Particle)
 Thermal correction to Energy=                    0.119176
 Thermal correction to Enthalpy=                  0.120120
 Thermal correction to Gibbs Free Energy=         0.072685
 Sum of electronic and zero-point Energies=           -419.3173395
 Sum of electronic and thermal Energies=              -420.049980
 Sum of electronic and thermal Enthalpies=            -420.049035
 Sum of electronic and thermal Free Energies=         -420.096470

                     E (Thermal)             CV                S
                      KCal/Mol        Cal/Mol-Kelvin    Cal/Mol-Kelvin
 Total                   74.784             29.829             99.835
 Electronic               0.000              0.000              1.377
 Translational            0.889              2.981             40.136
 Rotational               0.889              2.981             29.398
 Vibrational             73.006             23.867             28.924
 Vibration     1          0.593              1.987              7.625
 Vibration     2          0.598              1.968              4.110
 Vibration     3          0.604              1.949              3.463
 Vibration     4          0.614              1.915              2.833
 Vibration     5          0.636              1.844              2.160
 Vibration     6          0.648              1.807              1.939
 Vibration     7          0.654              1.788              1.844
 Vibration     8          0.731              1.566              1.145
 Vibration     9          0.776              1.445              0.921
 Vibration    10          0.807              1.366              0.802
 Vibration    11          0.905              1.140              0.544
 Vibration    12          0.966              1.016              0.437

 1\1\GINC-AJ\Freq\UM062X\6-311++G(d,p)\C5H7O3(2)\AAYUSH\29-Mar-2025\0\\
 # freq 6-311++g(d,p) m062x\\Title Card Required\\0,2\C,-1.641348,-0.31
 0485,-0.049563\H,-3.101954,-1.060676,0.129957\C,-0.614341,0.32684,-0.0
 35697\C,0.657728,1.050049,0.023359\O,0.688289,2.199057,0.34798\O,1.757
 656,0.380658,-0.317839\C,1.713963,-1.027035,-0.615277\C,1.767461,-1.85
 1384,0.655417\H,0.825974,-1.250938,-1.209071\H,2.595282,-1.191793,-1.2
 32974\H,2.653859,-1.593017,1.236259\H,0.881447,-1.682029,1.269453\H,1.
 811297,-2.913171,0.405039\O,-3.961169,-0.616412,-0.08597\H,-4.045265,0

 Normal termination of Gaussian 16 at Sat Mar 29 01:45:38 2025.
