 Gaussian 16, Revision A.03,
 Gaussian 16:  ES64L-G16RevA.03 25-Dec-2016

 --------------------------
 # freq 6-311++g(d,p) m062x
 --------------------------

 -------------------
 Title Card Required
 -------------------
 Symbolic Z-matrix:
 Charge =  0 Multiplicity = 2

                         Standard orientation:
 ---------------------------------------------------------------------
 Center     Atomic      Atomic             Coordinates (Angstroms)
 Number     Number       Type             X           Y           Z
 ---------------------------------------------------------------------
      1          6           0       -1.659442   -0.231966   -0.056515
      2          1           0       -3.036513   -0.894130    0.062436
      3          6           0       -0.629993    0.402288   -0.044102
      4          6           0        0.644315    1.125542    0.014729
      5          8           0        0.677467    2.274284    0.340222
      6          8           0        1.743898    0.455068   -0.325895
      7          6           0        1.698825   -0.952468   -0.623900
      8          6           0        1.750762   -1.777356    0.646469
      9          1           0        0.810726   -1.175080   -1.218105
     10          1           0        2.580092   -1.118020   -1.241455
     11          1           0        2.637394   -1.520558    1.227648
     12          1           0        0.864784   -1.606985    1.260271
     13          1           0        1.793014   -2.839094    0.395670
     14          8           0       -3.972338   -0.534748   -0.093366
     15          1           0       -4.068516    0.200797    0.525766
 ---------------------------------------------------------------------

 SCF Done:  E(UM062X) =  -420.167653946     A.U. after   23 cycles

 The electronic state is 2-A.
 Alpha  occ. eigenvalues --  -19.68902 -19.68797 -19.63544 -10.71492 -10.61764
 Alpha  occ. eigenvalues --  -10.61436 -10.58850 -10.54879  -1.25894  -1.19283
 Alpha  occ. eigenvalues --   -1.17360  -0.90740  -0.89054  -0.77932  -0.74182
 Alpha  occ. eigenvalues --   -0.67958  -0.64275  -0.58904  -0.57434  -0.56183
 Alpha  occ. eigenvalues --   -0.53675  -0.50142  -0.47840  -0.47007  -0.46393
 Alpha  occ. eigenvalues --   -0.43432  -0.42752  -0.40721  -0.39542  -0.38159
 Alpha  occ. eigenvalues --   -0.37163
 Alpha virt. eigenvalues --   -0.02888  -0.00886  -0.00047   0.01259   0.01339
 Alpha virt. eigenvalues --    0.02927   0.04050   0.04347   0.04931   0.05733
 Alpha virt. eigenvalues --    0.06973   0.07649   0.07972   0.09305   0.10014

  Beta  occ. eigenvalues --  -19.68803 -19.68144 -19.63520 -10.71474 -10.61766
  Beta  occ. eigenvalues --  -10.60350 -10.58738 -10.54879  -1.25877  -1.17316
  Beta  occ. eigenvalues --   -1.16500  -0.89269  -0.88797  -0.77552  -0.73322
  Beta  occ. eigenvalues --   -0.65036  -0.64095  -0.58867  -0.57452  -0.53671
  Beta  occ. eigenvalues --   -0.51513  -0.50151  -0.47799  -0.46547  -0.43635
  Beta  occ. eigenvalues --   -0.42897  -0.39882  -0.38895  -0.37367  -0.36551
  Beta virt. eigenvalues --   -0.17100  -0.01792  -0.00647   0.00131   0.01348
  Beta virt. eigenvalues --    0.01576   0.03040   0.04210   0.04717   0.05749
  Beta virt. eigenvalues --    0.05830   0.07106   0.07737   0.08126   0.09349

 Mulliken charges and spin densities:
               1          2
     1  C   -0.464833   0.763266
     2  H    0.393422  -0.031880
     3  C    0.570348  -0.023752
     4  C   -0.284094  -0.029760
     5  O   -0.243917   0.005869
     6  O   -0.029715  -0.000067
     7  C   -0.361095  -0.007443
     8  C   -0.405376   0.003469
     9  H    0.166394   0.002301
    10  H    0.204609  -0.000055
    11  H    0.188227   0.000274
    12  H    0.138408   0.000039
    13  H    0.157321  -0.000437
    14  O   -0.307696   0.326515
    15  H    0.277996  -0.008338
 Sum of Mulliken charges =  -0.00000   1.00000

 Dipole moment (field-independent basis, Debye):
    X=             -0.3394    Y=             -3.4353    Z=              0.4681  Tot=              3.4836
 Quadrupole moment (field-independent basis, Debye-Ang):
   XX=            -46.7400   YY=            -53.7317   ZZ=            -47.1687
   XY=             -9.0130   XZ=             -6.1892   YZ=             -0.5125

  Exact polarizability: 125.192  16.829  78.799  -2.449   3.230  51.631
 Approx polarizability: 114.014  21.076  94.950  -0.954   7.056  60.411

 ******    3 imaginary frequencies (negative Signs) ******

                      1                      2                      3
                      A                      A                      A
 Frequencies --   -618.5069               -89.9014               -17.2804
 Red. masses --      1.0486                 1.0533                 7.2086
 Frc consts  --      0.2363                 0.0050                 0.0013
 IR Inten    --     92.6034                71.4529                 2.3473

                      4                      5                      6
                      A                      A                      A
 Frequencies --     18.8088                75.0341               103.1572
 Red. masses --      7.2522                 4.3643                 4.4264
 Frc consts  --      0.0015                 0.0145                 0.0278
 IR Inten    --      5.7512                 1.4157                 1.1879

                      7                      8                      9
                      A                      A                      A
 Frequencies --    147.7259               213.1008               224.9240
 Red. masses --      3.2522                 7.8101                 1.1652
 Frc consts  --      0.0418                 0.2090                 0.0347
 IR Inten    --      4.2769                41.2983                 0.9229

                     10                     11                     12
                      A                      A                      A
 Frequencies --    257.1148               355.6308               412.2546
 Red. masses --      8.3104                 2.7867                 3.6879
 Frc consts  --      0.3237                 0.2077                 0.3693
 IR Inten    --     56.8677                 2.6398                 9.5535

                     13                     14                     15
                      A                      A                      A
 Frequencies --    481.5346               547.6475               610.6298
 Red. masses --      1.0769                 6.5000                 6.3395
 Frc consts  --      0.1471                 1.1486                 1.3927
 IR Inten    --    160.3269                66.4537                 7.5621

                     16                     17                     18
                      A                      A                      A
 Frequencies --    746.7218               764.2183               814.4945
 Red. masses --      9.3785                 4.9878                 1.1911
 Frc consts  --      3.0811                 1.7163                 0.4656
 IR Inten    --     22.6179                 9.2293                 3.1297

                     19                     20                     21
                      A                      A                      A
 Frequencies --    951.6893              1106.4207              1132.2790
 Red. masses --      2.2614                 3.4498                 2.5764
 Frc consts  --      1.2067                 2.4882                 1.9461
 IR Inten    --      8.4653                60.8309                55.5424

                     22                     23                     24
                      A                      A                      A
 Frequencies --   1178.9120              1259.9642              1348.3246
 Red. masses --      1.9268                 3.0035                 1.2450
 Frc consts  --      1.5778                 2.8093                 1.3336
 IR Inten    --     75.1485               471.2864               126.5145

                     25                     26                     27
                      A                      A                      A
 Frequencies --   1405.7162              1418.8143              1432.8506
 Red. masses --      1.2680                 1.1053                 1.3680
 Frc consts  --      1.4762                 1.3110                 1.6547
 IR Inten    --     33.9068                36.2665                20.2841

                     28                     29                     30
                      A                      A                      A
 Frequencies --   1493.0342              1501.9194              1525.5317
 Red. masses --      1.0400                 1.0472                 1.1001
 Frc consts  --      1.3659                 1.3917                 1.5085
 IR Inten    --      2.6945                 3.8353                20.3472

                     31                     32                     33
                      A                      A                      A
 Frequencies --   1861.4196              2196.8669              2645.4084
 Red. masses --     13.0346                 9.6052                 1.1026
 Frc consts  --     26.6094                27.3127                 4.5461
 IR Inten    --    473.8994                89.1558               608.2764

                     34                     35                     36
                      A                      A                      A
 Frequencies --   3073.5960              3101.9224              3146.1809
 Red. masses --      1.0353                 1.0625                 1.1040
 Frc consts  --      5.7628                 6.0232                 6.4388
 IR Inten    --      6.9565                15.3258                 1.1259

                     37                     38                     39
                      A                      A                      A
 Frequencies --   3152.7449              3168.2568              3866.0667
 Red. masses --      1.1012                 1.1062                 1.0672
 Frc consts  --      6.4491                 6.5419                 9.3978
 IR Inten    --     12.4545                24.0259               158.4820

 - Thermochemistry -
 -------------------
 Temperature   298.150 Kelvin.  Pressure   1.00000 Atm.
 Atom     1 has atomic number  6 and mass  12.00000

 Molecular mass:   115.03952 amu.
 Principal axes and moments of inertia in atomic units:
                           1         2         3
     Eigenvalues --   687.720391740.690652285.53667
           X            0.99910  -0.04226  -0.00287
           Y            0.04221   0.99901  -0.01416
           Z            0.00346   0.01403   0.99990
 This molecule is an asymmetric top.
 Rotational symmetry number  1.
 Warning -- assumption of classical behavior for rotation
           may cause significant error
 Rotational temperatures (Kelvin)      0.12594     0.04976     0.03790
 Rotational constants (GHZ):           2.62424     1.03680     0.78964
    3 imaginary frequencies ignored.
 Zero-point vibrational energy     285554.1 (Joules/Mol)
                                   68.24907 (Kcal/Mol)
 Warning -- explicit consideration of  12 degrees of freedom as
           vibrations may cause significant error
 Vibrational temperatures:     27.06   107.96   148.42   212.54   306.60
          (Kelvin)            323.62   369.93   511.67   593.14   692.82
                              787.94   878.56  1074.37  1099.54  1171.88
                             1369.27  1591.89  1629.10  1696.19  1812.81
                             1939.94  2022.51  2041.36  2061.55  2148.14
                             2160.93  2194.90  2678.17  3160.80  3806.15
                             4422.22  4462.97  4526.65  4536.10  4558.41
                             5562.41

 Zero-point correction=                           0.108762 (Hartree/Particle)
 Thermal correction to Energy=                    0.117858
 Thermal correction to Enthalpy=                  0.118802
 Thermal correction to Gibbs Free Energy=         0.072123
 Sum of electronic and zero-point Energies=           -419.3156828
 Sum of electronic and thermal Energies=              -420.049796
 Sum of electronic and thermal Enthalpies=            -420.048852
 Sum of electronic and thermal Free Energies=         -420.095530

                     E (Thermal)             CV                S
                      KCal/Mol        Cal/Mol-Kelvin    Cal/Mol-Kelvin
 Total                   73.957             29.693             98.244
 Electronic               0.000              0.000              1.377
 Translational            0.889              2.981             40.136
 Rotational               0.889              2.981             29.394
 Vibrational             72.180             23.731             27.337
 Vibration     1          0.593              1.986              6.756
 Vibration     2          0.599              1.966              4.017
 Vibration     3          0.605              1.947              3.394
 Vibration     4          0.617              1.905              2.701
 Vibration     5          0.644              1.821              2.017
 Vibration     6          0.650              1.803              1.919
 Vibration     7          0.667              1.751              1.681
 Vibration     8          0.731              1.564              1.141
 Vibration     9          0.776              1.444              0.919
 Vibration    10          0.838              1.291              0.706
 Vibration    11          0.903              1.145              0.549
 Vibration    12          0.970              1.009              0.432

 1\1\GINC-AJ\Freq\UM062X\6-311++G(d,p)\C5H7O3(2)\AAYUSH\29-Mar-2025\0\\
 # freq 6-311++g(d,p) m062x\\Title Card Required\\0,2\C,-1.645397,-0.31
 1742,-0.047208\H,-3.021373,-0.976066,0.072373\C,-0.616961,0.324163,-0.
 035316\C,0.656204,1.049477,0.022893\O,0.687609,2.198389,0.347961\O,1.7
 56763,0.38064,-0.3178\C,1.713858,-1.027074,-0.615283\C,1.767474,-1.851
 417,0.65537\H,0.825949,-1.251322,-1.209156\H,2.595215,-1.191439,-1.233
 027\H,2.653858,-1.59299,1.236205\H,0.881398,-1.682242,1.269361\H,1.811
 355,-2.913177,0.404943\O,-3.957816,-0.618238,-0.083295\H,-4.054996,0.1

 Normal termination of Gaussian 16 at Sat Mar 29 01:34:42 2025.
