 Gaussian 16, Revision A.03,
 Gaussian 16:  ES64L-G16RevA.03 25-Dec-2016

 --------------------------
 # ccsd(t)/6-311++g(d,p) sp
 --------------------------

 -------------------
 Title Card Required
 -------------------
 Symbolic Z-matrix:
 Charge =  0 Multiplicity = 2

                         Standard orientation:
 ---------------------------------------------------------------------
 Center     Atomic      Atomic             Coordinates (Angstroms)
 Number     Number       Type             X           Y           Z
 ---------------------------------------------------------------------
      1          6           0       -1.669865   -0.242540   -0.050823
      2          1           0       -2.711366   -0.776205   -0.008903
      3          6           0       -0.640245    0.390504   -0.043059
      4          6           0        0.632585    1.126535    0.013543
      5          8           0        0.665559    2.275708    0.339115
      6          8           0        1.738366    0.460808   -0.326465
      7          6           0        1.699963   -0.946732   -0.623522
      8          6           0        1.756174   -1.770805    0.647310
      9          1           0        0.812688   -1.174317   -1.216944
     10          1           0        2.581828   -1.109196   -1.241250
     11          1           0        2.642016   -1.509700    1.227845
     12          1           0        0.869748   -1.603399    1.261236
     13          1           0        1.802882   -2.832625    0.397364
     14          8           0       -3.975876   -0.553694   -0.087106
     15          1           0       -4.093860    0.201105    0.515606
 ---------------------------------------------------------------------

 SCF Done:  E(UHF) =  -417.946971116     A.U. after   42 cycles
 E2 =    -0.1272404829D+01 EUMP2 =    -0.41921937594572D+03
 CCSD(T)= -0.41932621707D+03

 The electronic state is 2-A.
 Alpha  occ. eigenvalues --  -20.68547 -20.60975 -20.55089 -11.41372 -11.30390
 Alpha  occ. eigenvalues --  -11.27369 -11.25645 -11.23301  -1.47357  -1.45803
 Alpha  occ. eigenvalues --   -1.37686  -1.06831  -1.04975  -0.91599  -0.87700
 Alpha  occ. eigenvalues --   -0.82444  -0.74484  -0.73289  -0.69096  -0.66539
 Alpha  occ. eigenvalues --   -0.63186  -0.62546  -0.58969  -0.57935  -0.55214
 Alpha  occ. eigenvalues --   -0.54671  -0.50954  -0.47387  -0.45972  -0.42676
 Alpha  occ. eigenvalues --   -0.42429
 Alpha virt. eigenvalues --    0.03356   0.04224   0.05704   0.06077   0.07505
 Alpha virt. eigenvalues --    0.08627   0.09135   0.09571   0.11148   0.12616
 Alpha virt. eigenvalues --    0.13193   0.14022   0.14864   0.15691   0.16178

  Beta  occ. eigenvalues --  -20.64642 -20.60944 -20.55461 -11.41131 -11.30399
  Beta  occ. eigenvalues --  -11.26526 -11.25489 -11.23301  -1.47476  -1.38248
  Beta  occ. eigenvalues --   -1.31369  -1.06304  -1.04954  -0.90963  -0.86440
  Beta  occ. eigenvalues --   -0.75437  -0.73884  -0.69424  -0.66658  -0.64882
  Beta  occ. eigenvalues --   -0.63115  -0.58478  -0.56036  -0.55790  -0.54711
  Beta  occ. eigenvalues --   -0.51018  -0.47956  -0.46558  -0.42319  -0.42077
  Beta virt. eigenvalues --    0.01183   0.04063   0.05259   0.05710   0.06181
  Beta virt. eigenvalues --    0.07541   0.08673   0.09241   0.10291   0.11180
  Beta virt. eigenvalues --    0.12702   0.13259   0.14030   0.15335   0.15810

 Mulliken charges and spin densities:
               1          2
     1  C   -0.503332   0.703047
     2  H    0.441074  -0.096086
     3  C    0.542209  -0.481292
     4  C   -0.241588   0.088877
     5  O   -0.336154  -0.078944
     6  O   -0.148795   0.000130
     7  C   -0.206593  -0.003118
     8  C   -0.413124  -0.000458
     9  H    0.137100   0.002374
    10  H    0.177745  -0.000073
    11  H    0.169748   0.000357
    12  H    0.125709   0.001150
    13  H    0.124349  -0.000393
    14  O   -0.149294   0.900681
    15  H    0.280946  -0.036253
 Sum of Mulliken charges =  -0.00000   1.00000

 Dipole moment (field-independent basis, Debye):
    X=             -2.3524    Y=             -3.9869    Z=              0.2768  Tot=              4.6374
 Quadrupole moment (field-independent basis, Debye-Ang):
   XX=            -37.6678   YY=            -55.6736   ZZ=            -47.2637
   XY=             -8.6881   XZ=             -5.8739   YZ=             -0.4922

 MP3-0=-419.2502468\MP4SDQ=-419.2701182\CCSD=-419.2716225\CCSD(T)=-419.
 Normal termination of Gaussian 16 at Thu May  1 23:11:32 2025.
