 Gaussian 16, Revision A.03,
 Gaussian 16:  ES64L-G16RevA.03 25-Dec-2016

 --------------------------
 # ccsd(t)/6-311++g(d,p) sp
 --------------------------

 -------------------
 Title Card Required
 -------------------
 Symbolic Z-matrix:
 Charge =  0 Multiplicity = 2

                         Standard orientation:
 ---------------------------------------------------------------------
 Center     Atomic      Atomic             Coordinates (Angstroms)
 Number     Number       Type             X           Y           Z
 ---------------------------------------------------------------------
      1          6           0       -1.667332   -0.239600   -0.052235
      2          1           0       -2.867608   -0.797107    0.003813
      3          6           0       -0.636724    0.394167   -0.043164
      4          6           0        0.636859    1.126032    0.013821
      5          8           0        0.669476    2.275032    0.339301
      6          8           0        1.740350    0.458957   -0.326328
      7          6           0        1.700032   -0.948682   -0.623574
      8          6           0        1.755051   -1.772864    0.647168
      9          1           0        0.812436   -1.174774   -1.217204
     10          1           0        2.581641   -1.111961   -1.241351
     11          1           0        2.641176   -1.513033    1.227812
     12          1           0        0.868785   -1.604633    1.261113
     13          1           0        1.800384   -2.834649    0.396994
     14          8           0       -3.969707   -0.548895   -0.088014
     15          1           0       -4.085068    0.201093    0.517054
 ---------------------------------------------------------------------

 SCF Done:  E(UHF) =  -417.926168082     A.U. after   40 cycles
 E2 =    -0.1273538442D+01 EUMP2 =    -0.41919970652401D+03
 CCSD(T)= -0.41931680373D+03

 The electronic state is 2-A.
 Alpha  occ. eigenvalues --  -20.67619 -20.61133 -20.55292 -11.41596 -11.30591
 Alpha  occ. eigenvalues --  -11.29532 -11.25682 -11.23487  -1.47558  -1.45408
 Alpha  occ. eigenvalues --   -1.37745  -1.07635  -1.05176  -0.91858  -0.87767
 Alpha  occ. eigenvalues --   -0.82716  -0.74691  -0.71963  -0.69227  -0.66749
 Alpha  occ. eigenvalues --   -0.63270  -0.61128  -0.58592  -0.57490  -0.55235
 Alpha  occ. eigenvalues --   -0.54803  -0.51136  -0.47620  -0.46291  -0.43931
 Alpha  occ. eigenvalues --   -0.43463
 Alpha virt. eigenvalues --    0.03477   0.04254   0.05622   0.06071   0.07451
 Alpha virt. eigenvalues --    0.08579   0.09004   0.09292   0.11054   0.12471
 Alpha virt. eigenvalues --    0.13173   0.13807   0.14784   0.15678   0.16030

  Beta  occ. eigenvalues --  -20.64428 -20.61078 -20.55939 -11.41163 -11.30607
  Beta  occ. eigenvalues --  -11.27171 -11.25841 -11.23488  -1.47775  -1.38724
  Beta  occ. eigenvalues --   -1.34029  -1.06652  -1.05149  -0.90940  -0.86062
  Beta  occ. eigenvalues --   -0.75272  -0.74261  -0.69826  -0.66911  -0.63609
  Beta  occ. eigenvalues --   -0.61278  -0.58839  -0.56254  -0.55393  -0.54639
  Beta  occ. eigenvalues --   -0.51259  -0.48483  -0.47027  -0.43181  -0.42672
  Beta virt. eigenvalues --   -0.01078   0.03981   0.04902   0.05621   0.06150
  Beta virt. eigenvalues --    0.07526   0.08670   0.09036   0.10527   0.11144
  Beta virt. eigenvalues --    0.12614   0.13179   0.13884   0.15259   0.15665

 Mulliken charges and spin densities:
               1          2
     1  C   -0.490465   1.356143
     2  H    0.434241  -0.166513
     3  C    0.585342  -0.868764
     4  C   -0.240021   0.156740
     5  O   -0.329358  -0.137038
     6  O   -0.149313  -0.000556
     7  C   -0.211234  -0.005721
     8  C   -0.411520  -0.000954
     9  H    0.136767   0.004763
    10  H    0.177827  -0.000260
    11  H    0.170505   0.000743
    12  H    0.124530   0.002347
    13  H    0.125745  -0.000814
    14  O   -0.205826   0.689513
    15  H    0.282783  -0.029630
 Sum of Mulliken charges =  -0.00000   1.00000

 Dipole moment (field-independent basis, Debye):
    X=             -1.8188    Y=             -3.9193    Z=              0.2987  Tot=              4.3311
 Quadrupole moment (field-independent basis, Debye-Ang):
   XX=            -40.6510   YY=            -55.4296   ZZ=            -47.1748
   XY=             -9.0872   XZ=             -5.8909   YZ=             -0.4795

 908\PMP3-0=-419.2412101\MP4SDQ=-419.2535077\CCSD=-419.2607325\CCSD(T)=
 Normal termination of Gaussian 16 at Sun May  4 20:05:06 2025.
