 Gaussian 16, Revision A.03,
 Gaussian 16:  ES64L-G16RevA.03 25-Dec-2016

 --------------------------
 # freq 6-311++g(d,p) m062x
 --------------------------

 -------------------
 Title Card Required
 -------------------
 Symbolic Z-matrix:
 Charge =  0 Multiplicity = 2

                         Standard orientation:
 ---------------------------------------------------------------------
 Center     Atomic      Atomic             Coordinates (Angstroms)
 Number     Number       Type             X           Y           Z
 ---------------------------------------------------------------------
      1          8           0        4.558901   -0.256494    0.320068
      2          1           0        4.605858    0.646989   -0.030983
      3          6           0        2.264035   -0.312422   -0.077190
      4          1           0        3.549029   -0.623674   -0.046550
      5          6           0        1.105021    0.024877   -0.106246
      6          6           0       -0.303106    0.403106   -0.189078
      7          8           0       -0.689584    1.531772   -0.062439
      8          8           0       -1.072983   -0.656750   -0.424552
      9          6           0       -2.491801   -0.405611   -0.509623
     10          6           0       -3.106394   -0.283343    0.870700
     11          1           0       -2.879081   -1.268060   -1.048882
     12          1           0       -2.651608    0.496638   -1.101002
     13          1           0       -4.188261   -0.169251    0.779444
     14          1           0       -2.901482   -1.178860    1.459075
     15          1           0       -2.711659    0.588339    1.392902
 ---------------------------------------------------------------------

 SCF Done:  E(UM062X) =  -420.175433172     A.U. after   22 cycles

 The electronic state is 2-A.
 Alpha  occ. eigenvalues --  -19.70345 -19.68688 -19.63610 -10.71095 -10.60909
 Alpha  occ. eigenvalues --  -10.59236 -10.57451 -10.54050  -1.26073  -1.18872
 Alpha  occ. eigenvalues --   -1.16794  -0.90772  -0.87317  -0.78312  -0.71061
 Alpha  occ. eigenvalues --   -0.67448  -0.64402  -0.58824  -0.57487  -0.56755
 Alpha  occ. eigenvalues --   -0.54044  -0.49694  -0.47085  -0.46716  -0.45720
 Alpha  occ. eigenvalues --   -0.43332  -0.42277  -0.39806  -0.38899  -0.37706
 Alpha  occ. eigenvalues --   -0.36648
 Alpha virt. eigenvalues --   -0.01927  -0.00537   0.00064   0.01728   0.02322
 Alpha virt. eigenvalues --    0.02705   0.03742   0.05092   0.05386   0.06315
 Alpha virt. eigenvalues --    0.06967   0.07842   0.08233   0.08752   0.10220

  Beta  occ. eigenvalues --  -19.69225 -19.68695 -19.63604 -10.71081 -10.60910
  Beta  occ. eigenvalues --  -10.58421 -10.57356 -10.54050  -1.26073  -1.16787
  Beta  occ. eigenvalues --   -1.14527  -0.90368  -0.86495  -0.77878  -0.70194
  Beta  occ. eigenvalues --   -0.64651  -0.62893  -0.58821  -0.56816  -0.54195
  Beta  occ. eigenvalues --   -0.51985  -0.49671  -0.47033  -0.45668  -0.43571
  Beta  occ. eigenvalues --   -0.42335  -0.39469  -0.38895  -0.36679  -0.36059
  Beta virt. eigenvalues --   -0.16561  -0.01313  -0.00235   0.00243   0.01741
  Beta virt. eigenvalues --    0.02349   0.02866   0.03893   0.05384   0.05663
  Beta virt. eigenvalues --    0.06577   0.07052   0.07861   0.08321   0.08807

 Mulliken charges and spin densities:
               1          2
     1  O   -0.277839   0.563753
     2  H    0.269245  -0.013643
     3  C   -0.653358   0.495671
     4  H    0.433406  -0.036015
     5  C    1.118181   0.049244
     6  C   -0.914592  -0.059167
     7  O   -0.209749   0.001300
     8  O    0.010578   0.000106
     9  C   -0.281372  -0.001288
    10  C   -0.403095   0.000244
    11  H    0.197465  -0.000123
    12  H    0.193631   0.000100
    13  H    0.165666  -0.000015
    14  H    0.167386  -0.000007
    15  H    0.184448  -0.000160
 Sum of Mulliken charges =  -0.00000   1.00000

 Dipole moment (field-independent basis, Debye):
    X=             -0.8768    Y=             -0.2964    Z=             -0.8709  Tot=              1.2709
 Quadrupole moment (field-independent basis, Debye-Ang):
   XX=            -35.6278   YY=            -52.1553   ZZ=            -48.0980
   XY=              8.0357   XZ=             -2.8338   YZ=             -0.3860

  Exact polarizability: 137.506  -6.995  60.926   2.843   0.498  50.522
 Approx polarizability: 122.865 -12.697  79.598   3.899   1.473  57.675

 ******    2 imaginary frequencies (negative Signs) ******

                      1                      2                      3
                      A                      A                      A
 Frequencies --  -1521.3424               -44.1271                49.0720
 Red. masses --      1.0322                 3.1099                 6.8335
 Frc consts  --      1.4075                 0.0036                 0.0097
 IR Inten    --    613.5592                16.2953                 1.5905

                      4                      5                      6
                      A                      A                      A
 Frequencies --     80.0732               116.4963               154.9215
 Red. masses --      3.1722                 3.3679                 3.5243
 Frc consts  --      0.0120                 0.0269                 0.0498
 IR Inten    --      3.8241                 1.4878                16.3549

                      7                      8                      9
                      A                      A                      A
 Frequencies --    181.4895               224.9826               272.0667
 Red. masses --      1.5891                 1.2834                 4.3450
 Frc consts  --      0.0308                 0.0383                 0.1895
 IR Inten    --     76.3953                 2.7016                13.6065

                     10                     11                     12
                      A                      A                      A
 Frequencies --    335.8764               368.9833               426.7797
 Red. masses --      2.8922                 7.8434                 3.7423
 Frc consts  --      0.1922                 0.6292                 0.4016
 IR Inten    --      9.5703                 2.6509                 2.0687

                     13                     14                     15
                      A                      A                      A
 Frequencies --    565.9316               614.4894               651.4501
 Red. masses --      5.5918                 5.3665                 1.1537
 Frc consts  --      1.0552                 1.1939                 0.2885
 IR Inten    --     10.8709                15.9940               175.7349

                     16                     17                     18
                      A                      A                      A
 Frequencies --    778.4556               798.0971               893.2628
 Red. masses --      9.1539                 1.2314                 3.1384
 Frc consts  --      3.2683                 0.4621                 1.4754
 IR Inten    --     21.4197                 2.9783                 9.5575

                     19                     20                     21
                      A                      A                      A
 Frequencies --    922.6413              1054.2653              1086.9633
 Red. masses --      2.4818                 1.6524                 2.5707
 Frc consts  --      1.2447                 1.0821                 1.7895
 IR Inten    --      4.6318                50.0586                33.0287

                     22                     23                     24
                      A                      A                      A
 Frequencies --   1127.7948              1202.7363              1285.5869
 Red. masses --      2.0920                 1.7782                 4.2155
 Frc consts  --      1.5678                 1.5156                 4.1049
 IR Inten    --     32.3835                 5.2497               764.8022

                     25                     26                     27
                      A                      A                      A
 Frequencies --   1346.7883              1401.0014              1430.4680
 Red. masses --      1.2090                 1.2727                 1.3752
 Frc consts  --      1.2921                 1.4719                 1.6580
 IR Inten    --    102.5308                31.0265                 8.8338

                     28                     29                     30
                      A                      A                      A
 Frequencies --   1486.8872              1492.6930              1501.5413
 Red. masses --      1.0739                 1.0423                 1.0679
 Frc consts  --      1.3989                 1.3683                 1.4186
 IR Inten    --    275.4313                 8.0573                 7.8081

                     31                     32                     33
                      A                      A                      A
 Frequencies --   1513.9574              1837.4322              2285.3790
 Red. masses --      1.0781                12.1108                10.7293
 Frc consts  --      1.4559                24.0905                33.0169
 IR Inten    --     25.0768               357.0787                41.1323

                     34                     35                     36
                      A                      A                      A
 Frequencies --   3075.9420              3108.2917              3151.4068
 Red. masses --      1.0354                 1.0608                 1.1014
 Frc consts  --      5.7716                 6.0382                 6.4449
 IR Inten    --     10.4597                18.5985                15.4417

                     37                     38                     39
                      A                      A                      A
 Frequencies --   3155.2586              3175.9788              3815.5067
 Red. masses --      1.1049                 1.1074                 1.0666
 Frc consts  --      6.4808                 6.5812                 9.1490
 IR Inten    --      2.0746                14.8823               136.7443

 - Thermochemistry -
 -------------------
 Temperature   298.150 Kelvin.  Pressure   1.00000 Atm.
 Atom     1 has atomic number  8 and mass  15.99491

 Molecular mass:   115.03952 amu.
 Principal axes and moments of inertia in atomic units:
                           1         2         3
     Eigenvalues --   286.957362618.241742730.83204
           X            0.99993   0.00861  -0.00837
           Y           -0.00869   0.99992  -0.00961
           Z            0.00829   0.00968   0.99992
 This molecule is an asymmetric top.
 Rotational symmetry number  1.
 Rotational temperatures (Kelvin)      0.30184     0.03308     0.03172
 Rotational constants (GHZ):           6.28923     0.68930     0.66088
    2 imaginary frequencies ignored.
 Zero-point vibrational energy     280948.7 (Joules/Mol)
                                   67.14834 (Kcal/Mol)
 Warning -- explicit consideration of  12 degrees of freedom as
           vibrations may cause significant error
 Vibrational temperatures:     70.60   115.21   167.61   222.90   261.12
          (Kelvin)            323.70   391.44   483.25   530.88   614.04
                              814.25   884.11   937.29  1120.02  1148.28
                             1285.21  1327.48  1516.85  1563.90  1622.65
                             1730.47  1849.67  1937.73  2015.73  2058.12
                             2139.30  2147.65  2160.38  2178.25  2643.66
                             3288.15  4425.59  4472.14  4534.17  4539.71
                             4569.53  5489.66

 Zero-point correction=                           0.107008 (Hartree/Particle)
 Thermal correction to Energy=                    0.116246
 Thermal correction to Enthalpy=                  0.117190
 Thermal correction to Gibbs Free Energy=         0.071331
 Sum of electronic and zero-point Energies=           -420.068425
 Sum of electronic and thermal Energies=              -420.059187
 Sum of electronic and thermal Enthalpies=            -420.058243
 Sum of electronic and thermal Free Energies=         -420.104102

                     E (Thermal)             CV                S
                      KCal/Mol        Cal/Mol-Kelvin    Cal/Mol-Kelvin
 Total                   72.945             30.914             96.518
 Electronic               0.000              0.000              1.377
 Translational            0.889              2.981             40.136
 Rotational               0.889              2.981             29.108
 Vibrational             71.168             24.952             25.897
 Vibration     1          0.595              1.978              4.854
 Vibration     2          0.600              1.963              3.889
 Vibration     3          0.608              1.936              3.158
 Vibration     4          0.620              1.897              2.611
 Vibration     5          0.630              1.865              2.313
 Vibration     6          0.650              1.803              1.919
 Vibration     7          0.675              1.725              1.583
 Vibration     8          0.717              1.604              1.232
 Vibration     9          0.741              1.536              1.084
 Vibration    10          0.788              1.412              0.869
 Vibration    11          0.922              1.105              0.512
 Vibration    12          0.974              1.001              0.425

 1\1\GINC-AJ\Freq\UM062X\6-311++G(d,p)\C5H7O3(2)\AAYUSH\16-Aug-2025\0\\
 # freq 6-311++g(d,p) m062x\\Title Card Required\\0,2\O,4.497189,-0.267
 648,0.332672\H,4.543829,0.635778,-0.018569\C,2.202384,-0.324554,-0.064
 8\H,3.487496,-0.6353,-0.033966\C,1.043241,0.012288,-0.094042\C,-0.3650
 24,0.389951,-0.177094\O,-0.751954,1.518494,-0.050736\O,-1.134466,-0.67
 0255,-0.412416\C,-2.553373,-0.419686,-0.49768\C,-3.16815,-0.29736,0.88
 2556\H,-2.940265,-1.282402,-1.036792\H,-2.713473,0.482373,-1.089269\H,
 -4.250052,-0.183709,0.791169\H,-2.962947,-1.192671,1.471144\H,-2.77380

 Normal termination of Gaussian 16 at Sat Aug 16 14:27:25 2025.
