 Gaussian 16, Revision A.03,
 Gaussian 16:  ES64L-G16RevA.03 25-Dec-2016

 -------------------
 # freq 6-31+g m062x
 -------------------

 -------------------
 Title Card Required
 -------------------
 Symbolic Z-matrix:
 Charge =  0 Multiplicity = 2

                         Standard orientation:
 ---------------------------------------------------------------------
 Center     Atomic      Atomic             Coordinates (Angstroms)
 Number     Number       Type             X           Y           Z
 ---------------------------------------------------------------------
      1          8           0        4.561641   -0.256787    0.320367
      2          1           0        4.609235    0.648951   -0.028980
      3          6           0        2.266087   -0.313446   -0.077448
      4          1           0        3.469856   -0.621922   -0.049856
      5          6           0        1.106953    0.023709   -0.106502
      6          6           0       -0.301718    0.403137   -0.188995
      7          8           0       -0.688696    1.531849   -0.063022
      8          8           0       -1.072457   -0.656738   -0.424249
      9          6           0       -2.491160   -0.405318   -0.509381
     10          6           0       -3.105804   -0.282411    0.870898
     11          1           0       -2.878722   -1.267892   -1.048296
     12          1           0       -2.650902    0.496754   -1.101059
     13          1           0       -4.187666   -0.168140    0.779645
     14          1           0       -2.901034   -1.177747    1.459616
     15          1           0       -2.710827    0.589380    1.392730
 ---------------------------------------------------------------------

 SCF Done:  E(UM062X) =  -419.927864604     A.U. after   23 cycles

 The electronic state is 2-A.
 Alpha  occ. eigenvalues --  -19.73888 -19.70893 -19.66526 -10.73218 -10.61797
 Alpha  occ. eigenvalues --  -10.59857 -10.58766 -10.54789  -1.28238  -1.20449
 Alpha  occ. eigenvalues --   -1.18863  -0.91220  -0.87811  -0.78708  -0.71667
 Alpha  occ. eigenvalues --   -0.67915  -0.64550  -0.58651  -0.57983  -0.56971
 Alpha  occ. eigenvalues --   -0.54350  -0.49767  -0.47499  -0.47131  -0.45656
 Alpha  occ. eigenvalues --   -0.44070  -0.42212  -0.39582  -0.38550  -0.37590
 Alpha  occ. eigenvalues --   -0.36671
 Alpha virt. eigenvalues --   -0.01842   0.01185   0.02190   0.03467   0.04180
 Alpha virt. eigenvalues --    0.04752   0.05027   0.06595   0.07516   0.08431
 Alpha virt. eigenvalues --    0.08877   0.09082   0.09372   0.10718   0.12470

  Beta  occ. eigenvalues --  -19.72503 -19.70898 -19.66525 -10.73208 -10.61797
  Beta  occ. eigenvalues --  -10.59252 -10.58696 -10.54789  -1.28240  -1.18865
  Beta  occ. eigenvalues --   -1.15273  -0.90921  -0.87212  -0.78410  -0.70867
  Beta  occ. eigenvalues --   -0.64850  -0.63448  -0.58656  -0.57003  -0.54483
  Beta  occ. eigenvalues --   -0.52354  -0.49752  -0.47145  -0.45570  -0.43705
  Beta  occ. eigenvalues --   -0.42248  -0.39311  -0.38554  -0.36845  -0.36291
  Beta virt. eigenvalues --   -0.15991  -0.01396   0.01648   0.02247   0.03484
  Beta virt. eigenvalues --    0.04656   0.04836   0.05066   0.06700   0.07677
  Beta virt. eigenvalues --    0.08480   0.08976   0.09101   0.09500   0.10932

 Mulliken charges and spin densities:
               1          2
     1  O   -0.436597   0.728646
     2  H    0.418511  -0.025615
     3  C    1.128532   0.124065
     4  H    0.490601  -0.049263
     5  C   -0.349305   0.185884
     6  C   -1.000247   0.037198
     7  O   -0.352282  -0.000441
     8  O   -0.208381  -0.000378
     9  C   -0.250809   0.000181
    10  C   -0.560895  -0.000188
    11  H    0.221389  -0.000020
    12  H    0.232977  -0.000025
    13  H    0.208799  -0.000048
    14  H    0.221247  -0.000002
    15  H    0.236459   0.000007
 Sum of Mulliken charges =  -0.00000   1.00000

 Dipole moment (field-independent basis, Debye):
    X=             -0.5836    Y=             -0.0170    Z=             -0.9726  Tot=              1.1344
 Quadrupole moment (field-independent basis, Debye-Ang):
   XX=            -34.1219   YY=            -53.5380   ZZ=            -48.4553
   XY=              9.1949   XZ=             -3.3278   YZ=             -0.4338

  Exact polarizability: 126.125  -6.169  58.489   3.101   0.397  45.938
 Approx polarizability: 111.624 -12.801  74.275   3.907   1.724  47.513

 ******    5 imaginary frequencies (negative Signs) ******

                      1                      2                      3
                      A                      A                      A
 Frequencies --  -1151.3968              -470.3105              -181.6700
 Red. masses --      1.0967                 1.0516                 3.3810
 Frc consts  --      0.8566                 0.1370                 0.0657
 IR Inten    --    369.9719               130.9846                39.2450

                      4                      5                      6
                      A                      A                      A
 Frequencies --   -128.7240               -30.4329                48.1828
 Red. masses --      7.9689                 2.9978                 3.9192
 Frc consts  --      0.0778                 0.0016                 0.0054
 IR Inten    --      8.7039                 0.2008                 7.0173

                      7                      8                      9
                      A                      A                      A
 Frequencies --    111.9057               186.0135               268.8542
 Red. masses --      3.3285                 1.2964                 4.0201
 Frc consts  --      0.0246                 0.0264                 0.1712
 IR Inten    --      4.7016                 1.2814                14.5131

                     10                     11                     12
                      A                      A                      A
 Frequencies --    317.4466               414.9806               439.6030
 Red. masses --      3.1893                 4.9957                 3.8302
 Frc consts  --      0.1894                 0.5069                 0.4361
 IR Inten    --      7.7409                 7.1558                 4.6993

                     13                     14                     15
                      A                      A                      A
 Frequencies --    568.7565               639.0838               692.2263
 Red. masses --      2.4909                 3.8753                 2.7922
 Frc consts  --      0.4747                 0.9326                 0.7883
 IR Inten    --     70.2473                29.8628               157.7760

                     16                     17                     18
                      A                      A                      A
 Frequencies --    799.7644               823.5413               892.3229
 Red. masses --      2.5342                 1.8813                 2.6302
 Frc consts  --      0.9550                 0.7518                 1.2339
 IR Inten    --     38.8165                13.6225                25.3069

                     19                     20                     21
                      A                      A                      A
 Frequencies --    923.8584               995.2269              1114.9534
 Red. masses --      1.9850                 1.9169                 4.0704
 Frc consts  --      0.9982                 1.1186                 2.9813
 IR Inten    --     33.5366                58.7614                 7.7886

                     22                     23                     24
                      A                      A                      A
 Frequencies --   1157.6464              1227.1402              1325.9565
 Red. masses --      2.0977                 1.7622                 2.1394
 Frc consts  --      1.6563                 1.5635                 2.2161
 IR Inten    --     28.1808                 3.2419               426.7642

                     25                     26                     27
                      A                      A                      A
 Frequencies --   1369.9897              1441.8976              1455.6079
 Red. masses --      1.6362                 1.3490                 1.2566
 Frc consts  --      1.8093                 1.6525                 1.5687
 IR Inten    --    302.2958                24.8948                21.8968

                     28                     29                     30
                      A                      A                      A
 Frequencies --   1477.0562              1528.0396              1535.8123
 Red. masses --      1.1108                 1.0423                 1.0774
 Frc consts  --      1.4278                 1.4339                 1.4973
 IR Inten    --    248.5507                14.0979                 9.4830

                     31                     32                     33
                      A                      A                      A
 Frequencies --   1544.7984              1905.2897              2380.9495
 Red. masses --      1.0665                12.3807                10.5879
 Frc consts  --      1.4995                26.4800                35.3638
 IR Inten    --     24.0874               326.1711                59.6378

                     34                     35                     36
                      A                      A                      A
 Frequencies --   3107.9422              3137.9169              3187.7891
 Red. masses --      1.0351                 1.0601                 1.1008
 Frc consts  --      5.8908                 6.1501                 6.5908
 IR Inten    --     13.6381                20.6252                12.8702

                     37                     38                     39
                      A                      A                      A
 Frequencies --   3190.8961              3211.8365              3809.4812
 Red. masses --      1.1022                 1.1052                 1.0656
 Frc consts  --      6.6118                 6.7176                 9.1116
 IR Inten    --      7.9979                17.6752                63.7908

 - Thermochemistry -
 -------------------
 Temperature   298.150 Kelvin.  Pressure   1.00000 Atm.
 Atom     1 has atomic number  8 and mass  15.99491

 Molecular mass:   115.03952 amu.
 Principal axes and moments of inertia in atomic units:
                           1         2         3
     Eigenvalues --   286.971932617.814222730.40032
           X            0.99993   0.00870  -0.00838
           Y           -0.00878   0.99992  -0.00946
           Z            0.00829   0.00953   0.99992
 This molecule is an asymmetric top.
 Rotational symmetry number  1.
 Rotational temperatures (Kelvin)      0.30182     0.03309     0.03172
 Rotational constants (GHZ):           6.28891     0.68941     0.66098
    5 imaginary frequencies ignored.
 Zero-point vibrational energy     282514.7 (Joules/Mol)
                                   67.52263 (Kcal/Mol)
 Warning -- explicit consideration of   8 degrees of freedom as
           vibrations may cause significant error
 Vibrational temperatures:     69.32   161.01   267.63   386.82   456.73
          (Kelvin)            597.06   632.49   818.31   919.50   995.96
                             1150.68  1184.89  1283.85  1329.23  1431.91
                             1604.17  1665.59  1765.58  1907.76  1971.11
                             2074.57  2094.30  2125.15  2198.51  2209.69
                             2222.62  2741.29  3425.66  4471.64  4514.76
                             4586.52  4590.99  4621.12  5480.99

 Zero-point correction=                           0.107604 (Hartree/Particle)
 Thermal correction to Energy=                    0.114832
 Thermal correction to Enthalpy=                  0.115776
 Thermal correction to Gibbs Free Energy=         0.074005
 Sum of electronic and zero-point Energies=           -419.820260
 Sum of electronic and thermal Energies=              -419.813033
 Sum of electronic and thermal Enthalpies=            -419.812088
 Sum of electronic and thermal Free Energies=         -419.853859

                     E (Thermal)             CV                S
                      KCal/Mol        Cal/Mol-Kelvin    Cal/Mol-Kelvin
 Total                   72.058             24.870             87.914
 Electronic               0.000              0.000              1.377
 Translational            0.889              2.981             40.136
 Rotational               0.889              2.981             29.107
 Vibrational             70.281             18.908             17.294
 Vibration     1          0.595              1.978              4.891
 Vibration     2          0.607              1.940              3.236
 Vibration     3          0.632              1.859              2.267
 Vibration     4          0.673              1.730              1.604
 Vibration     5          0.704              1.640              1.323
 Vibration     6          0.778              1.438              0.909
 Vibration     7          0.800              1.384              0.828
 Vibration     8          0.925              1.099              0.507

 Normal termination of Gaussian 16 at Fri Jun 20 12:27:06 2025.
