 Gaussian 16, Revision A.03,
 Gaussian 16:  ES64L-G16RevA.03 25-Dec-2016

 --------------------------
 # ccsd(t)/6-311++g(d,p) sp
 --------------------------

 -------------------
 Title Card Required
 -------------------
 Symbolic Z-matrix:
 Charge =  0 Multiplicity = 2

                         Standard orientation:
 ---------------------------------------------------------------------
 Center     Atomic      Atomic             Coordinates (Angstroms)
 Number     Number       Type             X           Y           Z
 ---------------------------------------------------------------------
      1          8           0        4.561641   -0.256787    0.320367
      2          1           0        4.609235    0.648951   -0.028980
      3          6           0        2.266087   -0.313446   -0.077448
      4          1           0        3.469856   -0.621922   -0.049856
      5          6           0        1.106953    0.023709   -0.106502
      6          6           0       -0.301718    0.403137   -0.188995
      7          8           0       -0.688696    1.531849   -0.063022
      8          8           0       -1.072457   -0.656738   -0.424249
      9          6           0       -2.491160   -0.405318   -0.509381
     10          6           0       -3.105804   -0.282411    0.870898
     11          1           0       -2.878722   -1.267892   -1.048296
     12          1           0       -2.650902    0.496754   -1.101059
     13          1           0       -4.187666   -0.168140    0.779645
     14          1           0       -2.901034   -1.177747    1.459616
     15          1           0       -2.710827    0.589380    1.392730
 ---------------------------------------------------------------------

 SCF Done:  E(UHF) =  -417.946412726     A.U. after   40 cycles
 E2 =    -0.1270480214D+01 EUMP2 =    -0.41921689294046D+03
 CCSD(T)= -0.41932879876D+03

 The electronic state is 2-A.
 Alpha  occ. eigenvalues --  -20.68045 -20.61163 -20.55633 -11.41375 -11.29646
 Alpha  occ. eigenvalues --  -11.27171 -11.24409 -11.22514  -1.47944  -1.45536
 Alpha  occ. eigenvalues --   -1.37606  -1.06988  -1.03873  -0.92414  -0.84644
 Alpha  occ. eigenvalues --   -0.81279  -0.75720  -0.72613  -0.69224  -0.66140
 Alpha  occ. eigenvalues --   -0.63354  -0.61703  -0.58305  -0.56855  -0.54493
 Alpha  occ. eigenvalues --   -0.53941  -0.50460  -0.47619  -0.46041  -0.42501
 Alpha  occ. eigenvalues --   -0.42271
 Alpha virt. eigenvalues --    0.03806   0.04422   0.06026   0.06559   0.07184
 Alpha virt. eigenvalues --    0.08329   0.09393   0.09597   0.11707   0.12689
 Alpha virt. eigenvalues --    0.13666   0.13876   0.14862   0.15689   0.16523

  Beta  occ. eigenvalues --  -20.64387 -20.61179 -20.56012 -11.41095 -11.29650
  Beta  occ. eigenvalues --  -11.25598 -11.24471 -11.22515  -1.48135  -1.38221
  Beta  occ. eigenvalues --   -1.32195  -1.07147  -1.02989  -0.91384  -0.82762
  Beta  occ. eigenvalues --   -0.76009  -0.73819  -0.69586  -0.66477  -0.63769
  Beta  occ. eigenvalues --   -0.62128  -0.58481  -0.55326  -0.55091  -0.54075
  Beta  occ. eigenvalues --   -0.50558  -0.48290  -0.47009  -0.41679  -0.41352
  Beta virt. eigenvalues --    0.00906   0.04349   0.05413   0.06021   0.06593
  Beta virt. eigenvalues --    0.07251   0.08391   0.09417   0.10043   0.12068
  Beta virt. eigenvalues --    0.12902   0.13727   0.14172   0.15121   0.15715

 Mulliken charges and spin densities:
               1          2
     1  O   -0.185986   0.825132
     2  H    0.277809  -0.034245
     3  C   -0.702197   0.995231
     4  H    0.419213  -0.122250
     5  C    1.277474  -0.686396
     6  C   -0.983185   0.097526
     7  O   -0.287205  -0.077540
     8  O   -0.085434   0.002206
     9  C   -0.163780   0.001323
    10  C   -0.359494  -0.000536
    11  H    0.166321  -0.000153
    12  H    0.174808  -0.000019
    13  H    0.133929  -0.000080
    14  H    0.144409  -0.000104
    15  H    0.173317  -0.000096
 Sum of Mulliken charges =  -0.00000   1.00000

 Dipole moment (field-independent basis, Debye):
    X=              0.5594    Y=             -0.4453    Z=             -0.7889  Tot=              1.0647
 Quadrupole moment (field-independent basis, Debye-Ang):
   XX=            -28.5018   YY=            -52.9541   ZZ=            -48.1282
   XY=              8.1233   XZ=             -2.1581   YZ=             -0.4675

 Normal termination of Gaussian 16 at Tue Aug 19 08:11:27 2025.
